
    -----------------------------------------------------------------------
          Psi4: An Open-Source Ab Initio Electronic Structure Package
                               Psi4 undefined 

                         Git: Rev {sto-ng} 7a76e79 


    D. G. A. Smith, L. A. Burns, A. C. Simmonett, R. M. Parrish,
    M. C. Schieber, R. Galvelis, P. Kraus, H. Kruse, R. Di Remigio,
    A. Alenaizan, A. M. James, S. Lehtola, J. P. Misiewicz, M. Scheurer,
    R. A. Shaw, J. B. Schriber, Y. Xie, Z. L. Glick, D. A. Sirianni,
    J. S. O'Brien, J. M. Waldrop, A. Kumar, E. G. Hohenstein,
    B. P. Pritchard, B. R. Brooks, H. F. Schaefer III, A. Yu. Sokolov,
    K. Patkowski, A. E. DePrince III, U. Bozkaya, R. A. King,
    F. A. Evangelista, J. M. Turney, T. D. Crawford, C. D. Sherrill,
    J. Chem. Phys. 152(18) 184108 (2020). https://doi.org/10.1063/5.0006002

                            Additional Code Authors
    E. T. Seidl, C. L. Janssen, E. F. Valeev, M. L. Leininger,
    J. F. Gonthier, R. M. Richard, H. R. McAlexander, M. Saitow, X. Wang,
    P. Verma, and M. H. Lechner

             Previous Authors, Complete List of Code Contributors,
                       and Citations for Specific Modules
    https://github.com/psi4/psi4/blob/master/codemeta.json
    https://github.com/psi4/psi4/graphs/contributors
    http://psicode.org/psi4manual/master/introduction.html#citing-psifour

    -----------------------------------------------------------------------


    Psi4 started on: Saturday, 03 July 2021 12:50AM

    Process ID: 117272
    Host:       thinkpad
    PSIDATADIR: /home/work/psi4/install/share/psi4
    Memory:     500.0 MiB
    Threads:    4
    
  ==> Input File <==

--------------------------------------------------------------------------
#! Test individual integral objects for correctness.
print(' Case Study Test of Integrals')

molecule h2o {
  o@15.99491461956
  h@1.00782503207  1 R
  h@1.00782503207  1 R 2 103.1
}

h2o.R = 0.52917721067 / 0.52917720859

input_directory = get_input_directory() + "/"                        #TEST

#################################################################### #TEST
# Test Angular Momentum Integrals SO                                 #TEST
#################################################################### #TEST

set {
  basis sto-3g
}

wfn = Wavefunction(h2o, BasisSet.build(h2o))
mints = MintsHelper(wfn.basisset())
factory = mints.factory()                                            #TEST

Li = mints.so_angular_momentum()

#Li[0].save("Lx-STO-3G.dat", False, False, True)                     #TEST
#Li[1].save("Ly-STO-3G.dat", False, False, True)                     #TEST
#Li[2].save("Lz-STO-3G.dat", False, False, True)                     #TEST

RefX = factory.create_matrix("Lx SO")                                #TEST
RefY = factory.create_matrix("Ly SO")                                #TEST
RefZ = factory.create_matrix("Lz SO")                                #TEST

RefX.load(input_directory + "Lx-STO-3G.dat")                         #TEST
RefY.load(input_directory + "Ly-STO-3G.dat")                         #TEST
RefZ.load(input_directory + "Lz-STO-3G.dat")                         #TEST

print("   -H2O STO-3G Angular Momentum Integrals:")           #TEST
compare_matrices(RefX, Li[0], 12, "SO Lx")                           #TEST
compare_matrices(RefY, Li[1], 12, "SO Ly")                           #TEST
compare_matrices(RefZ, Li[2], 12, "SO Lz")                           #TEST

set {
  basis 6-311G**
}

wfn = Wavefunction(h2o, BasisSet.build(h2o))
mints = MintsHelper(wfn.basisset())
factory = mints.factory()                                            #TEST

Li = mints.so_angular_momentum()

#Li[0].save("Lx-6-311Gss.dat", False, False, True)                   #TEST
#Li[1].save("Ly-6-311Gss.dat", False, False, True)                   #TEST
#Li[2].save("Lz-6-311Gss.dat", False, False, True)                   #TEST

RefX = factory.create_matrix("Lx SO")                                #TEST
RefY = factory.create_matrix("Ly SO")                                #TEST
RefZ = factory.create_matrix("Lz SO")                                #TEST

RefX.load(input_directory + "Lx-6-311Gss.dat")                       #TEST
RefY.load(input_directory + "Ly-6-311Gss.dat")                       #TEST
RefZ.load(input_directory + "Lz-6-311Gss.dat")                       #TEST

print("   -H2O 6-311G** Angular Momentum Integrals:")         #TEST
compare_matrices(RefX, Li[0], 12, "SO Lx")                           #TEST
compare_matrices(RefY, Li[1], 12, "SO Ly")                           #TEST
compare_matrices(RefZ, Li[2], 12, "SO Lz")                           #TEST

set {
  basis cc-pVTZ
}

wfn = Wavefunction(h2o, BasisSet.build(h2o))
mints = MintsHelper(wfn.basisset())
factory = mints.factory()                                            #TEST

Li = mints.so_angular_momentum()

#Li[0].save("Lx-cc-pVTZ.dat", False, False, True)                    #TEST
#Li[1].save("Ly-cc-pVTZ.dat", False, False, True)                    #TEST
#Li[2].save("Lz-cc-pVTZ.dat", False, False, True)                    #TEST

RefX = factory.create_matrix("Lx SO")                                #TEST
RefY = factory.create_matrix("Ly SO")                                #TEST
RefZ = factory.create_matrix("Lz SO")                                #TEST

RefX.load(input_directory + "Lx-cc-pVTZ.dat")                        #TEST
RefY.load(input_directory + "Ly-cc-pVTZ.dat")                        #TEST
RefZ.load(input_directory + "Lz-cc-pVTZ.dat")                        #TEST

print("   -H2O cc-pVTZ Angular Momentum Integrals:")          #TEST
compare_matrices(RefX, Li[0], 12, "SO Lx")                           #TEST
compare_matrices(RefY, Li[1], 12, "SO Ly")                           #TEST
compare_matrices(RefZ, Li[2], 12, "SO Lz")                           #TEST

#################################################################### #TEST
# Test Nabla integrals                                               #TEST
#################################################################### #TEST

set {
  basis sto-3g
}

wfn = Wavefunction(h2o, BasisSet.build(h2o))
mints = MintsHelper(wfn.basisset())
factory = mints.factory()                                            #TEST

Pi = mints.so_nabla()

#Pi[0].save("Px-STO-3G.dat", False, False, True)                     #TEST
#Pi[1].save("Py-STO-3G.dat", False, False, True)                     #TEST
#Pi[2].save("Pz-STO-3G.dat", False, False, True)                     #TEST

RefX = factory.create_matrix("Px SO")                                #TEST
RefY = factory.create_matrix("Py SO")                                #TEST
RefZ = factory.create_matrix("Pz SO")                                #TEST

RefX.load(input_directory + "Px-STO-3G.dat")                         #TEST
RefY.load(input_directory + "Py-STO-3G.dat")                         #TEST
RefZ.load(input_directory + "Pz-STO-3G.dat")                         #TEST

print("   -H2O STO-3G Nabla Integrals:")                      #TEST
compare_matrices(RefX, Pi[0], 12, "SO Px")                           #TEST
compare_matrices(RefY, Pi[1], 12, "SO Py")                           #TEST
compare_matrices(RefZ, Pi[2], 12, "SO Pz")                           #TEST

set {
  basis 6-311G**
}

wfn = Wavefunction(h2o, BasisSet.build(h2o))
mints = MintsHelper(wfn.basisset())
factory = mints.factory()                                            #TEST

Pi = mints.so_nabla()

#Pi[0].save("Px-6-311Gss.dat", False, False, True)                   #TEST
#Pi[1].save("Py-6-311Gss.dat", False, False, True)                   #TEST
#Pi[2].save("Pz-6-311Gss.dat", False, False, True)                   #TEST

RefX = factory.create_matrix("Px SO")                                #TEST
RefY = factory.create_matrix("Py SO")                                #TEST
RefZ = factory.create_matrix("Pz SO")                                #TEST

RefX.load(input_directory + "Px-6-311Gss.dat")                       #TEST
RefY.load(input_directory + "Py-6-311Gss.dat")                       #TEST
RefZ.load(input_directory + "Pz-6-311Gss.dat")                       #TEST

print("   -H2O 6-311G** Nabla Integrals:")                    #TEST
compare_matrices(RefX, Pi[0], 12, "SO Px")                           #TEST
compare_matrices(RefY, Pi[1], 12, "SO Py")                           #TEST
compare_matrices(RefZ, Pi[2], 12, "SO Pz")                           #TEST

set {
  basis cc-pVTZ
}

wfn = Wavefunction(h2o, BasisSet.build(h2o))
mints = MintsHelper(wfn.basisset())
factory = mints.factory()                                            #TEST

Pi = mints.so_nabla()

#Pi[0].save("Px-cc-pVTZ.dat", False, False, True)                    #TEST
#Pi[1].save("Py-cc-pVTZ.dat", False, False, True)                    #TEST
#Pi[2].save("Pz-cc-pVTZ.dat", False, False, True)                    #TEST

RefX = factory.create_matrix("Lx SO")                                #TEST
RefY = factory.create_matrix("Ly SO")                                #TEST
RefZ = factory.create_matrix("Lz SO")                                #TEST

RefX.load(input_directory + "Px-cc-pVTZ.dat")                        #TEST
RefY.load(input_directory + "Py-cc-pVTZ.dat")                        #TEST
RefZ.load(input_directory + "Pz-cc-pVTZ.dat")                        #TEST

print("   -H2O cc-pVTZ Nabla Integrals:")                     #TEST
compare_matrices(RefX, Pi[0], 12, "SO Px")                           #TEST
compare_matrices(RefY, Pi[1], 12, "SO Py")                           #TEST
compare_matrices(RefZ, Pi[2], 12, "SO Pz")                           #TEST
--------------------------------------------------------------------------
Molecule: geometry: Molecule is not complete, please use 'update_geometry'
                    once all variables are set.
Molecule: Setting geometry variable R to 1.000000
   => Loading Basis Set <=

    Name: STO-3G
    Role: ORBITAL
    Keyword: None
    atoms 1   entry O          line    79 file /home/work/psi4/install/share/psi4/basis/sto-3g.gbs 
    atoms 2-3 entry H          line    17 file /home/work/psi4/install/share/psi4/basis/sto-3g.gbs 

    SO Lx.................................................................................PASSED
    SO Ly.................................................................................PASSED
    SO Lz.................................................................................PASSED
   => Loading Basis Set <=

    Name: 6-311G**
    Role: ORBITAL
    Keyword: None
    atoms 1   entry O          line   151 file /home/work/psi4/install/share/psi4/basis/6-311gss.gbs 
    atoms 2-3 entry H          line    32 file /home/work/psi4/install/share/psi4/basis/6-311gss.gbs 

    SO Lx.................................................................................PASSED
    SO Ly.................................................................................PASSED
    SO Lz.................................................................................PASSED
   => Loading Basis Set <=

    Name: CC-PVTZ
    Role: ORBITAL
    Keyword: None
    atoms 1   entry O          line   262 file /home/work/psi4/install/share/psi4/basis/cc-pvtz.gbs 
    atoms 2-3 entry H          line    23 file /home/work/psi4/install/share/psi4/basis/cc-pvtz.gbs 

    SO Lx.................................................................................PASSED
    SO Ly.................................................................................PASSED
    SO Lz.................................................................................PASSED
   => Loading Basis Set <=

    Name: STO-3G
    Role: ORBITAL
    Keyword: None
    atoms 1   entry O          line    79 file /home/work/psi4/install/share/psi4/basis/sto-3g.gbs 
    atoms 2-3 entry H          line    17 file /home/work/psi4/install/share/psi4/basis/sto-3g.gbs 

    SO Px.................................................................................PASSED
    SO Py.................................................................................PASSED
    SO Pz.................................................................................PASSED
   => Loading Basis Set <=

    Name: 6-311G**
    Role: ORBITAL
    Keyword: None
    atoms 1   entry O          line   151 file /home/work/psi4/install/share/psi4/basis/6-311gss.gbs 
    atoms 2-3 entry H          line    32 file /home/work/psi4/install/share/psi4/basis/6-311gss.gbs 

    SO Px.................................................................................PASSED
    SO Py.................................................................................PASSED
    SO Pz.................................................................................PASSED
   => Loading Basis Set <=

    Name: CC-PVTZ
    Role: ORBITAL
    Keyword: None
    atoms 1   entry O          line   262 file /home/work/psi4/install/share/psi4/basis/cc-pvtz.gbs 
    atoms 2-3 entry H          line    23 file /home/work/psi4/install/share/psi4/basis/cc-pvtz.gbs 

    SO Px.................................................................................PASSED
    SO Py.................................................................................PASSED
    SO Pz.................................................................................PASSED

    Psi4 stopped on: Saturday, 03 July 2021 12:50AM
    Psi4 wall time for execution: 0:00:00.24

*** Psi4 exiting successfully. Buy a developer a beer!
