
    -----------------------------------------------------------------------
          Psi4: An Open-Source Ab Initio Electronic Structure Package
                               Psi4 1.2rc4.dev2 

                         Git: Rev {fexp} 9cbd6ec 


    R. M. Parrish, L. A. Burns, D. G. A. Smith, A. C. Simmonett,
    A. E. DePrince III, E. G. Hohenstein, U. Bozkaya, A. Yu. Sokolov,
    R. Di Remigio, R. M. Richard, J. F. Gonthier, A. M. James,
    H. R. McAlexander, A. Kumar, M. Saitow, X. Wang, B. P. Pritchard,
    P. Verma, H. F. Schaefer III, K. Patkowski, R. A. King, E. F. Valeev,
    F. A. Evangelista, J. M. Turney, T. D. Crawford, and C. D. Sherrill,
    J. Chem. Theory Comput. 13(7) pp 3185--3197 (2017).
    (doi: 10.1021/acs.jctc.7b00174)


                         Additional Contributions by
    P. Kraus, H. Kruse, M. H. Lechner, M. C. Schieber, and R. A. Shaw

    -----------------------------------------------------------------------


    Psi4 started on: Monday, 02 July 2018 04:11PM

    Process ID: 823
    Host:       psinet
    PSIDATADIR: /home/psilocaluser/gits/hrw-patch/objdir-intel4/stage/usr/local/psi4/share/psi4
    Memory:     500.0 MiB
    Threads:    1
    
  ==> Input File <==

--------------------------------------------------------------------------
#! test scf castup with custom basis sets

molecule {
  O 
  H 1 0.96
  H 1 0.96 2 104.5
}

basis low {
    assign sto-3g
}
basis high {
    assign cc-pvdz
}
set scf d_convergence 6


core.IO.set_default_namespace("low")
set basis low
energy('hf')

compare_values(-74.9634059, get_variable('SCF TOTAL ENERGY'), 6, 'SCF energy')  #TEST


core.IO.set_default_namespace('high')
core.IO.change_file_namespace(180, 'low', 'high')
set guess read
set basis high
energy('hf')


compare_values(-76.02663273485877, get_variable('SCF TOTAL ENERGY'), 6, 'SCF energy')  #TEST
--------------------------------------------------------------------------

*** tstart() called on psinet
*** at Mon Jul  2 16:11:54 2018

   => Loading Basis Set <=

    Name: LOW
    Role: ORBITAL
    Keyword: BASIS
    atoms 1   entry O          line    81 file /home/psilocaluser/gits/hrw-patch/objdir-intel4/stage/usr/local/psi4/share/psi4/basis/sto-3g.gbs 
    atoms 2-3 entry H          line    19 file /home/psilocaluser/gits/hrw-patch/objdir-intel4/stage/usr/local/psi4/share/psi4/basis/sto-3g.gbs 

    There are an even number of electrons - assuming singlet.
    Specify the multiplicity in the molecule input block.


         ---------------------------------------------------------
                                   SCF
            by Justin Turney, Rob Parrish, Andy Simmonett
                             and Daniel Smith
                              RHF Reference
                        1 Threads,    500 MiB Core
         ---------------------------------------------------------

  ==> Geometry <==

    Molecular point group: c2v
    Full point group: C2v

    Geometry (in Angstrom), charge = 0, multiplicity = 1:

       Center              X                  Y                   Z               Mass       
    ------------   -----------------  -----------------  -----------------  -----------------
         O            0.000000000000     0.000000000000    -0.065775570538    15.994914619560
         H            0.000000000000    -0.759061990794     0.521953018295     1.007825032070
         H            0.000000000000     0.759061990794     0.521953018295     1.007825032070

  Running in c2v symmetry.

  Rotational constants: A =     27.26297  B =     14.51533  C =      9.47217 [cm^-1]
  Rotational constants: A = 817323.20514  B = 435158.59817  C = 283968.37324 [MHz]
  Nuclear repulsion =    9.168193260387573

  Charge       = 0
  Multiplicity = 1
  Electrons    = 10
  Nalpha       = 5
  Nbeta        = 5

  ==> Algorithm <==

  SCF Algorithm Type is DF.
  DIIS enabled.
  MOM disabled.
  Fractional occupation disabled.
  Guess Type is SAD.
  Energy threshold   = 1.00e-06
  Density threshold  = 1.00e-06
  Integral threshold = 0.00e+00

  ==> Primary Basis <==

  Basis Set: LOW
    Blend: STO-3G
    Number of shells: 5
    Number of basis function: 7
    Number of Cartesian functions: 7
    Spherical Harmonics?: true
    Max angular momentum: 1

   => Loading Basis Set <=

    Name: (LOW AUX)
    Role: JKFIT
    Keyword: DF_BASIS_SCF
    atoms 1   entry O          line   323 file /home/psilocaluser/gits/hrw-patch/objdir-intel4/stage/usr/local/psi4/share/psi4/basis/def2-svp-jkfit.gbs 
    atoms 2-3 entry H          line    23 file /home/psilocaluser/gits/hrw-patch/objdir-intel4/stage/usr/local/psi4/share/psi4/basis/def2-svp-jkfit.gbs 

  ==> Pre-Iterations <==

   -------------------------------------------------------
    Irrep   Nso     Nmo     Nalpha   Nbeta   Ndocc  Nsocc
   -------------------------------------------------------
     A1         4       4       0       0       0       0
     A2         0       0       0       0       0       0
     B1         1       1       0       0       0       0
     B2         2       2       0       0       0       0
   -------------------------------------------------------
    Total       7       7       5       5       5       0
   -------------------------------------------------------

  ==> Integral Setup <==

  ==> MemDFJK: Density-Fitted J/K Matrices <==

    J tasked:                   Yes
    K tasked:                   Yes
    wK tasked:                   No
    OpenMP threads:               1
    Memory (MB):                375
    Algorithm:                 Core
    Schwarz Cutoff:           1E-12
    Mask sparsity (%):       0.0000
    Fitting Condition:        1E-12

   => Auxiliary Basis Set <=

  Basis Set: (LOW AUX)
    Blend: DEF2-SVP-JKFIT
    Number of shells: 37
    Number of basis function: 113
    Number of Cartesian functions: 133
    Spherical Harmonics?: true
    Max angular momentum: 4

  Minimum eigenvalue in the overlap matrix is 3.4405295835E-01.
  Using Symmetric Orthogonalization.

  SCF Guess: Superposition of Atomic Densities via on-the-fly atomic UHF.

  ==> Iterations <==

                           Total Energy        Delta E     RMS |[F,P]|

   @DF-RHF iter   0:   -74.69656286647262   -7.46966e+01   3.25230e-01 
   @DF-RHF iter   1:   -74.95409219689739   -2.57529e-01   2.55986e-02 
   @DF-RHF iter   2:   -74.96322019201507   -9.12800e-03   3.23810e-03 DIIS
   @DF-RHF iter   3:   -74.96338488076005   -1.64689e-04   9.02017e-04 DIIS
   @DF-RHF iter   4:   -74.96340520284295   -2.03221e-05   1.52612e-04 DIIS
   @DF-RHF iter   5:   -74.96340593892108   -7.36078e-07   1.40999e-05 DIIS
   @DF-RHF iter   6:   -74.96340594437012   -5.44904e-09   2.27051e-08 DIIS

  ==> Post-Iterations <==

    Orbital Energies [Eh]
    ---------------------

    Doubly Occupied:                                                      

       1A1   -20.242316     2A1    -1.267014     1B2    -0.616421  
       3A1    -0.452702     1B1    -0.391072  

    Virtual:                                                              

       4A1     0.602951     2B2     0.739065  

    Final Occupation by Irrep:
             A1    A2    B1    B2 
    DOCC [     3,    0,    1,    1 ]

  Energy converged.

  @DF-RHF Final Energy:   -74.96340594437012

   => Energetics <=

    Nuclear Repulsion Energy =              9.1681932603875733
    One-Electron Energy =                -122.3241466117604546
    Two-Electron Energy =                  38.1925474070027775
    Total Energy =                        -74.9634059443701091



Properties will be evaluated at   0.000000,   0.000000,   0.000000 [a0]

Properties computed using the SCF density matrix

  Nuclear Dipole Moment: [e a0]
     X:     0.0000      Y:     0.0000      Z:     0.9783

  Electronic Dipole Moment: [e a0]
     X:     0.0000      Y:     0.0000      Z:    -0.3008

  Dipole Moment: [e a0]
     X:     0.0000      Y:     0.0000      Z:     0.6775     Total:     0.6775

  Dipole Moment: [D]
     X:     0.0000      Y:     0.0000      Z:     1.7220     Total:     1.7220


*** tstop() called on psinet at Mon Jul  2 16:11:55 2018
Module time:
	user time   =       0.47 seconds =       0.01 minutes
	system time =       0.01 seconds =       0.00 minutes
	total time  =          1 seconds =       0.02 minutes
Total time:
	user time   =       0.47 seconds =       0.01 minutes
	system time =       0.01 seconds =       0.00 minutes
	total time  =          1 seconds =       0.02 minutes
	SCF energy........................................................PASSED

*** tstart() called on psinet
*** at Mon Jul  2 16:11:55 2018

   => Loading Basis Set <=

    Name: HIGH
    Role: ORBITAL
    Keyword: BASIS
    atoms 1   entry O          line   198 file /home/psilocaluser/gits/hrw-patch/objdir-intel4/stage/usr/local/psi4/share/psi4/basis/cc-pvdz.gbs 
    atoms 2-3 entry H          line    22 file /home/psilocaluser/gits/hrw-patch/objdir-intel4/stage/usr/local/psi4/share/psi4/basis/cc-pvdz.gbs 


         ---------------------------------------------------------
                                   SCF
            by Justin Turney, Rob Parrish, Andy Simmonett
                             and Daniel Smith
                              RHF Reference
                        1 Threads,    500 MiB Core
         ---------------------------------------------------------

  ==> Geometry <==

    Molecular point group: c2v
    Full point group: C2v

    Geometry (in Angstrom), charge = 0, multiplicity = 1:

       Center              X                  Y                   Z               Mass       
    ------------   -----------------  -----------------  -----------------  -----------------
         O            0.000000000000     0.000000000000    -0.065775570538    15.994914619560
         H            0.000000000000    -0.759061990794     0.521953018295     1.007825032070
         H            0.000000000000     0.759061990794     0.521953018295     1.007825032070

  Running in c2v symmetry.

  Rotational constants: A =     27.26297  B =     14.51533  C =      9.47217 [cm^-1]
  Rotational constants: A = 817323.20514  B = 435158.59817  C = 283968.37324 [MHz]
  Nuclear repulsion =    9.168193260387577

  Charge       = 0
  Multiplicity = 1
  Electrons    = 10
  Nalpha       = 5
  Nbeta        = 5

  ==> Algorithm <==

  SCF Algorithm Type is DF.
  DIIS enabled.
  MOM disabled.
  Fractional occupation disabled.
  Guess Type is READ.
  Energy threshold   = 1.00e-06
  Density threshold  = 1.00e-06
  Integral threshold = 0.00e+00

  ==> Primary Basis <==

  Basis Set: HIGH
    Blend: CC-PVDZ
    Number of shells: 12
    Number of basis function: 24
    Number of Cartesian functions: 25
    Spherical Harmonics?: true
    Max angular momentum: 2

   => Loading Basis Set <=

    Name: (HIGH AUX)
    Role: JKFIT
    Keyword: DF_BASIS_SCF
    atoms 1   entry O          line   221 file /home/psilocaluser/gits/hrw-patch/objdir-intel4/stage/usr/local/psi4/share/psi4/basis/cc-pvdz-jkfit.gbs 
    atoms 2-3 entry H          line    51 file /home/psilocaluser/gits/hrw-patch/objdir-intel4/stage/usr/local/psi4/share/psi4/basis/cc-pvdz-jkfit.gbs 

  Reading orbitals from file 180, projecting to new basis.

   => Loading Basis Set <=

    Name: LOW
    Role: ORBITAL
    Keyword: BASIS
    atoms 1   entry O          line    81 file /home/psilocaluser/gits/hrw-patch/objdir-intel4/stage/usr/local/psi4/share/psi4/basis/sto-3g.gbs 
    atoms 2-3 entry H          line    19 file /home/psilocaluser/gits/hrw-patch/objdir-intel4/stage/usr/local/psi4/share/psi4/basis/sto-3g.gbs 

  Computing basis projection from LOW to HIGH

  ==> Pre-Iterations <==

   -------------------------------------------------------
    Irrep   Nso     Nmo     Nalpha   Nbeta   Ndocc  Nsocc
   -------------------------------------------------------
     A1        11      11       0       0       0       0
     A2         2       2       0       0       0       0
     B1         4       4       0       0       0       0
     B2         7       7       0       0       0       0
   -------------------------------------------------------
    Total      24      24       5       5       5       0
   -------------------------------------------------------

  ==> Integral Setup <==

  ==> MemDFJK: Density-Fitted J/K Matrices <==

    J tasked:                   Yes
    K tasked:                   Yes
    wK tasked:                   No
    OpenMP threads:               1
    Memory (MB):                375
    Algorithm:                 Core
    Schwarz Cutoff:           1E-12
    Mask sparsity (%):       0.0000
    Fitting Condition:        1E-12

   => Auxiliary Basis Set <=

  Basis Set: (HIGH AUX)
    Blend: CC-PVDZ-JKFIT
    Number of shells: 42
    Number of basis function: 116
    Number of Cartesian functions: 131
    Spherical Harmonics?: true
    Max angular momentum: 3

  Minimum eigenvalue in the overlap matrix is 3.4377086883E-02.
  Using Symmetric Orthogonalization.

  SCF Guess: Orbitals guess was supplied from a previous computation.

  ==> Iterations <==

                           Total Energy        Delta E     RMS |[F,P]|

   @DF-RHF iter   0:   -75.85266160732031   -7.58527e+01   4.78419e-02 
   @DF-RHF iter   1:   -76.00502430153938   -1.52363e-01   1.46033e-02 
   @DF-RHF iter   2:   -76.02170626648575   -1.66820e-02   7.85167e-03 DIIS
   @DF-RHF iter   3:   -76.02607148159046   -4.36522e-03   1.64934e-03 DIIS
   @DF-RHF iter   4:   -76.02662513124608   -5.53650e-04   2.06749e-04 DIIS
   @DF-RHF iter   5:   -76.02663253188788   -7.40064e-06   3.34776e-05 DIIS
   @DF-RHF iter   6:   -76.02663271609987   -1.84212e-07   8.43953e-06 DIIS
   @DF-RHF iter   7:   -76.02663273436541   -1.82655e-08   1.39592e-06 DIIS
   @DF-RHF iter   8:   -76.02663273489732   -5.31912e-10   2.12653e-07 DIIS

  ==> Post-Iterations <==

    Orbital Energies [Eh]
    ---------------------

    Doubly Occupied:                                                      

       1A1   -20.550924     2A1    -1.335311     1B2    -0.697803  
       3A1    -0.566087     1B1    -0.492948  

    Virtual:                                                              

       4A1     0.185107     2B2     0.255846     3B2     0.787337  
       5A1     0.851826     6A1     1.163856     2B1     1.200424  
       4B2     1.253573     7A1     1.445291     1A2     1.476011  
       3B1     1.674661     8A1     1.868111     5B2     1.932579  
       6B2     2.446530     9A1     2.483817     4B1     3.283958  
       2A2     3.336669    10A1     3.507634    11A1     3.863421  
       7B2     4.144760  

    Final Occupation by Irrep:
             A1    A2    B1    B2 
    DOCC [     3,    0,    1,    1 ]

  Energy converged.

  @DF-RHF Final Energy:   -76.02663273489732

   => Energetics <=

    Nuclear Repulsion Energy =              9.1681932603875769
    One-Electron Energy =                -123.1035116444656126
    Two-Electron Energy =                  37.9086856491807112
    Total Energy =                        -76.0266327348973192



Properties will be evaluated at   0.000000,   0.000000,   0.000000 [a0]

Properties computed using the SCF density matrix

  Nuclear Dipole Moment: [e a0]
     X:     0.0000      Y:     0.0000      Z:     0.9783

  Electronic Dipole Moment: [e a0]
     X:     0.0000      Y:     0.0000      Z:    -0.1680

  Dipole Moment: [e a0]
     X:     0.0000      Y:     0.0000      Z:     0.8103     Total:     0.8103

  Dipole Moment: [D]
     X:     0.0000      Y:     0.0000      Z:     2.0595     Total:     2.0595


*** tstop() called on psinet at Mon Jul  2 16:11:55 2018
Module time:
	user time   =       0.30 seconds =       0.01 minutes
	system time =       0.01 seconds =       0.00 minutes
	total time  =          0 seconds =       0.00 minutes
Total time:
	user time   =       0.78 seconds =       0.01 minutes
	system time =       0.02 seconds =       0.00 minutes
	total time  =          1 seconds =       0.02 minutes
	SCF energy........................................................PASSED

    Psi4 stopped on: Monday, 02 July 2018 04:11PM
    Psi4 wall time for execution: 0:00:00.85

*** Psi4 exiting successfully. Buy a developer a beer!
