    -----------------------------------------------------------------------
          PSI4: An Open-Source Ab Initio Electronic Structure Package
                              PSI 4.0.0-beta1 Driver

               Git: Rev 1255cd7bcd3da168d8b113c0bee0184ae05ef58c

    J. M. Turney, A. C. Simmonett, R. M. Parrish, E. G. Hohenstein,
    F. A. Evangelista, J. T. Fermann, B. J. Mintz, L. A. Burns, J. J. Wilke,
    M. L. Abrams, N. J. Russ, M. L. Leininger, C. L. Janssen, E. T. Seidl,
    W. D. Allen, H. F. Schaefer, R. A. King, E. F. Valeev, C. D. Sherrill,
    and T. D. Crawford, WIREs Comput. Mol. Sci., (2011) (doi: 10.1002/wcms.93)

                         Additional Contributions by
    A. E. DePrince, M. Saitow, U. Bozkaya, A. Yu. Sokolov
    -----------------------------------------------------------------------


    Using LocalCommunicator (Number of processes = 1)

    Memory level set to 256.000 MB

  ==> Input File <==

--------------------------------------------------------------------------
#! cc-pvdz H2O Test CEPA(1) Energy
molecule h2o {
0 1
O
H 1 1.0 
H 1 1.0 2 104.5
}
set {
  e_convergence 1e-10
  d_convergence 1e-10
  r_convergence 1e-10
  basis cc-pvdz
  freeze_core true
}
energy('cepa(1)')

refnuc     = 8.80146552997       # TEST
refscf     = -76.02141844515494  # TEST
refcepa1   = -0.214363572651     # TEST

compare_values(refnuc, h2o.nuclear_repulsion_energy(), 9, "Nuclear repulsion energy")                  #TEST 
compare_values(refscf, get_variable("SCF TOTAL ENERGY"),     8, "SCF energy")                          #TEST
compare_values(refcepa1, get_variable("CEPA(1) CORRELATION ENERGY"), 8, "CEPA(1) correlation energy")  #TEST

clean()
--------------------------------------------------------------------------

*** tstart() called on lawn-128-61-119-236.lawn.gatech.edu
*** at Wed Apr 25 15:53:03 2012


         ---------------------------------------------------------
                                   SCF
            by Justin Turney, Rob Parrish, and Andy Simmonett
                              RHF Reference
                        1 Threads,    256 MiB Core
         ---------------------------------------------------------

  ==> Geometry <==

    Molecular point group: c2v

    Geometry (in Angstrom), charge = 0, multiplicity = 1:

       Center              X                  Y                   Z       
    ------------   -----------------  -----------------  -----------------
           O          0.000000000000     0.000000000000    -0.068516219310
           H          0.000000000000    -0.790689573744     0.543701060724
           H          0.000000000000     0.790689573744     0.543701060724

  Running in c2v symmetry.

  Nuclear repulsion =    8.801465529972068

  Charge       = 0
  Multiplicity = 1
  Electrons    = 10
  Nalpha       = 5
  Nbeta        = 5

  ==> Algorithm <==

  SCF Algorithm Type is PK.
  DIIS enabled.
  MOM disabled.
  Fractional occupation disabled.
  Guess Type is CORE.
  Energy threshold   = 1.00e-10
  Density threshold  = 1.00e-10
  Integral threshold = 0.00e+00

  ==> Primary Basis <==

  Basis Set: cc-pvdz
    Number of shells: 12
    Number of basis function: 24
    Number of Cartesian functions: 25
    Spherical Harmonics?: true
    Max angular momentum: 2

  ==> Pre-Iterations <==

  Minimum eigenvalue in the overlap matrix is 3.7382439507E-02.
  Using Symmetric Orthogonalization.
  SCF Guess: Core (One-Electron) Hamiltonian.

  Initial RHF energy:   -58.68914707059002

   -------------------------------------------------------
    Irrep   Nso     Nmo     Nalpha   Nbeta   Ndocc  Nsocc
   -------------------------------------------------------
     A1        11      11       3       3       3       0
     A2         2       2       0       0       0       0
     B1         4       4       1       1       1       0
     B2         7       7       1       1       1       0
   -------------------------------------------------------
    Total      24      24       5       5       5       0
   -------------------------------------------------------

  ==> Integral Setup <==

 MINTS: Wrapper to libmints.
   by Justin Turney

   Calculation information:
      Number of atoms:                   3
      Number of AO shells:              12
      Number of SO shells:               9
      Number of primitives:             32
      Number of atomic orbitals:        25
      Number of basis functions:        24

      Number of irreps:                  4
      Number of functions per irrep: [  11    2    4    7 ]

      Overlap, kinetic, potential, dipole, and quadrupole integrals
        stored in file 35.

      Computing two-electron integrals...done
      Computed 11412 non-zero two-electron integrals.
        Stored in file 33.

  ==> Iterations <==

                        Total Energy        Delta E     Density RMS

   @RHF iter   1:   -68.92345273387485   -1.02343e+01   0.00000e+00 
	Occupation by irrep:
	         A1    A2    B1    B2 
	DOCC [     3,    0,    0,    2 ]

   @RHF iter   2:   -69.87832927887152   -9.54877e-01   5.29715e-01 DIIS
	Occupation by irrep:
	         A1    A2    B1    B2 
	DOCC [     3,    0,    1,    1 ]

   @RHF iter   3:   -75.76505683712057   -5.88673e+00   4.96564e-01 DIIS
   @RHF iter   4:   -75.99909055478021   -2.34034e-01   1.67112e-02 DIIS
   @RHF iter   5:   -76.02109883592941   -2.20083e-02   7.82169e-03 DIIS
   @RHF iter   6:   -76.02136729063051   -2.68455e-04   1.37201e-03 DIIS
   @RHF iter   7:   -76.02141644684095   -4.91562e-05   4.89170e-04 DIIS
   @RHF iter   8:   -76.02141833859494   -1.89175e-06   1.11626e-04 DIIS
   @RHF iter   9:   -76.02141844395759   -1.05363e-07   1.80568e-05 DIIS
   @RHF iter  10:   -76.02141844507096   -1.11338e-09   2.94238e-06 DIIS
   @RHF iter  11:   -76.02141844515262   -8.16556e-11   6.18360e-07 DIIS
   @RHF iter  12:   -76.02141844515495   -2.33058e-12   8.35457e-08 DIIS
   @RHF iter  13:   -76.02141844515494    1.42109e-14   1.55147e-08 DIIS
   @RHF iter  14:   -76.02141844515495   -1.42109e-14   2.19537e-09 DIIS
   @RHF iter  15:   -76.02141844515494    1.42109e-14   1.66745e-10 DIIS

  ==> Post-Iterations <==

	Orbital Energies (a.u.)
	-----------------------

	Doubly Occupied:                                                      

	   1A1   -20.557846     2A1    -1.316181     1B2    -0.677073  
	   3A1    -0.558726     1B1    -0.490383  

	Virtual:                                                              

	   4A1     0.178011     2B2     0.249490     3B2     0.760274  
	   5A1     0.816118     6A1     1.166182     2B1     1.198611  
	   4B2     1.256467     7A1     1.452518     1A2     1.466082  
	   3B1     1.667951     8A1     1.877148     5B2     1.889827  
	   6B2     2.354901     9A1     2.388286     4B1     3.248786  
	   2A2     3.297834    10A1     3.453879    11A1     3.821364  
	   7B2     4.099041  

	Final Occupation by Irrep:
	         A1    A2    B1    B2 
	DOCC [     3,    0,    1,    1 ]

  Energy converged.

  @RHF Final Energy:   -76.02141844515494

   => Energetics <=

    Nuclear Repulsion Energy =          8.8014655299720683
    One-Electron Energy =            -122.4453516198961722
    Two-Electron Energy =              37.6224676447692019
    DFT Functional Energy =             0.0000000000000000
    Empirical Dispersion Energy =       0.0000000000000000
    Total Energy =                    -76.0214184451549073

  ==> Properties <==

  Nuclear Dipole Moment: (a.u.)
     X:     0.0000      Y:     0.0000      Z:     1.0191

  Electronic Dipole Moment: (a.u.)
     X:     0.0000      Y:     0.0000      Z:    -0.1947

  Dipole Moment: (a.u.)
     X:     0.0000      Y:     0.0000      Z:     0.8244     Total:     0.8244

  Dipole Moment: (Debye)
     X:     0.0000      Y:     0.0000      Z:     2.0955     Total:     2.0955


  Saving occupied orbitals to File 180.

*** tstop() called on lawn-128-61-119-236.lawn.gatech.edu at Wed Apr 25 15:53:03 2012
Module time:
	user time   =       0.07 seconds =       0.00 minutes
	system time =       0.01 seconds =       0.00 minutes
	total time  =          0 seconds =       0.00 minutes
Total time:
	user time   =       0.07 seconds =       0.00 minutes
	system time =       0.01 seconds =       0.00 minutes
	total time  =          0 seconds =       0.00 minutes

*** tstart() called on lawn-128-61-119-236.lawn.gatech.edu
*** at Wed Apr 25 15:53:03 2012


	**************************************************
	* TRANSQT2: Program to transform integrals from  *
	*           the SO basis to the MO basis.        *
	*                                                *
	*            Daniel, David, & Justin             *
	**************************************************


	Input parameters:
	-----------------
	Wave function   =	CCSD
	Backtransform   =	No
	Print Level     =	1
	Print TEIs      =	No
	Reference wfn   =	RHF
	Derivative      =	None
	Delete TEI File =	Yes
	Memory (Mbytes) =	256.0
	Cache Level     =	2
	Cache Type      =	LRU
	Chkpt Parameters:
	--------------------
	Number of irreps     = 4
	Number of SOs        = 24
	Number of MOs        = 24
	Number of active MOs = 23

	Label	# SOs	# FZDC	# DOCC	# SOCC	# VIRT	# FZVR
	-----	-----	------	------	------	------	------
	 A1	   11	    1	    2	    0	    8	    0
	 A2	   2	    0	    0	    0	    2	    0
	 B1	   4	    0	    1	    0	    3	    0
	 B2	   7	    0	    1	    0	    6	    0

	Nuclear Rep. energy (chkpt) =      8.80146552997207
	SCF energy          (chkpt) =    -76.02141844515494

	Presorting SO-basis two-electron integrals.
	Sorting File: SO Ints (pq,rs) nbuckets = 1
	Frozen-core energy =  -61.221839796388174
	Starting first half-transformation.
	Sorting half-transformed integrals.
	Starting second half-transformation.
	Two-electron integral transformation complete.

*** tstop() called on lawn-128-61-119-236.lawn.gatech.edu at Wed Apr 25 15:53:03 2012
Module time:
	user time   =       0.01 seconds =       0.00 minutes
	system time =       0.01 seconds =       0.00 minutes
	total time  =          0 seconds =       0.00 minutes
Total time:
	user time   =       0.08 seconds =       0.00 minutes
	system time =       0.02 seconds =       0.00 minutes
	total time  =          0 seconds =       0.00 minutes

*** tstart() called on lawn-128-61-119-236.lawn.gatech.edu
*** at Wed Apr 25 15:53:03 2012



        *******************************************************
        *                                                     *
        *                       CEPA(1)                       *
        *        Coupled Electron Pair Approximation          *
        *                                                     *
        *                   Eugene DePrince                   *
        *                                                     *
        *******************************************************



        Begin integral sort

        Integral sort will use                      0.83 mb

        Initial sort.....done.

        IJKL block.......done.
        IJAK block 1/2...done.
        IJAK block 2/2...done.
        KCLD block.......done.
        KLCD block.......done.
        ABCI block 1/2...done.
        ABCI block 1/2...done.
        ABCD block 1/2...done.
        ABCD block 2/2...done.

  Time for integral sort:             0.01 s (user)
                                      0.02 s (system)
                                         0 s (total)

  available memory =                           244.14 mb
  minimum memory requirements for CEPA(1) =         0.14 mb

  Define tiling:

        v(ab,cd) diagrams will be evaluated in   1 blocks.
        v(ab,ci) diagrams will be evaluated in   1 blocks over ov2.
        v(ab,ci) diagrams will be evaluated in   1 blocks over ov.

  Allocate cpu memory (     0.42 mb).....done.
  Initialize cpu memory..................done.

  Begin CEPA(1) iterations

   Iter  DIIS          Energy       d(Energy)          |d(T)|     time
      0   0 1   -0.2046924070   -0.2046924070    0.1986952515        0
      1   1 1   -0.2084429798   -0.0037505728    0.0290316331        1
      2   2 1   -0.2135546693   -0.0051116895    0.0116183055        0
      3   3 1   -0.2143275224   -0.0007728531    0.0036335806        0
      4   4 1   -0.2143475811   -0.0000200587    0.0009328316        0
      5   5 1   -0.2143686391   -0.0000210580    0.0003359194        0
      6   6 1   -0.2143647268    0.0000039122    0.0001311643        0
      7   7 1   -0.2143638562    0.0000008706    0.0000362716        0
      8   8 1   -0.2143636475    0.0000002087    0.0000071195        0
      9   8 2   -0.2143635443    0.0000001032    0.0000019743        0
     10   8 3   -0.2143635816   -0.0000000374    0.0000004578        0
     11   8 4   -0.2143635741    0.0000000075    0.0000000990        0
     12   8 5   -0.2143635736    0.0000000005    0.0000000203        0
     13   8 6   -0.2143635727    0.0000000009    0.0000000046        1
     14   8 7   -0.2143635727    0.0000000000    0.0000000010        0
     15   8 8   -0.2143635726    0.0000000000    0.0000000003        0
     16   8 1   -0.2143635727   -0.0000000000    0.0000000001        0

  CEPA(1) iterations converged!

        OS SCS-MP2 correlation energy:          -0.184186592062
        SS SCS-MP2 correlation energy:          -0.017067860093
        SCS-MP2 correlation energy:             -0.201254452155
      * SCS-MP2 total energy:                  -76.222672897310

        OS MP2 correlation energy:              -0.153488826718
        SS MP2 correlation energy:              -0.051203580280
        MP2 correlation energy:                 -0.204692406998
      * MP2 total energy:                      -76.226110852153

        OS CEPA(1) correlation energy:          -0.169607139318
        SS CEPA(1) correlation energy:          -0.044756433333
        CEPA(1) correlation energy:             -0.214363572651
      * CEPA(1) total energy:                  -76.235782017806

  Total time for CEPA(1) iterations:       0.14 s (user)
                                        0.16 s (system)
                                           2 s (total)

  Time per iteration:                   0.01 s (user)
                                        0.01 s (system)
                                        0.12 s (total)

*** tstop() called on lawn-128-61-119-236.lawn.gatech.edu at Wed Apr 25 15:53:05 2012
Module time:
	user time   =       0.15 seconds =       0.00 minutes
	system time =       0.19 seconds =       0.00 minutes
	total time  =          2 seconds =       0.03 minutes
Total time:
	user time   =       0.23 seconds =       0.00 minutes
	system time =       0.21 seconds =       0.00 minutes
	total time  =          2 seconds =       0.03 minutes

*** PSI4 exiting successfully. Buy a developer a beer!
