
    -----------------------------------------------------------------------
          Psi4: An Open-Source Ab Initio Electronic Structure Package
                               Psi4 1.5a1.dev260 

                         Git: Rev {linK-new} a89bdf4 dirty


    D. G. A. Smith, L. A. Burns, A. C. Simmonett, R. M. Parrish,
    M. C. Schieber, R. Galvelis, P. Kraus, H. Kruse, R. Di Remigio,
    A. Alenaizan, A. M. James, S. Lehtola, J. P. Misiewicz, M. Scheurer,
    R. A. Shaw, J. B. Schriber, Y. Xie, Z. L. Glick, D. A. Sirianni,
    J. S. O'Brien, J. M. Waldrop, A. Kumar, E. G. Hohenstein,
    B. P. Pritchard, B. R. Brooks, H. F. Schaefer III, A. Yu. Sokolov,
    K. Patkowski, A. E. DePrince III, U. Bozkaya, R. A. King,
    F. A. Evangelista, J. M. Turney, T. D. Crawford, C. D. Sherrill,
    J. Chem. Phys. 152(18) 184108 (2020). https://doi.org/10.1063/5.0006002

                            Additional Code Authors
    E. T. Seidl, C. L. Janssen, E. F. Valeev, M. L. Leininger,
    J. F. Gonthier, R. M. Richard, H. R. McAlexander, M. Saitow, X. Wang,
    P. Verma, and M. H. Lechner

             Previous Authors, Complete List of Code Contributors,
                       and Citations for Specific Modules
    https://github.com/psi4/psi4/blob/master/codemeta.json
    https://github.com/psi4/psi4/graphs/contributors
    http://psicode.org/psi4manual/master/introduction.html#citing-psifour

    -----------------------------------------------------------------------


    Psi4 started on: Thursday, 16 December 2021 09:13AM

    Process ID: 970
    Host:       ds10
    PSIDATADIR: /scratch/jiang/p4dev/psi4/objdir-livie/stage/share/psi4
    Memory:     500.0 MiB
    Threads:    6
    
  ==> Input File <==

--------------------------------------------------------------------------
#! UHF and ROHF Linear Exchange Algorithm test for benzyl cation

uhf_ref = -230.41721644022974 # REF, with UHF (CSAM Screening)
rohf_ref = -230.40279222744851 # REF, with ROHF (CSAM Screening)

molecule mol {
    1 2
    C    -1.0478252   -1.4216736    0.0000000
    C    -1.4545034   -0.8554459    1.2062048
    C    -1.4545034   -0.8554459   -1.2062048
    C    -2.2667970    0.2771610    1.2069539
    C    -2.6714781    0.8450211    0.0000000
    C    -2.2667970    0.2771610   -1.2069539
    H    -1.1338534   -1.2920593   -2.1423150
    H    -2.5824943    0.7163066   -2.1437977
    H    -3.3030422    1.7232700    0.0000000
    H    -2.5824943    0.7163066    2.1437977
    H    -1.1338534   -1.2920593    2.1423150
    H    -0.4060253   -2.2919049    0.0000000
    symmetry c1
    no_reorient
    no_com
}

set {
    reference uhf
    scf_type direct
    df_scf_guess false
    basis 6-31G*
    ints_tolerance 1.0e-12
    e_convergence 1.0e-10
    screening density
    incfock true
    incfock_full_fock_every 4
    do_linK true
    linK_ints_tolerance 1.0e-12
}

uhf_energy = energy('scf')
psi4.compare_values(uhf_energy, uhf_ref, 6, "UHF Energy (using LinK algo)")

set reference rohf
rohf_energy = energy('scf')
psi4.compare_values(rohf_energy, rohf_ref, 6, "ROHF Energy (using LinK algo)")
--------------------------------------------------------------------------

Scratch directory: /scratch/jiang/

*** tstart() called on ds10
*** at Thu Dec 16 09:13:11 2021

   => Loading Basis Set <=

    Name: 6-31G*
    Role: ORBITAL
    Keyword: BASIS
    atoms 1-6  entry C          line   111 file /scratch/jiang/p4dev/psi4/objdir-livie/stage/share/psi4/basis/6-31gs.gbs 
    atoms 7-12 entry H          line    44 file /scratch/jiang/p4dev/psi4/objdir-livie/stage/share/psi4/basis/6-31gs.gbs 


         ---------------------------------------------------------
                                   SCF
               by Justin Turney, Rob Parrish, Andy Simmonett
                          and Daniel G. A. Smith
                              UHF Reference
                        6 Threads,    500 MiB Core
         ---------------------------------------------------------

  ==> Geometry <==

    Molecular point group: c1
    Full point group: Cs

    Geometry (in Angstrom), charge = 1, multiplicity = 2:

       Center              X                  Y                   Z               Mass       
    ------------   -----------------  -----------------  -----------------  -----------------
         C           -1.047825200000    -1.421673600000     0.000000000000    12.000000000000
         C           -1.454503400000    -0.855445900000     1.206204800000    12.000000000000
         C           -1.454503400000    -0.855445900000    -1.206204800000    12.000000000000
         C           -2.266797000000     0.277161000000     1.206953900000    12.000000000000
         C           -2.671478100000     0.845021100000     0.000000000000    12.000000000000
         C           -2.266797000000     0.277161000000    -1.206953900000    12.000000000000
         H           -1.133853400000    -1.292059300000    -2.142315000000     1.007825032230
         H           -2.582494300000     0.716306600000    -2.143797700000     1.007825032230
         H           -3.303042200000     1.723270000000     0.000000000000     1.007825032230
         H           -2.582494300000     0.716306600000     2.143797700000     1.007825032230
         H           -1.133853400000    -1.292059300000     2.142315000000     1.007825032230
         H           -0.406025300000    -2.291904900000     0.000000000000     1.007825032230

  Running in c1 symmetry.

  Rotational constants: A =      0.10996  B =      0.04618  C =      0.04339 [cm^-1]
  Rotational constants: A =   3296.45833  B =   1384.51424  C =   1300.84014 [MHz]
  Nuclear repulsion =  203.710931360278892

  Charge       = 1
  Multiplicity = 2
  Electrons    = 41
  Nalpha       = 21
  Nbeta        = 20

  ==> Algorithm <==

  SCF Algorithm Type is DIRECT.
  DIIS enabled.
  MOM disabled.
  Fractional occupation disabled.
  Guess Type is SAD.
  Energy threshold   = 1.00e-10
  Density threshold  = 1.00e-06
  Integral threshold = 1.00e-12

  ==> Primary Basis <==

  Basis Set: 6-31G*
    Blend: 6-31G*
    Number of shells: 48
    Number of basis functions: 102
    Number of Cartesian functions: 102
    Spherical Harmonics?: false
    Max angular momentum: 2

  ==> Integral Setup <==

  ==> DirectJK: Integral-Direct J/K Matrices <==

    J tasked:                  Yes
    K tasked:                  Yes
    wK tasked:                  No
    Integrals threads:           6
    Screening Type:        DENSITY
    Screening Cutoff:        1E-12
    Incremental Fock:          Yes
    LinK:                      Yes

  Minimum eigenvalue in the overlap matrix is 5.0916634930E-04.
  Reciprocal condition number of the overlap matrix is 6.6215194190E-05.
    Using symmetric orthogonalization.

  ==> Pre-Iterations <==

  SCF Guess: Superposition of Atomic Densities via on-the-fly atomic UHF (no occupation information).

   -------------------------
    Irrep   Nso     Nmo    
   -------------------------
     A        102     102 
   -------------------------
    Total     102     102
   -------------------------

  ==> Iterations <==

                        Total Energy        Delta E     RMS |[F,P]|

   @UHF iter SAD:  -229.97627956888942   -2.29976e+02   0.00000e+00 
   @UHF iter   1:  -230.34044463713929   -3.64165e-01   2.84843e-03 DIIS/LINK
   @UHF iter   2:  -230.40548259173605   -6.50380e-02   9.10341e-04 DIIS/INCFOCK/LINK
   @UHF iter   3:  -230.41337369785936   -7.89111e-03   4.49308e-04 DIIS/INCFOCK/LINK
   @UHF iter   4:  -230.41564619966138   -2.27250e-03   1.91616e-04 DIIS/INCFOCK/LINK
   @UHF iter   5:  -230.41680621752224   -1.16002e-03   1.04559e-04 DIIS/LINK
   @UHF iter   6:  -230.41718663873274   -3.80421e-04   3.43961e-05 DIIS/INCFOCK/LINK
   @UHF iter   7:  -230.41721448985055   -2.78511e-05   8.95767e-06 DIIS/INCFOCK/LINK
   @UHF iter   8:  -230.41721586241678   -1.37257e-06   3.00471e-06 DIIS/INCFOCK/LINK
   @UHF iter   9:  -230.41721603796827   -1.75551e-07   7.67274e-07 DIIS/LINK
   @UHF iter  10:  -230.41721604928483   -1.13166e-08   3.43790e-07 DIIS/LINK
   @UHF iter  11:  -230.41721605274418   -3.45935e-09   2.28669e-07 DIIS/LINK
   @UHF iter  12:  -230.41721605450249   -1.75831e-09   1.92277e-07 DIIS/LINK
   @UHF iter  13:  -230.41721605668886   -2.18637e-09   1.58340e-07 DIIS/LINK
   @UHF iter  14:  -230.41721606058294   -3.89409e-09   7.01993e-08 DIIS/LINK
   @UHF iter  15:  -230.41721606129886   -7.15914e-10   1.83877e-08 DIIS/LINK
   @UHF iter  16:  -230.41721606131375   -1.48930e-11   6.55488e-09 DIIS/LINK
  Energy and wave function converged.


  ==> Post-Iterations <==

   @Spin Contamination Metric:   1.219275465E-01
   @S^2 Expected:                7.500000000E-01
   @S^2 Observed:                8.719275465E-01
   @S   Expected:                5.000000000E-01
   @S   Observed:                5.000000000E-01

    Orbital Energies [Eh]
    ---------------------

    Alpha Occupied:                                                       

       1A    -11.495305     2A    -11.495291     3A    -11.494078  
       4A    -11.494045     5A    -11.442162     6A    -11.441956  
       7A     -1.401110     8A     -1.280953     9A     -1.236594  
      10A     -1.061728    11A     -1.054985    12A     -0.936797  
      13A     -0.864865    14A     -0.857338    15A     -0.829019  
      16A     -0.800193    17A     -0.754837    18A     -0.721359  
      19A     -0.718865    20A     -0.623430    21A     -0.545548  

    Alpha Virtual:                                                        

      22A     -0.126042    23A     -0.063897    24A      0.042799  
      25A      0.098946    26A      0.113688    27A      0.130299  
      28A      0.135662    29A      0.151021    30A      0.159910  
      31A      0.255044    32A      0.258588    33A      0.275866  
      34A      0.280571    35A      0.442065    36A      0.497353  
      37A      0.513966    38A      0.548619    39A      0.565379  
      40A      0.568889    41A      0.578758    42A      0.605166  
      43A      0.615846    44A      0.616396    45A      0.619368  
      46A      0.623270    47A      0.666027    48A      0.706238  
      49A      0.774274    50A      0.889200    51A      0.897614  
      52A      0.898344    53A      0.906623    54A      0.921988  
      55A      0.965301    56A      0.966886    57A      0.991260  
      58A      1.023043    59A      1.071302    60A      1.091032  
      61A      1.153720    62A      1.166940    63A      1.242022  
      64A      1.262251    65A      1.406922    66A      1.474539  
      67A      1.477719    68A      1.505778    69A      1.524028  
      70A      1.525068    71A      1.563469    72A      1.796734  
      73A      1.852112    74A      1.938717    75A      1.943095  
      76A      2.058696    77A      2.085226    78A      2.149821  
      79A      2.155240    80A      2.206060    81A      2.211482  
      82A      2.230374    83A      2.244963    84A      2.369328  
      85A      2.401998    86A      2.403913    87A      2.625835  
      88A      2.652001    89A      2.754622    90A      2.829446  
      91A      2.834918    92A      2.845615    93A      2.849834  
      94A      2.854182    95A      3.156276    96A      3.560700  
      97A      4.268433    98A      4.283488    99A      4.316108  
     100A      4.500653   101A      4.529741   102A      4.858298  

    Beta Occupied:                                                        

       1A    -11.486776     2A    -11.486754     3A    -11.485742  
       4A    -11.485707     5A    -11.449303     6A    -11.449029  
       7A     -1.375638     8A     -1.240951     9A     -1.227679  
      10A     -1.049481    11A     -1.040402    12A     -0.932663  
      13A     -0.858733    14A     -0.850872    15A     -0.819312  
      16A     -0.802208    17A     -0.719893    18A     -0.714828  
      19A     -0.668245    20A     -0.567785  

    Beta Virtual:                                                         

      21A     -0.243132    22A     -0.042620    23A     -0.017261  
      24A      0.045972    25A      0.103744    26A      0.113907  
      27A      0.146328    28A      0.149962    29A      0.162653  
      30A      0.167894    31A      0.259713    32A      0.264404  
      33A      0.280739    34A      0.283655    35A      0.445200  
      36A      0.501615    37A      0.542697    38A      0.566190  
      39A      0.568279    40A      0.578069    41A      0.615615  
      42A      0.621779    43A      0.622249    44A      0.631181  
      45A      0.631489    46A      0.632667    47A      0.700192  
      48A      0.711440    49A      0.789124    50A      0.895796  
      51A      0.902997    52A      0.905259    53A      0.907056  
      54A      0.920324    55A      0.967251    56A      0.973280  
      57A      0.992385    58A      1.025530    59A      1.082365  
      60A      1.091272    61A      1.163034    62A      1.166776  
      63A      1.245477    64A      1.289196    65A      1.430031  
      66A      1.477735    67A      1.483794    68A      1.533743  
      69A      1.536137    70A      1.561947    71A      1.565986  
      72A      1.818410    73A      1.855408    74A      1.940882  
      75A      1.946909    76A      2.073220    77A      2.083819  
      78A      2.153803    79A      2.163165    80A      2.229438  
      81A      2.235283    82A      2.237786    83A      2.242390  
      84A      2.397805    85A      2.406366    86A      2.412183  
      87A      2.645259    88A      2.650641    89A      2.766596  
      90A      2.835197    91A      2.840922    92A      2.844989  
      93A      2.853680    94A      2.858867    95A      3.158497  
      96A      3.563256    97A      4.275204    98A      4.295470  
      99A      4.315035   100A      4.511802   101A      4.527363  
     102A      4.862455  

    Final Occupation by Irrep:
              A 
    DOCC [    20 ]
    SOCC [     1 ]

  @UHF Final Energy:  -230.41721606131375

   => Energetics <=

    Nuclear Repulsion Energy =            203.7109313602788916
    One-Electron Energy =                -703.9938362897897832
    Two-Electron Energy =                 269.8656888681971395
    Total Energy =                       -230.4172160613137521

  UHF NO Occupations:
  HONO-2 :   19  A 1.9835728
  HONO-1 :   20  A 1.9574809
  HONO-0 :   21  A 1.0000000
  LUNO+0 :   22  A 0.0425191
  LUNO+1 :   23  A 0.0164272
  LUNO+2 :   24  A 0.0005170
  LUNO+3 :   25  A 0.0005078


Computation Completed


Properties will be evaluated at   0.000000,   0.000000,   0.000000 [a0]

Properties computed using the SCF density matrix

  Nuclear Dipole Moment: [e a0]
     X:  -147.6125      Y:   -22.9025      Z:     0.0000

  Electronic Dipole Moment: [e a0]
     X:   144.1022      Y:    22.3599      Z:    -0.0000

  Dipole Moment: [e a0]
     X:    -3.5103      Y:    -0.5426      Z:    -0.0000     Total:     3.5520

  Dipole Moment: [D]
     X:    -8.9224      Y:    -1.3792      Z:    -0.0000     Total:     9.0283


*** tstop() called on ds10 at Thu Dec 16 09:13:23 2021
Module time:
	user time   =      67.38 seconds =       1.12 minutes
	system time =       0.12 seconds =       0.00 minutes
	total time  =         12 seconds =       0.20 minutes
Total time:
	user time   =      67.38 seconds =       1.12 minutes
	system time =       0.12 seconds =       0.00 minutes
	total time  =         12 seconds =       0.20 minutes
    UHF Energy (using LinK algo)..........................................................PASSED

Scratch directory: /scratch/jiang/

*** tstart() called on ds10
*** at Thu Dec 16 09:13:23 2021

   => Loading Basis Set <=

    Name: 6-31G*
    Role: ORBITAL
    Keyword: BASIS
    atoms 1-6  entry C          line   111 file /scratch/jiang/p4dev/psi4/objdir-livie/stage/share/psi4/basis/6-31gs.gbs 
    atoms 7-12 entry H          line    44 file /scratch/jiang/p4dev/psi4/objdir-livie/stage/share/psi4/basis/6-31gs.gbs 


         ---------------------------------------------------------
                                   SCF
               by Justin Turney, Rob Parrish, Andy Simmonett
                          and Daniel G. A. Smith
                             ROHF Reference
                        6 Threads,    500 MiB Core
         ---------------------------------------------------------

  ==> Geometry <==

    Molecular point group: c1
    Full point group: Cs

    Geometry (in Angstrom), charge = 1, multiplicity = 2:

       Center              X                  Y                   Z               Mass       
    ------------   -----------------  -----------------  -----------------  -----------------
         C           -1.047825200000    -1.421673600000     0.000000000000    12.000000000000
         C           -1.454503400000    -0.855445900000     1.206204800000    12.000000000000
         C           -1.454503400000    -0.855445900000    -1.206204800000    12.000000000000
         C           -2.266797000000     0.277161000000     1.206953900000    12.000000000000
         C           -2.671478100000     0.845021100000     0.000000000000    12.000000000000
         C           -2.266797000000     0.277161000000    -1.206953900000    12.000000000000
         H           -1.133853400000    -1.292059300000    -2.142315000000     1.007825032230
         H           -2.582494300000     0.716306600000    -2.143797700000     1.007825032230
         H           -3.303042200000     1.723270000000     0.000000000000     1.007825032230
         H           -2.582494300000     0.716306600000     2.143797700000     1.007825032230
         H           -1.133853400000    -1.292059300000     2.142315000000     1.007825032230
         H           -0.406025300000    -2.291904900000     0.000000000000     1.007825032230

  Running in c1 symmetry.

  Rotational constants: A =      0.10996  B =      0.04618  C =      0.04339 [cm^-1]
  Rotational constants: A =   3296.45833  B =   1384.51424  C =   1300.84014 [MHz]
  Nuclear repulsion =  203.710931360278892

  Charge       = 1
  Multiplicity = 2
  Electrons    = 41
  Nalpha       = 21
  Nbeta        = 20

  ==> Algorithm <==

  SCF Algorithm Type is DIRECT.
  DIIS enabled.
  MOM disabled.
  Fractional occupation disabled.
  Guess Type is SAD.
  Energy threshold   = 1.00e-10
  Density threshold  = 1.00e-06
  Integral threshold = 1.00e-12

  ==> Primary Basis <==

  Basis Set: 6-31G*
    Blend: 6-31G*
    Number of shells: 48
    Number of basis functions: 102
    Number of Cartesian functions: 102
    Spherical Harmonics?: false
    Max angular momentum: 2

  ==> Integral Setup <==

  ==> DirectJK: Integral-Direct J/K Matrices <==

    J tasked:                  Yes
    K tasked:                  Yes
    wK tasked:                  No
    Integrals threads:           6
    Screening Type:        DENSITY
    Screening Cutoff:        1E-12
    Incremental Fock:          Yes
    LinK:                      Yes

  Minimum eigenvalue in the overlap matrix is 5.0916634930E-04.
  Reciprocal condition number of the overlap matrix is 6.6215194190E-05.
    Using symmetric orthogonalization.

  ==> Pre-Iterations <==

  SCF Guess: Superposition of Atomic Densities via on-the-fly atomic UHF (no occupation information).

   -------------------------
    Irrep   Nso     Nmo    
   -------------------------
     A        102     102 
   -------------------------
    Total     102     102
   -------------------------

  ==> Iterations <==

                        Total Energy        Delta E     RMS |[F,P]|

   @ROHF iter SAD:  -229.97627956888931   -2.29976e+02   0.00000e+00 
   @ROHF iter   1:  -230.34044463713906   -3.64165e-01   1.97112e-03 DIIS/LINK
   @ROHF iter   2:  -230.39747013661724   -5.70255e-02   5.92165e-04 DIIS/INCFOCK/LINK
   @ROHF iter   3:  -230.40205004336030   -4.57991e-03   2.54098e-04 DIIS/INCFOCK/LINK
   @ROHF iter   4:  -230.40277305275902   -7.23009e-04   2.60323e-05 DIIS/INCFOCK/LINK
   @ROHF iter   5:  -230.40278994029711   -1.68875e-05   1.09884e-05 DIIS/LINK
   @ROHF iter   6:  -230.40279184738483   -1.90709e-06   2.55942e-06 DIIS/INCFOCK/LINK
   @ROHF iter   7:  -230.40279204057094   -1.93186e-07   5.60026e-07 DIIS/INCFOCK/LINK
   @ROHF iter   8:  -230.40279206771942   -2.71485e-08   7.36664e-08 DIIS/LINK
   @ROHF iter   9:  -230.40279206786613   -1.46713e-10   2.77492e-08 DIIS/LINK
   @ROHF iter  10:  -230.40279206788750   -2.13731e-11   1.30484e-08 DIIS/LINK
  Energy and wave function converged.


  ==> Post-Iterations <==

    Orbital Energies [Eh]
    ---------------------

    Doubly Occupied:                                                      

       1A    -11.493078     2A    -11.493072     3A    -11.491947  
       4A    -11.491914     5A    -11.448972     6A    -11.448720  
       7A     -1.388454     8A     -1.254758     9A     -1.239479  
      10A     -1.053702    11A     -1.051761    12A     -0.935625  
      13A     -0.862762    14A     -0.855305    15A     -0.824851  
      16A     -0.802488    17A     -0.721535    18A     -0.718149  
      19A     -0.703155    20A     -0.553195  

    Singly Occupied:                                                      

      21A     -0.432136  

    Virtual:                                                              

      22A     -0.070931    23A     -0.061052    24A      0.044047  
      25A      0.100995    26A      0.113258    27A      0.140708  
      28A      0.146863    29A      0.149791    30A      0.160748  
      31A      0.258599    32A      0.259228    33A      0.277725  
      34A      0.281310    35A      0.443064    36A      0.499347  
      37A      0.529394    38A      0.557440    39A      0.566073  
      40A      0.573208    41A      0.603433    42A      0.616954  
      43A      0.618132    44A      0.619309    45A      0.621441  
      46A      0.622519    47A      0.687945    48A      0.700366  
      49A      0.779039    50A      0.891776    51A      0.899832  
      52A      0.900784    53A      0.905798    54A      0.920040  
      55A      0.965135    56A      0.969058    57A      0.990876  
      58A      1.023143    59A      1.076450    60A      1.090440  
      61A      1.158082    62A      1.166364    63A      1.243182  
      64A      1.275057    65A      1.418527    66A      1.475989  
      67A      1.480347    68A      1.519583    69A      1.528548  
      70A      1.544586    71A      1.561840    72A      1.806803  
      73A      1.852878    74A      1.939014    75A      1.944776  
      76A      2.065602    77A      2.083447    78A      2.150880  
      79A      2.158330    80A      2.217212    81A      2.223687  
      82A      2.231764    83A      2.242751    84A      2.383087  
      85A      2.403928    86A      2.406111    87A      2.634818  
      88A      2.650123    89A      2.759577    90A      2.831372  
      91A      2.837090    92A      2.844027    93A      2.852638  
      94A      2.853377    95A      3.156198    96A      3.560912  
      97A      4.270667    98A      4.288479    99A      4.314055  
     100A      4.505253   101A      4.526798   102A      4.859016  

    Final Occupation by Irrep:
              A 
    DOCC [    20 ]
    SOCC [     1 ]

  @ROHF Final Energy:  -230.40279206788750

   => Energetics <=

    Nuclear Repulsion Energy =            203.7109313602788916
    One-Electron Energy =                -703.9661818191334532
    Two-Electron Energy =                 269.8524583909670582
    Total Energy =                       -230.4027920678875034

Computation Completed


Properties will be evaluated at   0.000000,   0.000000,   0.000000 [a0]

Properties computed using the SCF density matrix

  Nuclear Dipole Moment: [e a0]
     X:  -147.6125      Y:   -22.9025      Z:     0.0000

  Electronic Dipole Moment: [e a0]
     X:   144.1020      Y:    22.3602      Z:    -0.0000

  Dipole Moment: [e a0]
     X:    -3.5105      Y:    -0.5423      Z:    -0.0000     Total:     3.5521

  Dipole Moment: [D]
     X:    -8.9228      Y:    -1.3783      Z:    -0.0000     Total:     9.0286


*** tstop() called on ds10 at Thu Dec 16 09:13:30 2021
Module time:
	user time   =      41.90 seconds =       0.70 minutes
	system time =       0.06 seconds =       0.00 minutes
	total time  =          7 seconds =       0.12 minutes
Total time:
	user time   =     109.34 seconds =       1.82 minutes
	system time =       0.18 seconds =       0.00 minutes
	total time  =         19 seconds =       0.32 minutes
    ROHF Energy (using LinK algo).........................................................PASSED

    Psi4 stopped on: Thursday, 16 December 2021 09:13AM
    Psi4 wall time for execution: 0:00:18.62

*** Psi4 exiting successfully. Buy a developer a beer!
