    -----------------------------------------------------------------------
          Psi4: An Open-Source Ab Initio Electronic Structure Package
                              Psi4 0.4.190 Driver

                          Git: Rev {test_ref_refresh} 9b1b239 dirty

    J. M. Turney, A. C. Simmonett, R. M. Parrish, E. G. Hohenstein,
    F. A. Evangelista, J. T. Fermann, B. J. Mintz, L. A. Burns, J. J. Wilke,
    M. L. Abrams, N. J. Russ, M. L. Leininger, C. L. Janssen, E. T. Seidl,
    W. D. Allen, H. F. Schaefer, R. A. King, E. F. Valeev, C. D. Sherrill,
    and T. D. Crawford, WIREs Comput. Mol. Sci. 2, 556-565 (2012)
    (doi: 10.1002/wcms.93)

                         Additional Contributions by
    A. E. DePrince, U. Bozkaya, A. Yu. Sokolov, D. G. A. Smith, R. Di Remigio,
    R. M. Richard, J. F. Gonthier, H. R. McAlexander, M. Saitow, and
    B. P. Pritchard
    -----------------------------------------------------------------------


    Psi4 started on: Mon Apr  4 10:22:59 2016

    Process ID:   4666
    PSI4DATADIR: /home/dsmith/Gits/dgas_psi/share
    Memory level set to 256.000 MB

  ==> Input File <==

--------------------------------------------------------------------------
#! ROHF-CCSD(T) cc-pVDZ energy for the $^2\Sigma^+$ state of the CN radical, 
#! with Z-matrix input.

memory 250 mb

molecule CN {
  0 2
  C
  N 1 R

  R = 1.175
}

set {
  reference   rohf
  basis       cc-pVDZ
  docc        [4, 0, 1, 1]
  socc        [1, 0, 0, 0]
  ao_basis disk
  delete_tei false

  r_convergence 10
  e_convergence 10
  d_convergence 10
}

energy('ccsd(t)')

enuc   =  18.91527043470638   #TEST
escf   = -92.19555660616878   #TEST
eccsd  =  -0.28492292236582   #TEST
e_t    =  -0.01406303578471   #TEST
etotal = -92.49454256431926   #TEST

compare_values(enuc, CN.nuclear_repulsion_energy(), 9, "Nuclear repulsion energy") #TEST
compare_values(escf, get_variable("SCF total energy"), 9, "SCF energy")               #TEST
compare_values(eccsd, get_variable("CCSD correlation energy"), 9, "CCSD contribution")        #TEST
compare_values(e_t, get_variable("(T) correction energy"), 9, "(T) contribution")         #TEST
compare_values(etotal, get_variable("Current energy"), 9, "Total energy")             #TEST
--------------------------------------------------------------------------

  Memory set to 250.000 MiB by Python script.

*** tstart() called on ds1.sherrill.chemistry.gatech.edu
*** at Mon Apr  4 10:22:59 2016


         ---------------------------------------------------------
                                   SCF
            by Justin Turney, Rob Parrish, and Andy Simmonett
                             ROHF Reference
                        1 Threads,    250 MiB Core
         ---------------------------------------------------------

  ==> Geometry <==

    Molecular point group: c2v
    Full point group: C_inf_v

    Geometry (in Angstrom), charge = 0, multiplicity = 2:

       Center              X                  Y                   Z               Mass       
    ------------   -----------------  -----------------  -----------------  -----------------
           C          0.000000000000     0.000000000000    -0.632756417668    12.000000000000
           N          0.000000000000     0.000000000000     0.542243582332    14.003074004780

  Running in c2v symmetry.

  Rotational constants: A = ************  B =      1.88947  C =      1.88947 [cm^-1]
  Rotational constants: A = ************  B =  56644.99264  C =  56644.99264 [MHz]
  Nuclear repulsion =   18.915270434706397

  Charge       = 0
  Multiplicity = 2
  Electrons    = 13
  Nalpha       = 7
  Nbeta        = 6

  ==> Algorithm <==

  SCF Algorithm Type is PK.
  DIIS enabled.
  MOM disabled.
  Fractional occupation disabled.
  Guess Type is CORE.
  Energy threshold   = 1.00e-10
  Density threshold  = 1.00e-10
  Integral threshold = 0.00e+00

  ==> Primary Basis <==

  Basis Set: CC-PVDZ
    Number of shells: 12
    Number of basis function: 28
    Number of Cartesian functions: 30
    Spherical Harmonics?: true
    Max angular momentum: 2

  ==> Pre-Iterations <==

   -------------------------------------------------------
    Irrep   Nso     Nmo     Nalpha   Nbeta   Ndocc  Nsocc
   -------------------------------------------------------
     A1        14      14       5       4       4       1
     A2         2       2       0       0       0       0
     B1         6       6       1       1       1       0
     B2         6       6       1       1       1       0
   -------------------------------------------------------
    Total      28      28       7       6       6       1
   -------------------------------------------------------

  ==> Integral Setup <==

	Batch   1 pq = [       0,     150] index = [             0,11325]
  ==> DiskJK: Disk-Based J/K Matrices <==

    J tasked:                  Yes
    K tasked:                  Yes
    wK tasked:                  No
    Memory (MB):               178
    Schwarz Cutoff:          1E-12

  Minimum eigenvalue in the overlap matrix is 1.0795200227E-02.
  Using Symmetric Orthogonalization.
  SCF Guess: Core (One-Electron) Hamiltonian.

  ==> Iterations <==

                        Total Energy        Delta E     RMS |[F,P]|

   @ROHF iter   1:   -83.19841367423673   -8.31984e+01   1.36243e-01 
   @ROHF iter   2:   -84.13066745073223   -9.32254e-01   1.22587e-01 DIIS
   @ROHF iter   3:   -91.56994102487488   -7.43927e+00   4.70362e-02 DIIS
   @ROHF iter   4:   -92.11548468951906   -5.45544e-01   1.78041e-02 DIIS
   @ROHF iter   5:   -92.17531716254763   -5.98325e-02   4.68871e-03 DIIS
   @ROHF iter   6:   -92.18489693171701   -9.57977e-03   1.97972e-03 DIIS
   @ROHF iter   7:   -92.18849213633597   -3.59520e-03   2.60041e-03 DIIS
   @ROHF iter   8:   -92.19473815552833   -6.24602e-03   8.77748e-04 DIIS
   @ROHF iter   9:   -92.19547838920772   -7.40234e-04   4.93687e-04 DIIS
   @ROHF iter  10:   -92.19552604195417   -4.76527e-05   2.46913e-04 DIIS
   @ROHF iter  11:   -92.19549304134894    3.30006e-05   2.65380e-04 DIIS
   @ROHF iter  12:   -92.19555559553601   -6.25542e-05   2.76122e-05 DIIS
   @ROHF iter  13:   -92.19555658870789   -9.93172e-07   5.25184e-06 DIIS
   @ROHF iter  14:   -92.19555660604077   -1.73329e-08   4.11111e-07 DIIS
   @ROHF iter  15:   -92.19555660616754   -1.26775e-10   4.25812e-08 DIIS
   @ROHF iter  16:   -92.19555660616858   -1.03739e-12   1.47859e-08 DIIS
   @ROHF iter  17:   -92.19555660616879   -2.13163e-13   1.94133e-09 DIIS
   @ROHF iter  18:   -92.19555660616879    0.00000e+00   5.90413e-11 DIIS

  ==> Post-Iterations <==

    Orbital Energies (a.u.)
    -----------------------

    Doubly Occupied:                                                      

       1A1   -15.636443     2A1   -11.359535     3A1    -1.246019  
       4A1    -0.626091     1B2    -0.507352     1B1    -0.507352  

    Singly Occupied:                                                      

       5A1    -0.337390  

    Virtual:                                                              

       2B1     0.177180     2B2     0.177180     6A1     0.384745  
       3B2     0.655939     3B1     0.655939     7A1     0.699522  
       8A1     0.869525     4B1     1.036480     4B2     1.036480  
       9A1     1.044978    10A1     1.314443     1A2     1.314443  
       5B2     1.503400     5B1     1.503400    11A1     1.564388  
      12A1     2.160944     2A2     2.160944    13A1     2.254479  
       6B1     2.677031     6B2     2.677031    14A1     3.095851  

    Final Occupation by Irrep:
             A1    A2    B1    B2 
    DOCC [     4,    0,    1,    1 ]
    SOCC [     1,    0,    0,    0 ]

  Energy converged.

  @ROHF Final Energy:   -92.19555660616879

   => Energetics <=

    Nuclear Repulsion Energy =             18.9152704347063967
    One-Electron Energy =                -161.7960330237674214
    Two-Electron Energy =                  50.6852059828922208
    DFT Exchange-Correlation Energy =       0.0000000000000000
    Empirical Dispersion Energy =           0.0000000000000000
    PCM Polarization Energy =               0.0000000000000000
    EFP Energy =                            0.0000000000000000
    Total Energy =                        -92.1955566061687932

    Alert: EFP and PCM quantities not currently incorporated into SCF psivars.

Properties will be evaluated at   0.000000,   0.000000,   0.000000 Bohr
  ==> Properties <==


Properties computed using the SCF density matrix

  Nuclear Dipole Moment: (a.u.)
     X:     0.0000      Y:     0.0000      Z:    -0.0016

  Electronic Dipole Moment: (a.u.)
     X:     0.0000      Y:     0.0000      Z:    -0.8531

  Dipole Moment: (a.u.)
     X:     0.0000      Y:     0.0000      Z:    -0.8546     Total:     0.8546

  Dipole Moment: (Debye)
     X:     0.0000      Y:     0.0000      Z:    -2.1723     Total:     2.1723


  Saving occupied orbitals to File 180.

*** tstop() called on ds1.sherrill.chemistry.gatech.edu at Mon Apr  4 10:22:59 2016
Module time:
	user time   =       0.09 seconds =       0.00 minutes
	system time =       0.02 seconds =       0.00 minutes
	total time  =          0 seconds =       0.00 minutes
Total time:
	user time   =       0.09 seconds =       0.00 minutes
	system time =       0.02 seconds =       0.00 minutes
	total time  =          0 seconds =       0.00 minutes

*** tstart() called on ds1.sherrill.chemistry.gatech.edu
*** at Mon Apr  4 10:22:59 2016


	Wfn Parameters:
	--------------------
	Wavefunction         = CCSD_T
	Number of irreps     = 4
	Number of MOs        = 28
	Number of active MOs = 28
	AO-Basis             = DISK
	Semicanonical        = true
	Reference            = ROHF changed to UHF for semicanonical orbitals
	Print Level          = 1

	IRREP	# MOs	# FZDC	# DOCC	# SOCC	# VIRT	# FZVR
	-----	-----	------	------	------	------	------
	 A1	   14	    0	    4	    1	    9	    0
	 A2	   2	    0	    0	    0	    2	    0
	 B1	   6	    0	    1	    0	    5	    0
	 B2	   6	    0	    1	    0	    5	    0
	Transforming integrals...
	IWL integrals will be retained.
	(OO|OO)...
	Presorting SO-basis two-electron integrals.
	Sorting File: SO Ints (nn|nn) nbuckets = 1
	Transforming the one-electron integrals and constructing Fock matrices
	Starting AA/AB first half-transformation.
	Sorting AA/AB half-transformed integrals.
	Starting BB first half-transformation.
	Sorting BB half-transformed integrals.
	First half integral transformation complete.
	Starting AA second half-transformation.
	Starting AB second half-transformation.
	Starting BB second half-transformation.
	Two-electron integral transformation complete.
	(OO|OV)...
	Starting AA second half-transformation.
	Starting AB second half-transformation.
	Starting BB second half-transformation.
	Two-electron integral transformation complete.
	(OO|VV)...
	Starting AA second half-transformation.
	Starting AB second half-transformation.
	Starting BB second half-transformation.
	Two-electron integral transformation complete.
	(OV|OO)...
	Starting AA/AB first half-transformation.
	Sorting AA/AB half-transformed integrals.
	Starting BB first half-transformation.
	Sorting BB half-transformed integrals.
	First half integral transformation complete.
	Starting AA second half-transformation.
	Starting AB second half-transformation.
	Starting BB second half-transformation.
	Two-electron integral transformation complete.
	(OV|OV)...
	Starting AA second half-transformation.
	Starting AB second half-transformation.
	Starting BB second half-transformation.
	Two-electron integral transformation complete.
	(OV|VV)...
	Starting AA second half-transformation.
	Starting AB second half-transformation.
	Starting BB second half-transformation.
	Two-electron integral transformation complete.
	(VV|OO)...
	Starting AA/AB first half-transformation.
	Sorting AA/AB half-transformed integrals.
	Starting BB first half-transformation.
	Sorting BB half-transformed integrals.
	First half integral transformation complete.
	Starting AA second half-transformation.
	Starting AB second half-transformation.
	Starting BB second half-transformation.
	Two-electron integral transformation complete.
	(VV|OV)...
	Starting AA second half-transformation.
	Starting AB second half-transformation.
	Starting BB second half-transformation.
	Two-electron integral transformation complete.
	(VV|VV)...
	Starting AA second half-transformation.
	Starting AB second half-transformation.
	Starting BB second half-transformation.
	Two-electron integral transformation complete.
	Frozen core energy     =      0.00000000000000

	Size of irrep 0 of <AB|CD> integrals:      0.003 (MW) /      0.026 (MB)
	Size of irrep 1 of <AB|CD> integrals:      0.002 (MW) /      0.015 (MB)
	Size of irrep 2 of <AB|CD> integrals:      0.003 (MW) /      0.024 (MB)
	Size of irrep 3 of <AB|CD> integrals:      0.003 (MW) /      0.024 (MB)
	Total:                                     0.011 (MW) /      0.089 (MB)

	Size of irrep 0 of <ab|cd> integrals:      0.004 (MW) /      0.035 (MB)
	Size of irrep 1 of <ab|cd> integrals:      0.002 (MW) /      0.016 (MB)
	Size of irrep 2 of <ab|cd> integrals:      0.004 (MW) /      0.029 (MB)
	Size of irrep 3 of <ab|cd> integrals:      0.004 (MW) /      0.029 (MB)
	Total:                                     0.014 (MW) /      0.109 (MB)

	Size of irrep 0 of <Ab|Cd> integrals:      0.021 (MW) /      0.166 (MB)
	Size of irrep 1 of <Ab|Cd> integrals:      0.008 (MW) /      0.062 (MB)
	Size of irrep 2 of <Ab|Cd> integrals:      0.013 (MW) /      0.106 (MB)
	Size of irrep 3 of <Ab|Cd> integrals:      0.013 (MW) /      0.106 (MB)
	Total:                                     0.055 (MW) /      0.439 (MB)

	Size of irrep 0 of <IA|BC> integrals:      0.007 (MW) /      0.059 (MB)
	Size of irrep 1 of <IA|BC> integrals:      0.002 (MW) /      0.014 (MB)
	Size of irrep 2 of <IA|BC> integrals:      0.004 (MW) /      0.032 (MB)
	Size of irrep 3 of <IA|BC> integrals:      0.004 (MW) /      0.032 (MB)
	Total:                                     0.017 (MW) /      0.137 (MB)

	Size of irrep 0 of <ia|bc> integrals:      0.008 (MW) /      0.062 (MB)
	Size of irrep 1 of <ia|bc> integrals:      0.002 (MW) /      0.013 (MB)
	Size of irrep 2 of <ia|bc> integrals:      0.004 (MW) /      0.031 (MB)
	Size of irrep 3 of <ia|bc> integrals:      0.004 (MW) /      0.031 (MB)
	Total:                                     0.017 (MW) /      0.136 (MB)

	Size of irrep 0 of <Ia|Bc> integrals:      0.009 (MW) /      0.069 (MB)
	Size of irrep 1 of <Ia|Bc> integrals:      0.002 (MW) /      0.014 (MB)
	Size of irrep 2 of <Ia|Bc> integrals:      0.004 (MW) /      0.034 (MB)
	Size of irrep 3 of <Ia|Bc> integrals:      0.004 (MW) /      0.034 (MB)
	Total:                                     0.019 (MW) /      0.151 (MB)

	Size of irrep 0 of <iA|bC> integrals:      0.007 (MW) /      0.053 (MB)
	Size of irrep 1 of <iA|bC> integrals:      0.002 (MW) /      0.013 (MB)
	Size of irrep 2 of <iA|bC> integrals:      0.004 (MW) /      0.029 (MB)
	Size of irrep 3 of <iA|bC> integrals:      0.004 (MW) /      0.029 (MB)
	Total:                                     0.015 (MW) /      0.123 (MB)

	Size of irrep 0 of tIjAb amplitudes:       0.003 (MW) /      0.025 (MB)
	Size of irrep 1 of tIjAb amplitudes:       0.000 (MW) /      0.001 (MB)
	Size of irrep 2 of tIjAb amplitudes:       0.001 (MW) /      0.008 (MB)
	Size of irrep 3 of tIjAb amplitudes:       0.001 (MW) /      0.008 (MB)
	Total:                                     0.005 (MW) /      0.043 (MB)

	Nuclear Rep. energy          =     18.91527043470640
	SCF energy                   =    -92.19555660616879
	One-electron energy          =   -161.79603302536896
	Two-electron (AA) energy     =     11.19205100828055
	Two-electron (BB) energy     =      8.49570670573936
	Two-electron (AB) energy     =     30.99744827047390
	Two-electron energy          =     50.68520598449381
	Reference energy             =    -92.19555660616875

*** tstop() called on ds1.sherrill.chemistry.gatech.edu at Mon Apr  4 10:22:59 2016
Module time:
	user time   =       0.04 seconds =       0.00 minutes
	system time =       0.04 seconds =       0.00 minutes
	total time  =          0 seconds =       0.00 minutes
Total time:
	user time   =       0.13 seconds =       0.00 minutes
	system time =       0.06 seconds =       0.00 minutes
	total time  =          0 seconds =       0.00 minutes

*** tstart() called on ds1.sherrill.chemistry.gatech.edu
*** at Mon Apr  4 10:22:59 2016

            **************************
            *                        *
            *        CCENERGY        *
            *                        *
            **************************

    Nuclear Rep. energy (wfn)     =   18.915270434706397
    SCF energy          (wfn)     =  -92.195556606168793
    Reference energy    (file100) =  -92.195556606168751

    Input parameters:
    -----------------
    Wave function   =   CCSD_T
    Reference wfn   =     ROHF changed to UHF for Semicanonical Orbitals
    Brueckner       =     No
    Memory (Mbytes) =     250.0
    Maxiter         =     50
    R_Convergence   =     1.0e-10
    E_Convergence   =     1.0e-10
    Restart         =     Yes
    DIIS            =     Yes
    AO Basis        =     DISK
    ABCD            =     NEW
    Cache Level     =     2
    Cache Type      =     LRU
    Print Level     =     1
    Num. of threads =     1
    # Amps to Print =     10
    Print MP2 Amps? =     No
    Analyze T2 Amps =     No
    Print Pair Ener =     No
    Local CC        =     No
    SCS-MP2         =     False
    SCSN-MP2        =     False
    SCS-CCSD        =     False

MP2 correlation energy -0.2744053080900142
                Solving CC Amplitude Equations
                ------------------------------
  Iter             Energy              RMS        T1Diag      D1Diag    New D1Diag    D2Diag
  ----     ---------------------    ---------   ----------  ----------  ----------   --------
     0        -0.274514295540544    0.000e+00    0.013430    0.000000    0.000000    0.000000
     1        -0.263908576887880    1.106e-01    0.031103    0.000000    0.000000    0.000000
     2        -0.277753004833412    4.184e-02    0.034767    0.000000    0.000000    0.000000
     3        -0.282899024470399    3.490e-02    0.046111    0.000000    0.000000    0.000000
     4        -0.283881380726979    1.811e-02    0.054370    0.000000    0.000000    0.000000
     5        -0.284747224686853    1.217e-02    0.061801    0.000000    0.000000    0.000000
     6        -0.284789644308442    5.881e-03    0.065648    0.000000    0.000000    0.000000
     7        -0.284896575114501    2.111e-03    0.066557    0.000000    0.000000    0.000000
     8        -0.284941188545892    1.031e-03    0.067250    0.000000    0.000000    0.000000
     9        -0.284916220661109    4.000e-04    0.067255    0.000000    0.000000    0.000000
    10        -0.284925701578545    2.038e-04    0.067307    0.000000    0.000000    0.000000
    11        -0.284923592917988    1.095e-04    0.067370    0.000000    0.000000    0.000000
    12        -0.284924905695555    5.568e-05    0.067361    0.000000    0.000000    0.000000
    13        -0.284923309770645    1.501e-05    0.067367    0.000000    0.000000    0.000000
    14        -0.284922709021221    3.891e-06    0.067369    0.000000    0.000000    0.000000
    15        -0.284922821278421    1.391e-06    0.067369    0.000000    0.000000    0.000000
    16        -0.284922909802494    6.346e-07    0.067370    0.000000    0.000000    0.000000
    17        -0.284922918548672    1.131e-07    0.067370    0.000000    0.000000    0.000000
    18        -0.284922924617136    4.440e-08    0.067370    0.000000    0.000000    0.000000
    19        -0.284922922121071    1.657e-08    0.067370    0.000000    0.000000    0.000000
    20        -0.284922922373867    6.397e-09    0.067370    0.000000    0.000000    0.000000
    21        -0.284922921932963    3.100e-09    0.067370    0.000000    0.000000    0.000000
    22        -0.284922921845556    1.423e-09    0.067370    0.000000    0.000000    0.000000
    23        -0.284922921833761    5.478e-10    0.067370    0.000000    0.000000    0.000000
    24        -0.284922921788764    3.242e-10    0.067370    0.000000    0.000000    0.000000
    25        -0.284922921793319    1.398e-10    0.067370    0.000000    0.000000    0.000000
    26        -0.284922921794451    7.330e-11    0.067370    0.000000    0.000000    0.000000

    Iterations converged.


    Largest TIA Amplitudes:
              5  11        -0.0353828687
              6  16        -0.0353828687
              5  12        -0.0248789275
              6  17        -0.0248789275
              5  14        -0.0239951936
              6  19        -0.0239951936
              4   1         0.0179530796
              4   3         0.0164691627
              4   0        -0.0113429349
              5  13         0.0097034083

    Largest Tia Amplitudes:
              3   0        -0.2197999496
              4  12         0.0352135230
              5  17         0.0352135230
              3   2         0.0219359849
              4  14         0.0185864687
              5  19         0.0185864687
              2   0         0.0145613700
              3   1         0.0136676955
              4  15         0.0107724477
              5  20         0.0107724477

    Largest TIJAB Amplitudes:
      6   5  16  11        -0.0345988970
      5   4  11   3        -0.0226926753
      6   4  16   3        -0.0226926753
      6   5  17  12        -0.0172561361
      6   5   9   4        -0.0164439325
      5   3  12   1         0.0147258171
      6   3  17   1         0.0147258171
      6   5  16  13        -0.0114044357
      6   5  18  11        -0.0114044357
      5   4  13   3        -0.0113075813

    Largest Tijab Amplitudes:
      4   3  12   0        -0.0383395929
      5   3  17   0        -0.0383395929
      5   4  17  12        -0.0367707958
      5   4  18  13        -0.0148992497
      5   4  10   5         0.0147264946
      4   3  14   0        -0.0136504578
      5   3  19   0        -0.0136504578
      5   4  17  14        -0.0130977056
      5   4  19  12        -0.0130977056
      5   4  19  14        -0.0130893483

    Largest TIjAb Amplitudes:
      5   4  11  12        -0.1034066065
      6   5  16  17        -0.1034066065
      5   3  11   0        -0.0804563473
      6   3  16   0        -0.0804563473
      5   5  11  17        -0.0611850845
      6   4  16  12        -0.0611850845
      3   4  11   0         0.0596578085
      3   5  16   0         0.0596578085
      3   3  11  12         0.0484330179
      3   3  16  17         0.0484330179

    SCF energy       (wfn)                    =  -92.195556606168793
    Reference energy (file100)                =  -92.195556606168751

    Opposite-spin MP2 correlation energy      =   -0.198604568257784
    Same-spin MP2 correlation energy          =   -0.073221632953434
    MP2 correlation energy                    =   -0.274405308090014
      * MP2 total energy                      =  -92.469961914258761

    Opposite-spin CCSD correlation energy     =   -0.220906583379578
    Same-spin CCSD correlation energy         =   -0.060082419855000
    CCSD correlation energy                   =   -0.284922921794451
      * CCSD total energy                     =  -92.480479527963197


*** tstop() called on ds1.sherrill.chemistry.gatech.edu at Mon Apr  4 10:23:00 2016
Module time:
	user time   =       0.55 seconds =       0.01 minutes
	system time =       0.36 seconds =       0.01 minutes
	total time  =          1 seconds =       0.02 minutes
Total time:
	user time   =       0.68 seconds =       0.01 minutes
	system time =       0.42 seconds =       0.01 minutes
	total time  =          1 seconds =       0.02 minutes

*** tstart() called on ds1.sherrill.chemistry.gatech.edu
*** at Mon Apr  4 10:23:00 2016

            **************************
            *                        *
            *        CCTRIPLES       *
            *                        *
            **************************


    Wave function   =    CCSD_T
    Reference wfn   =    ROHF changed to UHF for Semicanonical Orbitals

    Nuclear Rep. energy (wfn)                =   18.915270434706397
    SCF energy          (wfn)                =  -92.195556606168793
    Reference energy    (file100)            =  -92.195556606168751
    CCSD energy         (file100)            =   -0.284922921794451
    Total CCSD energy   (file100)            =  -92.480479527963197

    Number of ijk index combinations:
    Spin Case AAA:                                  35
    Spin Case BBB:                                  20
    Spin Case AAB:                                 126
    Spin Case ABB:                                 105
    AAA (T) energy                             =   -0.000198637636809
    BBB (T) energy                             =   -0.000177305581851
    AAB (T) energy                             =   -0.007197928419914
    ABB (T) energy                             =   -0.006489164130458
    (T) energy                                   =   -0.014063035769032
      * CCSD(T) total energy                     =  -92.494542563732239


*** tstop() called on ds1.sherrill.chemistry.gatech.edu at Mon Apr  4 10:23:00 2016
Module time:
	user time   =       0.06 seconds =       0.00 minutes
	system time =       0.02 seconds =       0.00 minutes
	total time  =          0 seconds =       0.00 minutes
Total time:
	user time   =       0.74 seconds =       0.01 minutes
	system time =       0.44 seconds =       0.01 minutes
	total time  =          1 seconds =       0.02 minutes
	Nuclear repulsion energy..........................................PASSED
	SCF energy........................................................PASSED
	CCSD contribution.................................................PASSED
	(T) contribution..................................................PASSED
	Total energy......................................................PASSED

*** PSI4 exiting successfully. Buy a developer a beer!
