                  Welcome to Q-Chem
     A Quantum Leap Into The Future Of Chemistry

 Y. Shao, L. Fusti-Molnar, Y. Jung, J. Kussmann, C. Ochsenfeld,
 S. T. Brown, A. T. B. Gilbert, L. V. Slipchenko,S. V. Levchenko,
 D. P. O'Neill, R. A. DiStasio Jr., R. C. Lochan, T. Wang,
 G. J. O. Beran, N. A. Besley, J. M. Herbert, C. Y. Lin,
 T. Van Voorhis, S. H. Chien, A. Sodt, R. P. Steele, 
 V. A. Rassolov, P. E. Maslen, P. P. Korambath, R. D. Adamson,
 B. Austin, J. Baker, E. F. C. Byrd, H. Dachsel, R. J. Doerksen,
 A. Dreuw, B. D. Dunietz, A. D. Dutoi, T. R. Furlani,
 S. R. Gwaltney, A. Heyden, S. Hirata, C.-P. Hsu, G. Kedziora,
 R. Z. Khaliullin, P. Klunzinger, A. M. Lee, M. S. Lee, W. Liang,
 I. Lotan, N. Nair, B. Peters, E. I. Proynov, P. A. Pieniazek, 
 Y. M. Rhee, J. Ritchie, E. Rosta, C. D. Sherrill, 
 A. C. Simmonett, J. E. Subotnik, H. L. Woodcock III,
 W. Zhang, A. T. Bell, A. K. Chakraborty, D. M. Chipman,
 F. J. Keil, A. Warshel, W. J. Hehre, H. F. Schaefer III,
 J. Kong, A. I. Krylov, P. M. W. Gill, M. Head-Gordon,
 Q-Chem, Version 3.1, Q-Chem, Inc., Pittsburgh, PA (2007).

 Additional authors for Version 3.1: 
 Z. Gan, Y. Zhao, N. E. Schultz, D. Truhlar, E. Epifanovsky and M. Oana.

 Additional authors for Version 3.2: 
 R. Baer, B. R. Brooks, D. Casanova, J.-D. Chai, C.-L. Cheng, 
 C. Cramer, D. Crittenden, A. Ghysels, G. Hawkins, E. G. Hohenstein, 
 C. Kelley, W. Kurlancheek, D. Liotard, E. Livshits, P. Manohar, 
 A. Marenich, D. Neuhauser, R. Olson, M. A. Rohrdanz, K. S. Thanthiriwatte, 
 A. J. W. Thom, V. Vanovschi, C. F. Williams, Q. Wu and Z.-Q. You. 


 Intel X86 Linux Version

 Q-chem begins on Wed Aug 10 10:30:35 2011  


theFileMan(): MAXOPENFILES=974 MAX_SUB_FILE_NUM=16
Maximum size of a physical file is 2.0 GB, maximum size of a tmp-file is 32.0 GB


--------------------------------------------------------------
User input:
--------------------------------------------------------------
$molecule 
0 1
He
$end

$rem
basis cc-pvdz
exchange wB97
scf_print 10
scf_guess core
$end
--------------------------------------------------------------
 Writing REM_CC_EA            1
 ----------------------------------------------------
       Standard Nuclear Orientation (Angstroms)
    I     Atom         X            Y            Z
 ----------------------------------------------------
    1      He      0.000000     0.000000     0.000000
 ----------------------------------------------------
 Molecular Point Group                 Kh    NOp =***
 Largest Abelian Subgroup              D2h   NOp =  1
 Nuclear Repulsion Energy =     0.0000000000 hartrees
 There are        1 alpha and        1 beta electrons
 Requested basis set is cc-pVDZ
 There are 3 shells and 5 basis functions

Total QAlloc Memory Limit   2000 MB
Mega-Array Size        61 MB
MEM_STATIC part        62 MB
 A cutoff of  1.0D-08 yielded      6 shell pairs
 There are     18 function pairs
Evaluating contribution to one-electron hamiltonian from nuclear
 Smallest overlap matrix eigenvalue = 3.66E-01
 Multipole matrices computed through 2nd order

  Scale SEOQF with 1.000000e+00/1.000000e+00/1.000000e+00

 Standard Electronic Orientation quadrupole field applied
 Guess MOs from core Hamiltonian diagonalization
Long-range correction will be applied
Short-range Coulomb attenuation parameter = 0.3
 A restricted hybrid HF-DFT SCF calculation will be
 performed using Pulay DIIS extrapolation
 Exchange:     0.1577 Hartree-Fock(LRC) + 1.0000 wB97X(LRC)
 Correlation:  1.0000 wB97X
 Using SG-1 standard quadrature grid
 SCF converges when DIIS error is below 1.0E-05
 Maximum number of SCF iterations = 50
 Coulomb Matrix
            1           2           3           4           5
    1   2.7562802   1.4416290   0.0000000   0.0000000   0.0000000
    2   1.4416290   1.5381126   0.0000000   0.0000000   0.0000000
    3   0.0000000   0.0000000   2.0616556   0.0000000   0.0000000
    4   0.0000000   0.0000000   0.0000000   2.0616556   0.0000000
    5   0.0000000   0.0000000   0.0000000   0.0000000   2.0616556
 Long-Range Alpha Exchange Matrix
            1           2           3           4           5
    1  -0.3091252  -0.2486871   0.0000000   0.0000000   0.0000000
    2  -0.2486871  -0.2003181   0.0000000   0.0000000   0.0000000
    3   0.0000000   0.0000000  -0.0036838   0.0000000   0.0000000
    4   0.0000000   0.0000000   0.0000000  -0.0036838   0.0000000
    5   0.0000000   0.0000000   0.0000000   0.0000000  -0.0036838
 Short-Range Alpha Exchange Matrix
            1           2           3           4           5
    1  -0.1628306  -0.0887580   0.0000000   0.0000000   0.0000000
    2  -0.0887580  -0.0541852   0.0000000   0.0000000   0.0000000
    3   0.0000000   0.0000000  -0.0289423   0.0000000   0.0000000
    4   0.0000000   0.0000000   0.0000000  -0.0289423   0.0000000
    5   0.0000000   0.0000000   0.0000000   0.0000000  -0.0289423
 Using SG-1 standard quadrature grid
 
 Atom He has  50 radial points,  3752 total points
 Sphere   Radius      Weight      NAng
 ------   ------      ------      ----
    1    2.35D-04    2.66D-11       6
    2    9.80D-04    9.80D-10       6
    3    2.30D-03    8.59D-09       6
    4    4.26D-03    4.20D-08       6
    5    6.95D-03    1.49D-07       6
    6    1.05D-02    4.32D-07       6
    7    1.49D-02    1.09D-06       6
    8    2.04D-02    2.50D-06       6
    9    2.70D-02    5.32D-06       6
   10    3.50D-02    1.07D-05       6
   11    4.45D-02    2.04D-05       6
   12    5.57D-02    3.76D-05       6
   13    6.88D-02    6.74D-05       6
   14    8.42D-02    1.18D-04       6
   15    1.02D-01    2.01D-04       6
   16    1.23D-01    3.38D-04       6
   17    1.47D-01    5.61D-04      38
   18    1.75D-01    9.20D-04      38
   19    2.07D-01    1.50D-03      38
   20    2.45D-01    2.41D-03      38
   21    2.88D-01    3.88D-03      38
   22    3.39D-01    6.20D-03      86
   23    3.97D-01    9.90D-03      86
   24    4.65D-01    1.58D-02      86
   25    5.44D-01    2.52D-02      86
   26    6.36D-01    4.04D-02     194
   27    7.44D-01    6.50D-02     194
   28    8.72D-01    1.05D-01     194
   29    1.02D+00    1.71D-01     194
   30    1.20D+00    2.80D-01     194
   31    1.41D+00    4.64D-01     194
   32    1.67D+00    7.79D-01     194
   33    1.98D+00    1.33D+00     194
   34    2.35D+00    2.30D+00     194
   35    2.81D+00    4.06D+00      86
   36    3.39D+00    7.35D+00      86
   37    4.11D+00    1.37D+01      86
   38    5.03D+00    2.62D+01      86
   39    6.21D+00    5.23D+01      86
   40    7.78D+00    1.09D+02      86
   41    9.89D+00    2.41D+02      86
   42    1.28D+01    5.67D+02      86
   43    1.70D+01    1.46D+03      86
   44    2.32D+01    4.16D+03      86
   45    3.31D+01    1.37D+04      86
   46    4.98D+01    5.47D+04      86
   47    8.12D+01    2.91D+05      86
   48    1.51D+02    2.42D+06      86
   49    3.53D+02    4.58D+07      86
   50    1.47D+03    6.49D+09      86
 
 CutRad removed 11 radial spheres (   946 points) from atom He
 
 Atom He has  39 radial points,  2806 total points
 Sphere   Radius      Weight      NAng
 ------   ------      ------      ----
    1    2.35D-04    2.66D-11       6
    2    9.80D-04    9.80D-10       6
    3    2.30D-03    8.59D-09       6
    4    4.26D-03    4.20D-08       6
    5    6.95D-03    1.49D-07       6
    6    1.05D-02    4.32D-07       6
    7    1.49D-02    1.09D-06       6
    8    2.04D-02    2.50D-06       6
    9    2.70D-02    5.32D-06       6
   10    3.50D-02    1.07D-05       6
   11    4.45D-02    2.04D-05       6
   12    5.57D-02    3.76D-05       6
   13    6.88D-02    6.74D-05       6
   14    8.42D-02    1.18D-04       6
   15    1.02D-01    2.01D-04       6
   16    1.23D-01    3.38D-04       6
   17    1.47D-01    5.61D-04      38
   18    1.75D-01    9.20D-04      38
   19    2.07D-01    1.50D-03      38
   20    2.45D-01    2.41D-03      38
   21    2.88D-01    3.88D-03      38
   22    3.39D-01    6.20D-03      86
   23    3.97D-01    9.90D-03      86
   24    4.65D-01    1.58D-02      86
   25    5.44D-01    2.52D-02      86
   26    6.36D-01    4.04D-02     194
   27    7.44D-01    6.50D-02     194
   28    8.72D-01    1.05D-01     194
   29    1.02D+00    1.71D-01     194
   30    1.20D+00    2.80D-01     194
   31    1.41D+00    4.64D-01     194
   32    1.67D+00    7.79D-01     194
   33    1.98D+00    1.33D+00     194
   34    2.35D+00    2.30D+00     194
   35    2.81D+00    4.06D+00      86
   36    3.39D+00    7.35D+00      86
   37    4.11D+00    1.37D+01      86
   38    5.03D+00    2.62D+01      86
   39    6.21D+00    5.23D+01      86
 
 Electron Count = 1.9999999990
 Alpha XC Matrix
            1           2           3           4           5
    1  -0.6659971  -0.2917205  -0.0000000   0.0000000  -0.0000000
    2  -0.2917205  -0.1742772   0.0000000   0.0000000  -0.0000000
    3  -0.0000000   0.0000000  -0.3738719  -0.0000000   0.0000000
    4   0.0000000   0.0000000  -0.0000000  -0.3738719   0.0000000
    5  -0.0000000  -0.0000000   0.0000000   0.0000000  -0.3738719
 Calculated Alpha Fock Matrix
            1           2           3           4           5
    1  -0.2619254  -0.7333252  -0.0000000   0.0000000  -0.0000000
    2  -0.7333252  -0.1853391   0.0000000   0.0000000  -0.0000000
    3  -0.0000000   0.0000000   2.4401549  -0.0000000   0.0000000
    4   0.0000000   0.0000000  -0.0000000   2.4401549   0.0000000
    5  -0.0000000  -0.0000000   0.0000000   0.0000000   2.4401549
 Extrapolated Alpha Fock Matrix
            1           2           3           4           5
    1  -0.2619254  -0.7333252  -0.0000000   0.0000000  -0.0000000
    2  -0.7333252  -0.1853391   0.0000000   0.0000000  -0.0000000
    3  -0.0000000   0.0000000   2.4401549  -0.0000000   0.0000000
    4   0.0000000   0.0000000  -0.0000000   2.4401549   0.0000000
    5  -0.0000000  -0.0000000   0.0000000   0.0000000   2.4401549
 Alpha MO Eigenvalues
            1           2           3           4           5
    1  -0.5868319   1.3944810   2.4401549   2.4401549   2.4401549
 Alpha MO Coefficients
            1           2           3           4           5
    1   0.5822011  -1.1548829  -0.0000000   0.0000000   0.0000000
    2   0.5237371   1.1825448   0.0000000   0.0000000   0.0000000
    3   0.0000000  -0.0000000   0.0000000   1.0000000   0.0000000
    4   0.0000000  -0.0000000   1.0000000  -0.0000000   0.0000000
    5   0.0000000   0.0000000   0.0000000   0.0000000   1.0000000
 Alpha Density Matrix
            1           2           3           4           5
    1   0.3389582   0.3049203   0.0000000   0.0000000   0.0000000
    2   0.3049203   0.2743006   0.0000000   0.0000000   0.0000000
    3   0.0000000   0.0000000   0.0000000   0.0000000   0.0000000
    4   0.0000000   0.0000000   0.0000000   0.0000000   0.0000000
    5   0.0000000   0.0000000   0.0000000   0.0000000   0.0000000
 ---------------------------------------
  Cycle       Energy         DIIS Error
 ---------------------------------------
    1      -2.7834212347      1.91E-01
 Coulomb Matrix
            1           2           3           4           5
    1   2.4442530   1.3137627   0.0000000   0.0000000   0.0000000
    2   1.3137627   1.4628325   0.0000000   0.0000000   0.0000000
    3   0.0000000   0.0000000   1.9141605   0.0000000   0.0000000
    4   0.0000000   0.0000000   0.0000000   1.9141605   0.0000000
    5   0.0000000   0.0000000   0.0000000   0.0000000   1.9141605
 Long-Range Alpha Exchange Matrix
            1           2           3           4           5
    1  -0.2732707  -0.2582542   0.0000000  -0.0000000   0.0000000
    2  -0.2582542  -0.2445413   0.0000000  -0.0000000   0.0000000
    3   0.0000000   0.0000000  -0.0041764   0.0000000   0.0000000
    4  -0.0000000  -0.0000000   0.0000000  -0.0041764   0.0000000
    5   0.0000000   0.0000000   0.0000000   0.0000000  -0.0041764
 Short-Range Alpha Exchange Matrix
            1           2           3           4           5
    1  -0.1333453  -0.0809799   0.0000000  -0.0000000   0.0000000
    2  -0.0809799  -0.0566471   0.0000000  -0.0000000   0.0000000
    3   0.0000000   0.0000000  -0.0281507   0.0000000   0.0000000
    4  -0.0000000  -0.0000000   0.0000000  -0.0281507   0.0000000
    5   0.0000000   0.0000000   0.0000000   0.0000000  -0.0281507
 Using SG-1 standard quadrature grid
 
 Atom He has  50 radial points,  3752 total points
 Sphere   Radius      Weight      NAng
 ------   ------      ------      ----
    1    2.35D-04    2.66D-11       6
    2    9.80D-04    9.80D-10       6
    3    2.30D-03    8.59D-09       6
    4    4.26D-03    4.20D-08       6
    5    6.95D-03    1.49D-07       6
    6    1.05D-02    4.32D-07       6
    7    1.49D-02    1.09D-06       6
    8    2.04D-02    2.50D-06       6
    9    2.70D-02    5.32D-06       6
   10    3.50D-02    1.07D-05       6
   11    4.45D-02    2.04D-05       6
   12    5.57D-02    3.76D-05       6
   13    6.88D-02    6.74D-05       6
   14    8.42D-02    1.18D-04       6
   15    1.02D-01    2.01D-04       6
   16    1.23D-01    3.38D-04       6
   17    1.47D-01    5.61D-04      38
   18    1.75D-01    9.20D-04      38
   19    2.07D-01    1.50D-03      38
   20    2.45D-01    2.41D-03      38
   21    2.88D-01    3.88D-03      38
   22    3.39D-01    6.20D-03      86
   23    3.97D-01    9.90D-03      86
   24    4.65D-01    1.58D-02      86
   25    5.44D-01    2.52D-02      86
   26    6.36D-01    4.04D-02     194
   27    7.44D-01    6.50D-02     194
   28    8.72D-01    1.05D-01     194
   29    1.02D+00    1.71D-01     194
   30    1.20D+00    2.80D-01     194
   31    1.41D+00    4.64D-01     194
   32    1.67D+00    7.79D-01     194
   33    1.98D+00    1.33D+00     194
   34    2.35D+00    2.30D+00     194
   35    2.81D+00    4.06D+00      86
   36    3.39D+00    7.35D+00      86
   37    4.11D+00    1.37D+01      86
   38    5.03D+00    2.62D+01      86
   39    6.21D+00    5.23D+01      86
   40    7.78D+00    1.09D+02      86
   41    9.89D+00    2.41D+02      86
   42    1.28D+01    5.67D+02      86
   43    1.70D+01    1.46D+03      86
   44    2.32D+01    4.16D+03      86
   45    3.31D+01    1.37D+04      86
   46    4.98D+01    5.47D+04      86
   47    8.12D+01    2.91D+05      86
   48    1.51D+02    2.42D+06      86
   49    3.53D+02    4.58D+07      86
   50    1.47D+03    6.49D+09      86
 
 CutRad removed 11 radial spheres (   946 points) from atom He
 
 Atom He has  39 radial points,  2806 total points
 Sphere   Radius      Weight      NAng
 ------   ------      ------      ----
    1    2.35D-04    2.66D-11       6
    2    9.80D-04    9.80D-10       6
    3    2.30D-03    8.59D-09       6
    4    4.26D-03    4.20D-08       6
    5    6.95D-03    1.49D-07       6
    6    1.05D-02    4.32D-07       6
    7    1.49D-02    1.09D-06       6
    8    2.04D-02    2.50D-06       6
    9    2.70D-02    5.32D-06       6
   10    3.50D-02    1.07D-05       6
   11    4.45D-02    2.04D-05       6
   12    5.57D-02    3.76D-05       6
   13    6.88D-02    6.74D-05       6
   14    8.42D-02    1.18D-04       6
   15    1.02D-01    2.01D-04       6
   16    1.23D-01    3.38D-04       6
   17    1.47D-01    5.61D-04      38
   18    1.75D-01    9.20D-04      38
   19    2.07D-01    1.50D-03      38
   20    2.45D-01    2.41D-03      38
   21    2.88D-01    3.88D-03      38
   22    3.39D-01    6.20D-03      86
   23    3.97D-01    9.90D-03      86
   24    4.65D-01    1.58D-02      86
   25    5.44D-01    2.52D-02      86
   26    6.36D-01    4.04D-02     194
   27    7.44D-01    6.50D-02     194
   28    8.72D-01    1.05D-01     194
   29    1.02D+00    1.71D-01     194
   30    1.20D+00    2.80D-01     194
   31    1.41D+00    4.64D-01     194
   32    1.67D+00    7.79D-01     194
   33    1.98D+00    1.33D+00     194
   34    2.35D+00    2.30D+00     194
   35    2.81D+00    4.06D+00      86
   36    3.39D+00    7.35D+00      86
   37    4.11D+00    1.37D+01      86
   38    5.03D+00    2.62D+01      86
   39    6.21D+00    5.23D+01      86
 
 Electron Count = 1.9999999977
 Alpha XC Matrix
            1           2           3           4           5
    1  -0.6107871  -0.2798975  -0.0000000   0.0000000  -0.0000000
    2  -0.2798975  -0.2109871   0.0000000   0.0000000  -0.0000000
    3  -0.0000000   0.0000000  -0.3639946  -0.0000000   0.0000000
    4   0.0000000   0.0000000  -0.0000000  -0.3639946   0.0000000
    5  -0.0000000  -0.0000000   0.0000000   0.0000000  -0.3639946
 Calculated Alpha Fock Matrix
            1           2           3           4           5
    1  -0.4534028  -0.8511577  -0.0000000   0.0000000  -0.0000000
    2  -0.8511577  -0.3440142   0.0000000   0.0000000  -0.0000000
    3  -0.0000000   0.0000000   2.3028360  -0.0000000   0.0000000
    4   0.0000000   0.0000000  -0.0000000   2.3028360   0.0000000
    5  -0.0000000  -0.0000000   0.0000000   0.0000000   2.3028360
 Extrapolated Alpha Fock Matrix
            1           2           3           4           5
    1  -0.4423776  -0.8443729  -0.0000000   0.0000000  -0.0000000
    2  -0.8443729  -0.3348777   0.0000000   0.0000000  -0.0000000
    3  -0.0000000   0.0000000   2.3107428  -0.0000000   0.0000000
    4   0.0000000   0.0000000  -0.0000000   2.3107428   0.0000000
    5  -0.0000000  -0.0000000   0.0000000   0.0000000   2.3107428
 Alpha MO Eigenvalues
            1           2           3           4           5
    1  -0.7569259   1.2481896   2.3107428   2.3107428   2.3107428
 Alpha MO Coefficients
            1           2           3           4           5
    1   0.5933651  -1.1491869   0.0000000  -0.0000000   0.0000000
    2   0.5122532   1.1875645  -0.0000000   0.0000000   0.0000000
    3  -0.0000000  -0.0000000   0.0000072   1.0000000   0.0000000
    4   0.0000000   0.0000000   1.0000000  -0.0000072   0.0000000
    5   0.0000000   0.0000000   0.0000000   0.0000000   1.0000000
 Alpha Density Matrix
            1           2           3           4           5
    1   0.3520821   0.3039532  -0.0000000   0.0000000   0.0000000
    2   0.3039532   0.2624033  -0.0000000   0.0000000   0.0000000
    3  -0.0000000  -0.0000000   0.0000000   0.0000000   0.0000000
    4   0.0000000   0.0000000   0.0000000   0.0000000   0.0000000
    5   0.0000000   0.0000000   0.0000000   0.0000000   0.0000000
    2      -2.8960674901      1.17E-02
 Coulomb Matrix
            1           2           3           4           5
    1   2.4625996   1.3213917  -0.0000000   0.0000000   0.0000000
    2   1.3213917   1.4674335  -0.0000000   0.0000000   0.0000000
    3  -0.0000000  -0.0000000   1.9231244   0.0000000   0.0000000
    4   0.0000000   0.0000000   0.0000000   1.9231244   0.0000000
    5   0.0000000   0.0000000   0.0000000   0.0000000   1.9231244
 Long-Range Alpha Exchange Matrix
            1           2           3           4           5
    1  -0.2756589  -0.2582111   0.0000000   0.0000000   0.0000000
    2  -0.2582111  -0.2423329   0.0000000   0.0000000   0.0000000
    3   0.0000000   0.0000000  -0.0041547   0.0000000   0.0000000
    4   0.0000000   0.0000000   0.0000000  -0.0041547   0.0000000
    5   0.0000000   0.0000000   0.0000000   0.0000000  -0.0041547
 Short-Range Alpha Exchange Matrix
            1           2           3           4           5
    1  -0.1351221  -0.0815308   0.0000000   0.0000000   0.0000000
    2  -0.0815308  -0.0565785   0.0000000   0.0000000   0.0000000
    3   0.0000000   0.0000000  -0.0282337   0.0000000   0.0000000
    4   0.0000000   0.0000000   0.0000000  -0.0282337   0.0000000
    5   0.0000000   0.0000000   0.0000000   0.0000000  -0.0282337
 Using SG-1 standard quadrature grid
 
 Atom He has  50 radial points,  3752 total points
 Sphere   Radius      Weight      NAng
 ------   ------      ------      ----
    1    2.35D-04    2.66D-11       6
    2    9.80D-04    9.80D-10       6
    3    2.30D-03    8.59D-09       6
    4    4.26D-03    4.20D-08       6
    5    6.95D-03    1.49D-07       6
    6    1.05D-02    4.32D-07       6
    7    1.49D-02    1.09D-06       6
    8    2.04D-02    2.50D-06       6
    9    2.70D-02    5.32D-06       6
   10    3.50D-02    1.07D-05       6
   11    4.45D-02    2.04D-05       6
   12    5.57D-02    3.76D-05       6
   13    6.88D-02    6.74D-05       6
   14    8.42D-02    1.18D-04       6
   15    1.02D-01    2.01D-04       6
   16    1.23D-01    3.38D-04       6
   17    1.47D-01    5.61D-04      38
   18    1.75D-01    9.20D-04      38
   19    2.07D-01    1.50D-03      38
   20    2.45D-01    2.41D-03      38
   21    2.88D-01    3.88D-03      38
   22    3.39D-01    6.20D-03      86
   23    3.97D-01    9.90D-03      86
   24    4.65D-01    1.58D-02      86
   25    5.44D-01    2.52D-02      86
   26    6.36D-01    4.04D-02     194
   27    7.44D-01    6.50D-02     194
   28    8.72D-01    1.05D-01     194
   29    1.02D+00    1.71D-01     194
   30    1.20D+00    2.80D-01     194
   31    1.41D+00    4.64D-01     194
   32    1.67D+00    7.79D-01     194
   33    1.98D+00    1.33D+00     194
   34    2.35D+00    2.30D+00     194
   35    2.81D+00    4.06D+00      86
   36    3.39D+00    7.35D+00      86
   37    4.11D+00    1.37D+01      86
   38    5.03D+00    2.62D+01      86
   39    6.21D+00    5.23D+01      86
   40    7.78D+00    1.09D+02      86
   41    9.89D+00    2.41D+02      86
   42    1.28D+01    5.67D+02      86
   43    1.70D+01    1.46D+03      86
   44    2.32D+01    4.16D+03      86
   45    3.31D+01    1.37D+04      86
   46    4.98D+01    5.47D+04      86
   47    8.12D+01    2.91D+05      86
   48    1.51D+02    2.42D+06      86
   49    3.53D+02    4.58D+07      86
   50    1.47D+03    6.49D+09      86
 
 CutRad removed 11 radial spheres (   946 points) from atom He
 
 Atom He has  39 radial points,  2806 total points
 Sphere   Radius      Weight      NAng
 ------   ------      ------      ----
    1    2.35D-04    2.66D-11       6
    2    9.80D-04    9.80D-10       6
    3    2.30D-03    8.59D-09       6
    4    4.26D-03    4.20D-08       6
    5    6.95D-03    1.49D-07       6
    6    1.05D-02    4.32D-07       6
    7    1.49D-02    1.09D-06       6
    8    2.04D-02    2.50D-06       6
    9    2.70D-02    5.32D-06       6
   10    3.50D-02    1.07D-05       6
   11    4.45D-02    2.04D-05       6
   12    5.57D-02    3.76D-05       6
   13    6.88D-02    6.74D-05       6
   14    8.42D-02    1.18D-04       6
   15    1.02D-01    2.01D-04       6
   16    1.23D-01    3.38D-04       6
   17    1.47D-01    5.61D-04      38
   18    1.75D-01    9.20D-04      38
   19    2.07D-01    1.50D-03      38
   20    2.45D-01    2.41D-03      38
   21    2.88D-01    3.88D-03      38
   22    3.39D-01    6.20D-03      86
   23    3.97D-01    9.90D-03      86
   24    4.65D-01    1.58D-02      86
   25    5.44D-01    2.52D-02      86
   26    6.36D-01    4.04D-02     194
   27    7.44D-01    6.50D-02     194
   28    8.72D-01    1.05D-01     194
   29    1.02D+00    1.71D-01     194
   30    1.20D+00    2.80D-01     194
   31    1.41D+00    4.64D-01     194
   32    1.67D+00    7.79D-01     194
   33    1.98D+00    1.33D+00     194
   34    2.35D+00    2.30D+00     194
   35    2.81D+00    4.06D+00      86
   36    3.39D+00    7.35D+00      86
   37    4.11D+00    1.37D+01      86
   38    5.03D+00    2.62D+01      86
   39    6.21D+00    5.23D+01      86
 
 Electron Count = 1.9999999977
 Alpha XC Matrix
            1           2           3           4           5
    1  -0.6142479  -0.2808955   0.0000000  -0.0000000  -0.0000000
    2  -0.2808955  -0.2094541   0.0000002  -0.0000003  -0.0000002
    3   0.0000000   0.0000002  -0.3649855   0.0000000   0.0000000
    4  -0.0000000  -0.0000003   0.0000000  -0.3649855  -0.0000000
    5  -0.0000000  -0.0000002   0.0000000  -0.0000000  -0.3649855
 Calculated Alpha Fock Matrix
            1           2           3           4           5
    1  -0.4426819  -0.8450345   0.0000000  -0.0000000  -0.0000000
    2  -0.8450345  -0.3356031   0.0000002  -0.0000003  -0.0000002
    3   0.0000000   0.0000002   2.3107479   0.0000000   0.0000000
    4  -0.0000000  -0.0000003   0.0000000   2.3107479  -0.0000000
    5  -0.0000000  -0.0000002   0.0000000  -0.0000000   2.3107479
 Extrapolated Alpha Fock Matrix
            1           2           3           4           5
    1  -0.4423776  -0.8443729   0.0000000  -0.0000000  -0.0000000
    2  -0.8443729  -0.3348777   0.0000000  -0.0000000  -0.0000000
    3   0.0000000   0.0000000   2.3107428   0.0000000   0.0000000
    4  -0.0000000  -0.0000000   0.0000000   2.3107428  -0.0000000
    5  -0.0000000  -0.0000000   0.0000000  -0.0000000   2.3107428
 Alpha MO Eigenvalues
            1           2           3           4           5
    1  -0.7569259   1.2481896   2.3107428   2.3107428   2.3107428
 Alpha MO Coefficients
            1           2           3           4           5
    1   0.5933651  -1.1491869   0.0000000  -0.0000000   0.0000000
    2   0.5122532   1.1875645  -0.0000000   0.0000000  -0.0000000
    3  -0.0000000  -0.0000000  -0.0004704   0.9999999   0.0002322
    4   0.0000000   0.0000000   0.9999999   0.0004704  -0.0000731
    5   0.0000000   0.0000000   0.0000732  -0.0002322   1.0000000
 Alpha Density Matrix
            1           2           3           4           5
    1   0.3520821   0.3039532  -0.0000000   0.0000000   0.0000000
    2   0.3039532   0.2624033  -0.0000000   0.0000000   0.0000000
    3  -0.0000000  -0.0000000   0.0000000  -0.0000000  -0.0000000
    4   0.0000000   0.0000000  -0.0000000   0.0000000   0.0000000
    5   0.0000000   0.0000000  -0.0000000   0.0000000   0.0000000
    3      -2.8964609255      1.76E-04
 Coulomb Matrix
            1           2           3           4           5
    1   2.4625996   1.3213917  -0.0000000   0.0000000   0.0000000
    2   1.3213917   1.4674335  -0.0000000   0.0000000   0.0000000
    3  -0.0000000  -0.0000000   1.9231244  -0.0000000  -0.0000000
    4   0.0000000   0.0000000  -0.0000000   1.9231244   0.0000000
    5   0.0000000   0.0000000  -0.0000000   0.0000000   1.9231244
 Long-Range Alpha Exchange Matrix
            1           2           3           4           5
    1  -0.2756589  -0.2582111   0.0000000  -0.0000000  -0.0000000
    2  -0.2582111  -0.2423329   0.0000000  -0.0000000  -0.0000000
    3   0.0000000   0.0000000  -0.0041547   0.0000000   0.0000000
    4  -0.0000000  -0.0000000   0.0000000  -0.0041547  -0.0000000
    5  -0.0000000  -0.0000000   0.0000000  -0.0000000  -0.0041547
 Short-Range Alpha Exchange Matrix
            1           2           3           4           5
    1  -0.1351221  -0.0815308   0.0000000  -0.0000000  -0.0000000
    2  -0.0815308  -0.0565785   0.0000000  -0.0000000  -0.0000000
    3   0.0000000   0.0000000  -0.0282337   0.0000000   0.0000000
    4  -0.0000000  -0.0000000   0.0000000  -0.0282337  -0.0000000
    5  -0.0000000  -0.0000000   0.0000000  -0.0000000  -0.0282337
 Using SG-1 standard quadrature grid
 
 Atom He has  50 radial points,  3752 total points
 Sphere   Radius      Weight      NAng
 ------   ------      ------      ----
    1    2.35D-04    2.66D-11       6
    2    9.80D-04    9.80D-10       6
    3    2.30D-03    8.59D-09       6
    4    4.26D-03    4.20D-08       6
    5    6.95D-03    1.49D-07       6
    6    1.05D-02    4.32D-07       6
    7    1.49D-02    1.09D-06       6
    8    2.04D-02    2.50D-06       6
    9    2.70D-02    5.32D-06       6
   10    3.50D-02    1.07D-05       6
   11    4.45D-02    2.04D-05       6
   12    5.57D-02    3.76D-05       6
   13    6.88D-02    6.74D-05       6
   14    8.42D-02    1.18D-04       6
   15    1.02D-01    2.01D-04       6
   16    1.23D-01    3.38D-04       6
   17    1.47D-01    5.61D-04      38
   18    1.75D-01    9.20D-04      38
   19    2.07D-01    1.50D-03      38
   20    2.45D-01    2.41D-03      38
   21    2.88D-01    3.88D-03      38
   22    3.39D-01    6.20D-03      86
   23    3.97D-01    9.90D-03      86
   24    4.65D-01    1.58D-02      86
   25    5.44D-01    2.52D-02      86
   26    6.36D-01    4.04D-02     194
   27    7.44D-01    6.50D-02     194
   28    8.72D-01    1.05D-01     194
   29    1.02D+00    1.71D-01     194
   30    1.20D+00    2.80D-01     194
   31    1.41D+00    4.64D-01     194
   32    1.67D+00    7.79D-01     194
   33    1.98D+00    1.33D+00     194
   34    2.35D+00    2.30D+00     194
   35    2.81D+00    4.06D+00      86
   36    3.39D+00    7.35D+00      86
   37    4.11D+00    1.37D+01      86
   38    5.03D+00    2.62D+01      86
   39    6.21D+00    5.23D+01      86
   40    7.78D+00    1.09D+02      86
   41    9.89D+00    2.41D+02      86
   42    1.28D+01    5.67D+02      86
   43    1.70D+01    1.46D+03      86
   44    2.32D+01    4.16D+03      86
   45    3.31D+01    1.37D+04      86
   46    4.98D+01    5.47D+04      86
   47    8.12D+01    2.91D+05      86
   48    1.51D+02    2.42D+06      86
   49    3.53D+02    4.58D+07      86
   50    1.47D+03    6.49D+09      86
 
 CutRad removed 11 radial spheres (   946 points) from atom He
 
 Atom He has  39 radial points,  2806 total points
 Sphere   Radius      Weight      NAng
 ------   ------      ------      ----
    1    2.35D-04    2.66D-11       6
    2    9.80D-04    9.80D-10       6
    3    2.30D-03    8.59D-09       6
    4    4.26D-03    4.20D-08       6
    5    6.95D-03    1.49D-07       6
    6    1.05D-02    4.32D-07       6
    7    1.49D-02    1.09D-06       6
    8    2.04D-02    2.50D-06       6
    9    2.70D-02    5.32D-06       6
   10    3.50D-02    1.07D-05       6
   11    4.45D-02    2.04D-05       6
   12    5.57D-02    3.76D-05       6
   13    6.88D-02    6.74D-05       6
   14    8.42D-02    1.18D-04       6
   15    1.02D-01    2.01D-04       6
   16    1.23D-01    3.38D-04       6
   17    1.47D-01    5.61D-04      38
   18    1.75D-01    9.20D-04      38
   19    2.07D-01    1.50D-03      38
   20    2.45D-01    2.41D-03      38
   21    2.88D-01    3.88D-03      38
   22    3.39D-01    6.20D-03      86
   23    3.97D-01    9.90D-03      86
   24    4.65D-01    1.58D-02      86
   25    5.44D-01    2.52D-02      86
   26    6.36D-01    4.04D-02     194
   27    7.44D-01    6.50D-02     194
   28    8.72D-01    1.05D-01     194
   29    1.02D+00    1.71D-01     194
   30    1.20D+00    2.80D-01     194
   31    1.41D+00    4.64D-01     194
   32    1.67D+00    7.79D-01     194
   33    1.98D+00    1.33D+00     194
   34    2.35D+00    2.30D+00     194
   35    2.81D+00    4.06D+00      86
   36    3.39D+00    7.35D+00      86
   37    4.11D+00    1.37D+01      86
   38    5.03D+00    2.62D+01      86
   39    6.21D+00    5.23D+01      86
 
 Electron Count = 1.9999999977
 Alpha XC Matrix
            1           2           3           4           5
    1  -0.6142479  -0.2808955   0.0000000  -0.0000000  -0.0000000
    2  -0.2808955  -0.2094541   0.0000002  -0.0000003  -0.0000002
    3   0.0000000   0.0000002  -0.3649855   0.0000000   0.0000000
    4  -0.0000000  -0.0000003   0.0000000  -0.3649855  -0.0000000
    5  -0.0000000  -0.0000002   0.0000000  -0.0000000  -0.3649855
 Calculated Alpha Fock Matrix
            1           2           3           4           5
    1  -0.4426819  -0.8450345   0.0000000  -0.0000000  -0.0000000
    2  -0.8450345  -0.3356031   0.0000002  -0.0000003  -0.0000002
    3   0.0000000   0.0000002   2.3107479   0.0000000   0.0000000
    4  -0.0000000  -0.0000003   0.0000000   2.3107479  -0.0000000
    5  -0.0000000  -0.0000002   0.0000000  -0.0000000   2.3107479
 Extrapolated Alpha Fock Matrix
            1           2           3           4           5
    1  -0.4423776  -0.8443729   0.0000000  -0.0000000  -0.0000000
    2  -0.8443729  -0.3348777   0.0000000  -0.0000000  -0.0000000
    3   0.0000000   0.0000000   2.3107428   0.0000000   0.0000000
    4  -0.0000000  -0.0000000   0.0000000   2.3107428  -0.0000000
    5  -0.0000000  -0.0000000   0.0000000  -0.0000000   2.3107428
 Alpha MO Eigenvalues
            1           2           3           4           5
    1  -0.7569259   1.2481896   2.3107428   2.3107428   2.3107428
 Alpha MO Coefficients
            1           2           3           4           5
    1   0.5933651  -1.1491869   0.0000000  -0.0000000   0.0000000
    2   0.5122532   1.1875645  -0.0000000   0.0000000  -0.0000000
    3  -0.0000000  -0.0000000  -0.0002572   1.0000000   0.0001179
    4   0.0000000   0.0000000   1.0000000   0.0002572  -0.0000371
    5   0.0000000   0.0000000   0.0000371  -0.0001179   1.0000000
 Alpha Density Matrix
            1           2           3           4           5
    1   0.3520821   0.3039532  -0.0000000   0.0000000   0.0000000
    2   0.3039532   0.2624033  -0.0000000   0.0000000   0.0000000
    3  -0.0000000  -0.0000000   0.0000000  -0.0000000  -0.0000000
    4   0.0000000   0.0000000  -0.0000000   0.0000000   0.0000000
    5   0.0000000   0.0000000  -0.0000000   0.0000000   0.0000000
    4      -2.8964609257      1.76E-04
 Coulomb Matrix
            1           2           3           4           5
    1   2.4625996   1.3213917  -0.0000000   0.0000000   0.0000000
    2   1.3213917   1.4674335  -0.0000000   0.0000000   0.0000000
    3  -0.0000000  -0.0000000   1.9231244  -0.0000000  -0.0000000
    4   0.0000000   0.0000000  -0.0000000   1.9231244   0.0000000
    5   0.0000000   0.0000000  -0.0000000   0.0000000   1.9231244
 Long-Range Alpha Exchange Matrix
            1           2           3           4           5
    1  -0.2756589  -0.2582111   0.0000000  -0.0000000  -0.0000000
    2  -0.2582111  -0.2423329   0.0000000  -0.0000000  -0.0000000
    3   0.0000000   0.0000000  -0.0041547   0.0000000   0.0000000
    4  -0.0000000  -0.0000000   0.0000000  -0.0041547  -0.0000000
    5  -0.0000000  -0.0000000   0.0000000  -0.0000000  -0.0041547
 Short-Range Alpha Exchange Matrix
            1           2           3           4           5
    1  -0.1351221  -0.0815308   0.0000000  -0.0000000  -0.0000000
    2  -0.0815308  -0.0565785   0.0000000  -0.0000000  -0.0000000
    3   0.0000000   0.0000000  -0.0282337   0.0000000   0.0000000
    4  -0.0000000  -0.0000000   0.0000000  -0.0282337  -0.0000000
    5  -0.0000000  -0.0000000   0.0000000  -0.0000000  -0.0282337
 Using SG-1 standard quadrature grid
 
 Atom He has  50 radial points,  3752 total points
 Sphere   Radius      Weight      NAng
 ------   ------      ------      ----
    1    2.35D-04    2.66D-11       6
    2    9.80D-04    9.80D-10       6
    3    2.30D-03    8.59D-09       6
    4    4.26D-03    4.20D-08       6
    5    6.95D-03    1.49D-07       6
    6    1.05D-02    4.32D-07       6
    7    1.49D-02    1.09D-06       6
    8    2.04D-02    2.50D-06       6
    9    2.70D-02    5.32D-06       6
   10    3.50D-02    1.07D-05       6
   11    4.45D-02    2.04D-05       6
   12    5.57D-02    3.76D-05       6
   13    6.88D-02    6.74D-05       6
   14    8.42D-02    1.18D-04       6
   15    1.02D-01    2.01D-04       6
   16    1.23D-01    3.38D-04       6
   17    1.47D-01    5.61D-04      38
   18    1.75D-01    9.20D-04      38
   19    2.07D-01    1.50D-03      38
   20    2.45D-01    2.41D-03      38
   21    2.88D-01    3.88D-03      38
   22    3.39D-01    6.20D-03      86
   23    3.97D-01    9.90D-03      86
   24    4.65D-01    1.58D-02      86
   25    5.44D-01    2.52D-02      86
   26    6.36D-01    4.04D-02     194
   27    7.44D-01    6.50D-02     194
   28    8.72D-01    1.05D-01     194
   29    1.02D+00    1.71D-01     194
   30    1.20D+00    2.80D-01     194
   31    1.41D+00    4.64D-01     194
   32    1.67D+00    7.79D-01     194
   33    1.98D+00    1.33D+00     194
   34    2.35D+00    2.30D+00     194
   35    2.81D+00    4.06D+00      86
   36    3.39D+00    7.35D+00      86
   37    4.11D+00    1.37D+01      86
   38    5.03D+00    2.62D+01      86
   39    6.21D+00    5.23D+01      86
   40    7.78D+00    1.09D+02      86
   41    9.89D+00    2.41D+02      86
   42    1.28D+01    5.67D+02      86
   43    1.70D+01    1.46D+03      86
   44    2.32D+01    4.16D+03      86
   45    3.31D+01    1.37D+04      86
   46    4.98D+01    5.47D+04      86
   47    8.12D+01    2.91D+05      86
   48    1.51D+02    2.42D+06      86
   49    3.53D+02    4.58D+07      86
   50    1.47D+03    6.49D+09      86
 
 CutRad removed 11 radial spheres (   946 points) from atom He
 
 Atom He has  39 radial points,  2806 total points
 Sphere   Radius      Weight      NAng
 ------   ------      ------      ----
    1    2.35D-04    2.66D-11       6
    2    9.80D-04    9.80D-10       6
    3    2.30D-03    8.59D-09       6
    4    4.26D-03    4.20D-08       6
    5    6.95D-03    1.49D-07       6
    6    1.05D-02    4.32D-07       6
    7    1.49D-02    1.09D-06       6
    8    2.04D-02    2.50D-06       6
    9    2.70D-02    5.32D-06       6
   10    3.50D-02    1.07D-05       6
   11    4.45D-02    2.04D-05       6
   12    5.57D-02    3.76D-05       6
   13    6.88D-02    6.74D-05       6
   14    8.42D-02    1.18D-04       6
   15    1.02D-01    2.01D-04       6
   16    1.23D-01    3.38D-04       6
   17    1.47D-01    5.61D-04      38
   18    1.75D-01    9.20D-04      38
   19    2.07D-01    1.50D-03      38
   20    2.45D-01    2.41D-03      38
   21    2.88D-01    3.88D-03      38
   22    3.39D-01    6.20D-03      86
   23    3.97D-01    9.90D-03      86
   24    4.65D-01    1.58D-02      86
   25    5.44D-01    2.52D-02      86
   26    6.36D-01    4.04D-02     194
   27    7.44D-01    6.50D-02     194
   28    8.72D-01    1.05D-01     194
   29    1.02D+00    1.71D-01     194
   30    1.20D+00    2.80D-01     194
   31    1.41D+00    4.64D-01     194
   32    1.67D+00    7.79D-01     194
   33    1.98D+00    1.33D+00     194
   34    2.35D+00    2.30D+00     194
   35    2.81D+00    4.06D+00      86
   36    3.39D+00    7.35D+00      86
   37    4.11D+00    1.37D+01      86
   38    5.03D+00    2.62D+01      86
   39    6.21D+00    5.23D+01      86
 
 Electron Count = 1.9999999977
 Alpha XC Matrix
            1           2           3           4           5
    1  -0.6142479  -0.2808955   0.0000000  -0.0000000  -0.0000000
    2  -0.2808955  -0.2094541   0.0000002  -0.0000003  -0.0000002
    3   0.0000000   0.0000002  -0.3649855   0.0000000   0.0000000
    4  -0.0000000  -0.0000003   0.0000000  -0.3649855  -0.0000000
    5  -0.0000000  -0.0000002   0.0000000  -0.0000000  -0.3649855
 Calculated Alpha Fock Matrix
            1           2           3           4           5
    1  -0.4426819  -0.8450345   0.0000000  -0.0000000  -0.0000000
    2  -0.8450345  -0.3356031   0.0000002  -0.0000003  -0.0000002
    3   0.0000000   0.0000002   2.3107479   0.0000000   0.0000000
    4  -0.0000000  -0.0000003   0.0000000   2.3107479  -0.0000000
    5  -0.0000000  -0.0000002   0.0000000  -0.0000000   2.3107479
 Extrapolated Alpha Fock Matrix
            1           2           3           4           5
    1  -0.4426819  -0.8450345   0.0000000  -0.0000000  -0.0000000
    2  -0.8450345  -0.3356031   0.0000002  -0.0000003  -0.0000002
    3   0.0000000   0.0000002   2.3107479   0.0000000   0.0000000
    4  -0.0000000  -0.0000003   0.0000000   2.3107479  -0.0000000
    5  -0.0000000  -0.0000002   0.0000000  -0.0000000   2.3107479
 Alpha MO Eigenvalues
            1           2           3           4           5
    1  -0.7576256   1.2485705   2.3107479   2.3107479   2.3107479
 Alpha MO Coefficients
            1           2           3           4           5
    1   0.5931872  -1.1492787   0.0000004   0.0000002   0.0000000
    2   0.5124369   1.1874852  -0.0000005  -0.0000002  -0.0000000
    3  -0.0000000  -0.0000002  -0.4442653  -0.0229093   0.8956023
    4   0.0000001   0.0000003   0.4003979   0.8892017   0.2213638
    5   0.0000000   0.0000002   0.8014423  -0.4569415   0.3858686
 Alpha Density Matrix
            1           2           3           4           5
    1   0.3518711   0.3039711  -0.0000000   0.0000000   0.0000000
    2   0.3039711   0.2625916  -0.0000000   0.0000000   0.0000000
    3  -0.0000000  -0.0000000   0.0000000  -0.0000000  -0.0000000
    4   0.0000000   0.0000000  -0.0000000   0.0000000   0.0000000
    5   0.0000000   0.0000000  -0.0000000   0.0000000   0.0000000
    5      -2.8964609256      1.76E-04
 Coulomb Matrix
            1           2           3           4           5
    1   2.4623072   1.3212702  -0.0000000   0.0000000   0.0000000
    2   1.3212702   1.4673603  -0.0000000   0.0000000   0.0000000
    3  -0.0000000  -0.0000000   1.9229818  -0.0000000  -0.0000000
    4   0.0000000   0.0000000  -0.0000000   1.9229818   0.0000000
    5   0.0000000   0.0000000  -0.0000000   0.0000000   1.9229818
 Long-Range Alpha Exchange Matrix
            1           2           3           4           5
    1  -0.2756211  -0.2582122   0.0000000  -0.0000000  -0.0000000
    2  -0.2582122  -0.2423684   0.0000000  -0.0000000  -0.0000000
    3   0.0000000   0.0000000  -0.0041550   0.0000000   0.0000000
    4  -0.0000000  -0.0000000   0.0000000  -0.0041550  -0.0000000
    5  -0.0000000  -0.0000000   0.0000000  -0.0000000  -0.0041550
 Short-Range Alpha Exchange Matrix
            1           2           3           4           5
    1  -0.1350938  -0.0815221   0.0000000  -0.0000000  -0.0000000
    2  -0.0815221  -0.0565797   0.0000000  -0.0000000  -0.0000000
    3   0.0000000   0.0000000  -0.0282324   0.0000000   0.0000000
    4  -0.0000000  -0.0000000   0.0000000  -0.0282324  -0.0000000
    5  -0.0000000  -0.0000000   0.0000000  -0.0000000  -0.0282324
 Using SG-1 standard quadrature grid
 
 Atom He has  50 radial points,  3752 total points
 Sphere   Radius      Weight      NAng
 ------   ------      ------      ----
    1    2.35D-04    2.66D-11       6
    2    9.80D-04    9.80D-10       6
    3    2.30D-03    8.59D-09       6
    4    4.26D-03    4.20D-08       6
    5    6.95D-03    1.49D-07       6
    6    1.05D-02    4.32D-07       6
    7    1.49D-02    1.09D-06       6
    8    2.04D-02    2.50D-06       6
    9    2.70D-02    5.32D-06       6
   10    3.50D-02    1.07D-05       6
   11    4.45D-02    2.04D-05       6
   12    5.57D-02    3.76D-05       6
   13    6.88D-02    6.74D-05       6
   14    8.42D-02    1.18D-04       6
   15    1.02D-01    2.01D-04       6
   16    1.23D-01    3.38D-04       6
   17    1.47D-01    5.61D-04      38
   18    1.75D-01    9.20D-04      38
   19    2.07D-01    1.50D-03      38
   20    2.45D-01    2.41D-03      38
   21    2.88D-01    3.88D-03      38
   22    3.39D-01    6.20D-03      86
   23    3.97D-01    9.90D-03      86
   24    4.65D-01    1.58D-02      86
   25    5.44D-01    2.52D-02      86
   26    6.36D-01    4.04D-02     194
   27    7.44D-01    6.50D-02     194
   28    8.72D-01    1.05D-01     194
   29    1.02D+00    1.71D-01     194
   30    1.20D+00    2.80D-01     194
   31    1.41D+00    4.64D-01     194
   32    1.67D+00    7.79D-01     194
   33    1.98D+00    1.33D+00     194
   34    2.35D+00    2.30D+00     194
   35    2.81D+00    4.06D+00      86
   36    3.39D+00    7.35D+00      86
   37    4.11D+00    1.37D+01      86
   38    5.03D+00    2.62D+01      86
   39    6.21D+00    5.23D+01      86
   40    7.78D+00    1.09D+02      86
   41    9.89D+00    2.41D+02      86
   42    1.28D+01    5.67D+02      86
   43    1.70D+01    1.46D+03      86
   44    2.32D+01    4.16D+03      86
   45    3.31D+01    1.37D+04      86
   46    4.98D+01    5.47D+04      86
   47    8.12D+01    2.91D+05      86
   48    1.51D+02    2.42D+06      86
   49    3.53D+02    4.58D+07      86
   50    1.47D+03    6.49D+09      86
 
 CutRad removed 11 radial spheres (   946 points) from atom He
 
 Atom He has  39 radial points,  2806 total points
 Sphere   Radius      Weight      NAng
 ------   ------      ------      ----
    1    2.35D-04    2.66D-11       6
    2    9.80D-04    9.80D-10       6
    3    2.30D-03    8.59D-09       6
    4    4.26D-03    4.20D-08       6
    5    6.95D-03    1.49D-07       6
    6    1.05D-02    4.32D-07       6
    7    1.49D-02    1.09D-06       6
    8    2.04D-02    2.50D-06       6
    9    2.70D-02    5.32D-06       6
   10    3.50D-02    1.07D-05       6
   11    4.45D-02    2.04D-05       6
   12    5.57D-02    3.76D-05       6
   13    6.88D-02    6.74D-05       6
   14    8.42D-02    1.18D-04       6
   15    1.02D-01    2.01D-04       6
   16    1.23D-01    3.38D-04       6
   17    1.47D-01    5.61D-04      38
   18    1.75D-01    9.20D-04      38
   19    2.07D-01    1.50D-03      38
   20    2.45D-01    2.41D-03      38
   21    2.88D-01    3.88D-03      38
   22    3.39D-01    6.20D-03      86
   23    3.97D-01    9.90D-03      86
   24    4.65D-01    1.58D-02      86
   25    5.44D-01    2.52D-02      86
   26    6.36D-01    4.04D-02     194
   27    7.44D-01    6.50D-02     194
   28    8.72D-01    1.05D-01     194
   29    1.02D+00    1.71D-01     194
   30    1.20D+00    2.80D-01     194
   31    1.41D+00    4.64D-01     194
   32    1.67D+00    7.79D-01     194
   33    1.98D+00    1.33D+00     194
   34    2.35D+00    2.30D+00     194
   35    2.81D+00    4.06D+00      86
   36    3.39D+00    7.35D+00      86
   37    4.11D+00    1.37D+01      86
   38    5.03D+00    2.62D+01      86
   39    6.21D+00    5.23D+01      86
 
 Electron Count = 1.9999999942
 Alpha XC Matrix
            1           2           3           4           5
    1  -0.6141929  -0.2808796   0.0000000  -0.0000000  -0.0000001
    2  -0.2808796  -0.2094761   0.0000001  -0.0000005  -0.0000003
    3   0.0000000   0.0000001  -0.3649694  -0.0000000   0.0000000
    4  -0.0000000  -0.0000005  -0.0000000  -0.3649695  -0.0000000
    5  -0.0000001  -0.0000003   0.0000000  -0.0000000  -0.3649695
 Calculated Alpha Fock Matrix
            1           2           3           4           5
    1  -0.4428533  -0.8451325  -0.0000000  -0.0000000  -0.0000000
    2  -0.8451325  -0.3357350   0.0000001  -0.0000004  -0.0000003
    3  -0.0000000   0.0000001   2.3106223  -0.0000000   0.0000000
    4  -0.0000000  -0.0000004  -0.0000000   2.3106222  -0.0000000
    5  -0.0000000  -0.0000003   0.0000000  -0.0000000   2.3106222
 Extrapolated Alpha Fock Matrix
            1           2           3           4           5
    1  -0.4428404  -0.8451251  -0.0000000  -0.0000000  -0.0000000
    2  -0.8451251  -0.3357251   0.0000001  -0.0000004  -0.0000003
    3  -0.0000000   0.0000001   2.3106317  -0.0000000   0.0000000
    4  -0.0000000  -0.0000004  -0.0000000   2.3106317  -0.0000000
    5  -0.0000000  -0.0000003   0.0000000  -0.0000000   2.3106317
 Alpha MO Eigenvalues
            1           2           3           4           5
    1  -0.7577685   1.2484366   2.3106316   2.3106317   2.3106317
 Alpha MO Coefficients
            1           2           3           4           5
    1   0.5932006  -1.1492718   0.0000006   0.0000000  -0.0000000
    2   0.5124231   1.1874912  -0.0000007  -0.0000000   0.0000000
    3  -0.0000000  -0.0000001  -0.1110927  -0.5814490   0.8059625
    4   0.0000001   0.0000005   0.8133672  -0.5191875  -0.2624464
    5   0.0000001   0.0000003   0.5710448   0.6263876   0.5306094
 Alpha Density Matrix
            1           2           3           4           5
    1   0.3518870   0.3039697  -0.0000000   0.0000000   0.0000000
    2   0.3039697   0.2625775  -0.0000000   0.0000000   0.0000000
    3  -0.0000000  -0.0000000   0.0000000  -0.0000000  -0.0000000
    4   0.0000000   0.0000000  -0.0000000   0.0000000   0.0000000
    5   0.0000000   0.0000000  -0.0000000   0.0000000   0.0000000
    6      -2.8964610123      1.43E-05
 Coulomb Matrix
            1           2           3           4           5
    1   2.4623292   1.3212793  -0.0000000   0.0000001   0.0000000
    2   1.3212793   1.4673658  -0.0000000   0.0000000   0.0000000
    3  -0.0000000  -0.0000000   1.9229926  -0.0000000  -0.0000000
    4   0.0000001   0.0000000  -0.0000000   1.9229926   0.0000000
    5   0.0000000   0.0000000  -0.0000000   0.0000000   1.9229926
 Long-Range Alpha Exchange Matrix
            1           2           3           4           5
    1  -0.2756239  -0.2582122   0.0000000  -0.0000000  -0.0000000
    2  -0.2582122  -0.2423657   0.0000000  -0.0000000  -0.0000000
    3   0.0000000   0.0000000  -0.0041550   0.0000000   0.0000000
    4  -0.0000000  -0.0000000   0.0000000  -0.0041550  -0.0000000
    5  -0.0000000  -0.0000000   0.0000000  -0.0000000  -0.0041550
 Short-Range Alpha Exchange Matrix
            1           2           3           4           5
    1  -0.1350959  -0.0815227   0.0000000  -0.0000000  -0.0000000
    2  -0.0815227  -0.0565796   0.0000000  -0.0000000  -0.0000000
    3   0.0000000   0.0000000  -0.0282325   0.0000000   0.0000000
    4  -0.0000000  -0.0000000   0.0000000  -0.0282325  -0.0000000
    5  -0.0000000  -0.0000000   0.0000000  -0.0000000  -0.0282325
 Using SG-1 standard quadrature grid
 
 Atom He has  50 radial points,  3752 total points
 Sphere   Radius      Weight      NAng
 ------   ------      ------      ----
    1    2.35D-04    2.66D-11       6
    2    9.80D-04    9.80D-10       6
    3    2.30D-03    8.59D-09       6
    4    4.26D-03    4.20D-08       6
    5    6.95D-03    1.49D-07       6
    6    1.05D-02    4.32D-07       6
    7    1.49D-02    1.09D-06       6
    8    2.04D-02    2.50D-06       6
    9    2.70D-02    5.32D-06       6
   10    3.50D-02    1.07D-05       6
   11    4.45D-02    2.04D-05       6
   12    5.57D-02    3.76D-05       6
   13    6.88D-02    6.74D-05       6
   14    8.42D-02    1.18D-04       6
   15    1.02D-01    2.01D-04       6
   16    1.23D-01    3.38D-04       6
   17    1.47D-01    5.61D-04      38
   18    1.75D-01    9.20D-04      38
   19    2.07D-01    1.50D-03      38
   20    2.45D-01    2.41D-03      38
   21    2.88D-01    3.88D-03      38
   22    3.39D-01    6.20D-03      86
   23    3.97D-01    9.90D-03      86
   24    4.65D-01    1.58D-02      86
   25    5.44D-01    2.52D-02      86
   26    6.36D-01    4.04D-02     194
   27    7.44D-01    6.50D-02     194
   28    8.72D-01    1.05D-01     194
   29    1.02D+00    1.71D-01     194
   30    1.20D+00    2.80D-01     194
   31    1.41D+00    4.64D-01     194
   32    1.67D+00    7.79D-01     194
   33    1.98D+00    1.33D+00     194
   34    2.35D+00    2.30D+00     194
   35    2.81D+00    4.06D+00      86
   36    3.39D+00    7.35D+00      86
   37    4.11D+00    1.37D+01      86
   38    5.03D+00    2.62D+01      86
   39    6.21D+00    5.23D+01      86
   40    7.78D+00    1.09D+02      86
   41    9.89D+00    2.41D+02      86
   42    1.28D+01    5.67D+02      86
   43    1.70D+01    1.46D+03      86
   44    2.32D+01    4.16D+03      86
   45    3.31D+01    1.37D+04      86
   46    4.98D+01    5.47D+04      86
   47    8.12D+01    2.91D+05      86
   48    1.51D+02    2.42D+06      86
   49    3.53D+02    4.58D+07      86
   50    1.47D+03    6.49D+09      86
 
 CutRad removed 11 radial spheres (   946 points) from atom He
 
 Atom He has  39 radial points,  2806 total points
 Sphere   Radius      Weight      NAng
 ------   ------      ------      ----
    1    2.35D-04    2.66D-11       6
    2    9.80D-04    9.80D-10       6
    3    2.30D-03    8.59D-09       6
    4    4.26D-03    4.20D-08       6
    5    6.95D-03    1.49D-07       6
    6    1.05D-02    4.32D-07       6
    7    1.49D-02    1.09D-06       6
    8    2.04D-02    2.50D-06       6
    9    2.70D-02    5.32D-06       6
   10    3.50D-02    1.07D-05       6
   11    4.45D-02    2.04D-05       6
   12    5.57D-02    3.76D-05       6
   13    6.88D-02    6.74D-05       6
   14    8.42D-02    1.18D-04       6
   15    1.02D-01    2.01D-04       6
   16    1.23D-01    3.38D-04       6
   17    1.47D-01    5.61D-04      38
   18    1.75D-01    9.20D-04      38
   19    2.07D-01    1.50D-03      38
   20    2.45D-01    2.41D-03      38
   21    2.88D-01    3.88D-03      38
   22    3.39D-01    6.20D-03      86
   23    3.97D-01    9.90D-03      86
   24    4.65D-01    1.58D-02      86
   25    5.44D-01    2.52D-02      86
   26    6.36D-01    4.04D-02     194
   27    7.44D-01    6.50D-02     194
   28    8.72D-01    1.05D-01     194
   29    1.02D+00    1.71D-01     194
   30    1.20D+00    2.80D-01     194
   31    1.41D+00    4.64D-01     194
   32    1.67D+00    7.79D-01     194
   33    1.98D+00    1.33D+00     194
   34    2.35D+00    2.30D+00     194
   35    2.81D+00    4.06D+00      86
   36    3.39D+00    7.35D+00      86
   37    4.11D+00    1.37D+01      86
   38    5.03D+00    2.62D+01      86
   39    6.21D+00    5.23D+01      86
 
 Electron Count = 1.9999999940
 Alpha XC Matrix
            1           2           3           4           5
    1  -0.6141936  -0.2808797  -0.0000000  -0.0000001  -0.0000001
    2  -0.2808797  -0.2094757   0.0000001  -0.0000004  -0.0000002
    3  -0.0000000   0.0000001  -0.3649695  -0.0000000   0.0000000
    4  -0.0000001  -0.0000004  -0.0000000  -0.3649696  -0.0000000
    5  -0.0000001  -0.0000002   0.0000000  -0.0000000  -0.3649695
 Calculated Alpha Fock Matrix
            1           2           3           4           5
    1  -0.4428369  -0.8451241  -0.0000000  -0.0000000  -0.0000001
    2  -0.8451241  -0.3357263   0.0000001  -0.0000004  -0.0000002
    3  -0.0000000   0.0000001   2.3106328  -0.0000000   0.0000000
    4  -0.0000000  -0.0000004  -0.0000000   2.3106328  -0.0000000
    5  -0.0000001  -0.0000002   0.0000000  -0.0000000   2.3106328
 Extrapolated Alpha Fock Matrix
            1           2           3           4           5
    1  -0.4428390  -0.8451250  -0.0000000  -0.0000000  -0.0000001
    2  -0.8451250  -0.3357268   0.0000001  -0.0000004  -0.0000003
    3  -0.0000000   0.0000001   2.3106317  -0.0000000   0.0000000
    4  -0.0000000  -0.0000004  -0.0000000   2.3106317  -0.0000000
    5  -0.0000001  -0.0000003   0.0000000  -0.0000000   2.3106317
 Alpha MO Eigenvalues
            1           2           3           4           5
    1  -0.7577684   1.2484355   2.3106317   2.3106317   2.3106317
 Alpha MO Coefficients
            1           2           3           4           5
    1   0.5931995  -1.1492724   0.0000005   0.0000000  -0.0000001
    2   0.5124243   1.1874906  -0.0000006  -0.0000000   0.0000001
    3  -0.0000000  -0.0000001  -0.1246546  -0.5818827   0.8036627
    4   0.0000001   0.0000004   0.8207820  -0.5155679  -0.2459810
    5   0.0000001   0.0000002   0.5574747   0.6289693   0.5418668
 Alpha Density Matrix
            1           2           3           4           5
    1   0.3518856   0.3039698  -0.0000000   0.0000000   0.0000000
    2   0.3039698   0.2625787  -0.0000000   0.0000000   0.0000000
    3  -0.0000000  -0.0000000   0.0000000  -0.0000000  -0.0000000
    4   0.0000000   0.0000000  -0.0000000   0.0000000   0.0000000
    5   0.0000000   0.0000000  -0.0000000   0.0000000   0.0000000
    7      -2.8964610129      1.69E-06 Convergence criterion met
 ---------------------------------------
 One-Electron    Energy =    -3.8826676332
 Total Coulomb   Energy =     2.0550165206
 Alpha Exchange  Energy =    -0.2147807596
 Beta  Exchange  Energy =    -0.2147807596
 DFT   Exchange  Energy =    -0.5930627311
 DFT Correlation Energy =    -0.0461856500
 Nuclear Repu.   Energy =     0.0000000000
 Nuclear Attr.   Energy =    -6.7412323088
 Kinetic         Energy =     2.8585646756
 SCF time:  CPU 0.15 s  wall 0.23 s
 Analysis of SCF Wavefunction
 
 --------------------------------------------------------------
                    Orbital Energies (a.u.)
 --------------------------------------------------------------
 
 Alpha MOs
 -- Occupied --
 -0.758
 -- Virtual --
  1.248   2.311   2.311   2.311
 --------------------------------------------------------------
 
          Ground-State Mulliken Net Atomic Charges

     Atom                 Charge (a.u.)
  ----------------------------------------
      1 He                    0.000000
  ----------------------------------------
  Sum of atomic charges =     0.000000

 -----------------------------------------------------------------
                    Cartesian Multipole Moments
 -----------------------------------------------------------------
    Charge (ESU x 10^10)
                 0.0000
    Dipole Moment (Debye)
         X       0.0000      Y       0.0000      Z       0.0000
       Tot       0.0000
    Quadrupole Moments (Debye-Ang)
        XX      -1.0415     XY       0.0000     YY      -1.0415
        XZ       0.0000     YZ       0.0000     ZZ      -1.0415
    Octapole Moments (Debye-Ang^2)
       XXX       0.0000    XXY       0.0000    XYY       0.0000
       YYY       0.0000    XXZ       0.0000    XYZ       0.0000
       YYZ       0.0000    XZZ       0.0000    YZZ       0.0000
       ZZZ       0.0000
    Hexadecapole Moments (Debye-Ang^3)
      XXXX      -0.5219   XXXY       0.0000   XXYY      -0.1740
      XYYY       0.0000   YYYY      -0.5219   XXXZ       0.0000
      XXYZ       0.0000   XYYZ       0.0000   YYYZ       0.0000
      XXZZ      -0.1740   XYZZ       0.0000   YYZZ      -0.1740
      XZZZ       0.0000   YZZZ       0.0000   ZZZZ      -0.5219
 -----------------------------------------------------------------
Archival summary:
1\1\ender\SP\ProcedureUnspecified\BasisUnspecified\He1\parrish\10Aug2011\0\\#,ProcedureUnspecified,BasisUnspecified,\\0,1\He\\\@

 Total job time:  0.27s(wall), 0.18s(cpu) 
 Wed Aug 10 10:30:35 2011

        *************************************************************
        *                                                           *
        *  Thank you very much for using Q-Chem.  Have a nice day.  *
        *                                                           *
        *************************************************************


