
    -----------------------------------------------------------------------
          Psi4: An Open-Source Ab Initio Electronic Structure Package
                               Psi4 1.1a2.dev250 

                         Git: Rev {mp2qmmm} e6887c2 dirty


    J. M. Turney, A. C. Simmonett, R. M. Parrish, E. G. Hohenstein,
    F. A. Evangelista, J. T. Fermann, B. J. Mintz, L. A. Burns, J. J. Wilke,
    M. L. Abrams, N. J. Russ, M. L. Leininger, C. L. Janssen, E. T. Seidl,
    W. D. Allen, H. F. Schaefer, R. A. King, E. F. Valeev, C. D. Sherrill,
    and T. D. Crawford, WIREs Comput. Mol. Sci. 2, 556-565 (2012)
    (doi: 10.1002/wcms.93)


                         Additional Contributions by
    A. E. DePrince, U. Bozkaya, A. Yu. Sokolov, D. G. A. Smith, R. Di Remigio,
    R. M. Richard, J. F. Gonthier, H. R. McAlexander, M. Saitow, and
    B. P. Pritchard
    -----------------------------------------------------------------------


    Psi4 started on: Friday, 17 February 2017 09:38AM

    Process ID:  63321
    PSIDATADIR: /Users/andysim/programming/psi4/obj_debug/stage/usr/local/psi4/share/psi4
    Memory:     500.0 MiB
    Threads:    1
    
  ==> Input File <==

--------------------------------------------------------------------------
#! External potential calculation involving a TIP3P water and a QM water for DFMP2.
#! Finite different test of the gradient is performed to validate forces.
memory 500 mb

molecule water {
  0 1
  O  -0.778803000000  0.000000000000  1.132683000000
  H  -0.666682000000  0.764099000000  1.706291000000
  H  -0.666682000000  -0.764099000000  1.706290000000
  symmetry c1
  no_reorient
  no_com
}

# Define a TIP3P water as the external potential
Chrgfield = QMMM()
Chrgfield.extern.addCharge(-0.834,1.649232019048,0.0,-2.356023604706)
Chrgfield.extern.addCharge(0.417,0.544757019107,0.0,-3.799961446760)
Chrgfield.extern.addCharge(0.417,0.544757019107,0.0,-0.912085762652)
psi4.set_global_option_python('EXTERN', Chrgfield.extern)

set {
    scf_type df
    d_convergence 8
    basis 6-31G*
}

fd_grad = gradient('mp2', molecule=water, dertype=0)
fd_ener = psi4.get_variable('CURRENT ENERGY')
an_grad = gradient('mp2', molecule=water)
an_ener = psi4.get_variable('CURRENT ENERGY')

compare_matrices(an_grad, fd_grad, 5, "Finite difference (3-pt.) vs. analytic gradient to 10^-5") #TEST
compare_values(-76.2080976129895618, fd_ener, 6, 'Finite difference energy')  #TEST
compare_values(-76.2080976129895618, an_ener, 6, 'Analytic energy')  #TEST
--------------------------------------------------------------------------

  Memory set to 500.000 MiB by Python script.
gradient() will perform gradient computation by finite difference of analytic energies.

-------------------------------------------------------------

  Using finite-differences of energies to determine gradients (fd_geoms_1_0).
	Generating geometries for use with 3-point formula.
	Displacement size will be 5.00e-03.
	Number of atoms is 3.
	Number of symmetric SALC's is 9.
	Number of displacements (including reference) is 19.

-------------------------------------------------------------

  //>>>>>>>>>>>>>>>>>>>>>>>>>>>>>>>>>>>//
  //    Loading displacement 1 of 19   //
  //<<<<<<<<<<<<<<<<<<<<<<<<<<<<<<<<<<<//

*** tstart() called on QuickSilver.local
*** at Fri Feb 17 09:38:19 2017


         ---------------------------------------------------------
                                   SCF
            by Justin Turney, Rob Parrish, and Andy Simmonett
                              RHF Reference
                        1 Threads,    500 MiB Core
         ---------------------------------------------------------

  ==> Geometry <==

    Molecular point group: c1
    Full point group: C1

    Geometry (in Angstrom), charge = 0, multiplicity = 1:

       Center              X                  Y                   Z               Mass       
    ------------   -----------------  -----------------  -----------------  -----------------
           O         -0.779464576656     0.000000000000     1.132683000000    15.994914619560
           H         -0.666682000000     0.764099000000     1.706291000000     1.007825032070
           H         -0.666682000000    -0.764099000000     1.706290000000     1.007825032070

  Running in c1 symmetry.

  Rotational constants: A =     11.49101  B =      0.45557  C =      0.44491 [cm^-1]
  Rotational constants: A = 344491.84174  B =  13657.68756  C =  13338.09317 [MHz]
  Nuclear repulsion =    9.146852154519253

  Charge       = 0
  Multiplicity = 1
  Electrons    = 10
  Nalpha       = 5
  Nbeta        = 5

  ==> Algorithm <==

  SCF Algorithm Type is DF.
  DIIS enabled.
  MOM disabled.
  Fractional occupation disabled.
  Guess Type is SAD.
  Energy threshold   = 1.00e-10
  Density threshold  = 1.00e-08
  Integral threshold = 0.00e+00

  ==> Primary Basis <==

  Basis Set: file /Users/andysim/programming/psi4/obj_debug/stage/usr/local/psi4/share/psi4/basis/6-31gs.gbs
    Number of shells: 10
    Number of basis function: 19
    Number of Cartesian functions: 19
    Spherical Harmonics?: false
    Max angular momentum: 2

  ==> Pre-Iterations <==

   -------------------------------------------------------
    Irrep   Nso     Nmo     Nalpha   Nbeta   Ndocc  Nsocc
   -------------------------------------------------------
     A         19      19       0       0       0       0
   -------------------------------------------------------
    Total      19      19       5       5       5       0
   -------------------------------------------------------

  ==> Integral Setup <==

  ==> DFJK: Density-Fitted J/K Matrices <==

    J tasked:                  Yes
    K tasked:                  Yes
    wK tasked:                  No
    OpenMP threads:              1
    Integrals threads:           1
    Memory (MB):               357
    Algorithm:                Core
    Integral Cache:           NONE
    Schwarz Cutoff:          1E-12
    Fitting Condition:       1E-12

   => Auxiliary Basis Set <=

  Basis Set: file /Users/andysim/programming/psi4/obj_debug/stage/usr/local/psi4/share/psi4/basis/cc-pvdz-jkfit.gbs
    Number of shells: 42
    Number of basis function: 131
    Number of Cartesian functions: 131
    Spherical Harmonics?: false
    Max angular momentum: 3

   => External Potential Field:  <= 

    > Charges [a.u.] < 

              Z          x          y          z
       -0.83400    1.64923    0.00000   -2.35602
        0.41700    0.54476    0.00000   -3.79996
        0.41700    0.54476    0.00000   -0.91209

  Old nuclear repulsion        =    9.146852154519253
  Additional nuclear repulsion =    0.278873722228465
  Total nuclear repulsion      =    9.425725876747718

  Minimum eigenvalue in the overlap matrix is 2.2468778762E-02.
  Using Symmetric Orthogonalization.

  SCF Guess: Superposition of Atomic Densities via on-the-fly atomic UHF.

  ==> Iterations <==

                           Total Energy        Delta E     RMS |[F,P]|

   @DF-RHF iter   0:   -75.97687894906412   -7.59769e+01   8.80172e-02 
   @DF-RHF iter   1:   -75.98568693328436   -8.80798e-03   1.44320e-02 
   @DF-RHF iter   2:   -76.01201370202635   -2.63268e-02   7.30871e-03 DIIS
   @DF-RHF iter   3:   -76.01883150054074   -6.81780e-03   1.23488e-03 DIIS
   @DF-RHF iter   4:   -76.01932769108467   -4.96191e-04   3.64543e-04 DIIS
   @DF-RHF iter   5:   -76.01939705245505   -6.93614e-05   9.06098e-05 DIIS
   @DF-RHF iter   6:   -76.01940255249500   -5.50004e-06   1.33382e-05 DIIS
   @DF-RHF iter   7:   -76.01940266659400   -1.14099e-07   2.66711e-06 DIIS
   @DF-RHF iter   8:   -76.01940267090352   -4.30951e-09   5.06180e-07 DIIS
   @DF-RHF iter   9:   -76.01940267104612   -1.42606e-10   7.58094e-08 DIIS
   @DF-RHF iter  10:   -76.01940267104854   -2.41585e-12   1.35087e-08 DIIS
   @DF-RHF iter  11:   -76.01940267104862   -8.52651e-14   2.00860e-09 DIIS

  ==> Post-Iterations <==

    Orbital Energies (a.u.)
    -----------------------

    Doubly Occupied:                                                      

       1A    -20.586657     2A     -1.364177     3A     -0.730307  
       4A     -0.598176     5A     -0.524222  

    Virtual:                                                              

       6A      0.191863     7A      0.285551     8A      0.998523  
       9A      1.098600    10A      1.135842    11A      1.142901  
      12A      1.354158    13A      1.409219    14A      1.994992  
      15A      2.007882    16A      2.040894    17A      2.591064  
      18A      2.913078    19A      3.941731  

    Final Occupation by Irrep:
              A 
    DOCC [     5 ]

  Energy converged.

  @DF-RHF Final Energy:   -76.01940267104862

   => Energetics <=

    Nuclear Repulsion Energy =              9.4257258767477179
    One-Electron Energy =                -123.2831798374998158
    Two-Electron Energy =                  37.8380512897034578
    DFT Exchange-Correlation Energy =       0.0000000000000000
    Empirical Dispersion Energy =           0.0000000000000000
    PCM Polarization Energy =               0.0000000000000000
    EFP Energy =                            0.0000000000000000
    Total Energy =                        -76.0194026710486384

    Alert: EFP and PCM quantities not currently incorporated into SCF psivars.

Properties will be evaluated at   0.000000,   0.000000,   0.000000 Bohr

Properties computed using the SCF density matrix

  Nuclear Dipole Moment: (a.u.)
     X:   -14.3035      Y:     0.0000      Z:    23.5725

  Electronic Dipole Moment: (a.u.)
     X:    14.4643      Y:    -0.0000      Z:   -22.6703

  Dipole Moment: (a.u.)
     X:     0.1608      Y:    -0.0000      Z:     0.9022     Total:     0.9165

  Dipole Moment: (Debye)
     X:     0.4088      Y:    -0.0000      Z:     2.2933     Total:     2.3294


  //>>>>>>>>>>>>>>>>>>>>>>>>>>>>>>>>>>>//
  //               DFMP2               //
  //<<<<<<<<<<<<<<<<<<<<<<<<<<<<<<<<<<<//

	 --------------------------------------------------------
	                          DF-MP2                         
	      2nd-Order Density-Fitted Moller-Plesset Theory     
	              RMP2 Wavefunction,   1 Threads             
	                                                         
	        Rob Parrish, Justin Turney, Andy Simmonett,      
	           Ed Hohenstein, and C. David Sherrill          
	 --------------------------------------------------------

   => Auxiliary Basis Set <=

  Basis Set: file /Users/andysim/programming/psi4/obj_debug/stage/usr/local/psi4/share/psi4/basis/cc-pvdz-ri.gbs
    Number of shells: 30
    Number of basis function: 84
    Number of Cartesian functions: 96
    Spherical Harmonics?: true
    Max angular momentum: 3

	 --------------------------------------------------------
	                 NBF =    19, NAUX =    84
	 --------------------------------------------------------
	   CLASS    FOCC     OCC    AOCC    AVIR     VIR    FVIR
	   PAIRS       0       5       5      14      14       0
	 --------------------------------------------------------

	-----------------------------------------------------------
	 ==================> DF-MP2 Energies <==================== 
	-----------------------------------------------------------
	 Reference Energy          =     -76.0194026710486241 [Eh]
	 Singles Energy            =      -0.0000000000000001 [Eh]
	 Same-Spin Energy          =      -0.0484793126010058 [Eh]
	 Opposite-Spin Energy      =      -0.1402140566494938 [Eh]
	 Correlation Energy        =      -0.1886933692504997 [Eh]
	 Total Energy              =     -76.2080960402991252 [Eh]
	-----------------------------------------------------------
	 ================> DF-SCS-MP2 Energies <================== 
	-----------------------------------------------------------
	 SCS Same-Spin Scale       =       0.3333333333333333 [-]
	 SCS Opposite-Spin Scale   =       1.2000000000000000 [-]
	 SCS Same-Spin Energy      =      -0.0161597708670019 [Eh]
	 SCS Opposite-Spin Energy  =      -0.1682568679793925 [Eh]
	 SCS Correlation Energy    =      -0.1844166388463946 [Eh]
	 SCS Total Energy          =     -76.2038193098950245 [Eh]
	-----------------------------------------------------------


*** tstop() called on QuickSilver.local at Fri Feb 17 09:38:20 2017
Module time:
	user time   =       0.61 seconds =       0.01 minutes
	system time =       0.02 seconds =       0.00 minutes
	total time  =          1 seconds =       0.02 minutes
Total time:
	user time   =       0.61 seconds =       0.01 minutes
	system time =       0.02 seconds =       0.00 minutes
	total time  =          1 seconds =       0.02 minutes

  //>>>>>>>>>>>>>>>>>>>>>>>>>>>>>>>>>>>//
  //    Loading displacement 2 of 19   //
  //<<<<<<<<<<<<<<<<<<<<<<<<<<<<<<<<<<<//

*** tstart() called on QuickSilver.local
*** at Fri Feb 17 09:38:20 2017


         ---------------------------------------------------------
                                   SCF
            by Justin Turney, Rob Parrish, and Andy Simmonett
                              RHF Reference
                        1 Threads,    500 MiB Core
         ---------------------------------------------------------

  ==> Geometry <==

    Molecular point group: c1
    Full point group: C1

    Geometry (in Angstrom), charge = 0, multiplicity = 1:

       Center              X                  Y                   Z               Mass       
    ------------   -----------------  -----------------  -----------------  -----------------
           O         -0.778141423344     0.000000000000     1.132683000000    15.994914619560
           H         -0.666682000000     0.764099000000     1.706291000000     1.007825032070
           H         -0.666682000000    -0.764099000000     1.706290000000     1.007825032070

  Running in c1 symmetry.

  Rotational constants: A =     11.50695  B =      0.45598  C =      0.44527 [cm^-1]
  Rotational constants: A = 344969.70276  B =  13669.86550  C =  13348.99103 [MHz]
  Nuclear repulsion =    9.148263043209003

  Charge       = 0
  Multiplicity = 1
  Electrons    = 10
  Nalpha       = 5
  Nbeta        = 5

  ==> Algorithm <==

  SCF Algorithm Type is DF.
  DIIS enabled.
  MOM disabled.
  Fractional occupation disabled.
  Guess Type is SAD.
  Energy threshold   = 1.00e-10
  Density threshold  = 1.00e-08
  Integral threshold = 0.00e+00

  ==> Primary Basis <==

  Basis Set: file /Users/andysim/programming/psi4/obj_debug/stage/usr/local/psi4/share/psi4/basis/6-31gs.gbs
    Number of shells: 10
    Number of basis function: 19
    Number of Cartesian functions: 19
    Spherical Harmonics?: false
    Max angular momentum: 2

  ==> Pre-Iterations <==

   -------------------------------------------------------
    Irrep   Nso     Nmo     Nalpha   Nbeta   Ndocc  Nsocc
   -------------------------------------------------------
     A         19      19       0       0       0       0
   -------------------------------------------------------
    Total      19      19       5       5       5       0
   -------------------------------------------------------

  ==> Integral Setup <==

  ==> DFJK: Density-Fitted J/K Matrices <==

    J tasked:                  Yes
    K tasked:                  Yes
    wK tasked:                  No
    OpenMP threads:              1
    Integrals threads:           1
    Memory (MB):               357
    Algorithm:                Core
    Integral Cache:           NONE
    Schwarz Cutoff:          1E-12
    Fitting Condition:       1E-12

   => Auxiliary Basis Set <=

  Basis Set: file /Users/andysim/programming/psi4/obj_debug/stage/usr/local/psi4/share/psi4/basis/cc-pvdz-jkfit.gbs
    Number of shells: 42
    Number of basis function: 131
    Number of Cartesian functions: 131
    Spherical Harmonics?: false
    Max angular momentum: 3

   => External Potential Field:  <= 

    > Charges [a.u.] < 

              Z          x          y          z
       -0.83400    1.64923    0.00000   -2.35602
        0.41700    0.54476    0.00000   -3.79996
        0.41700    0.54476    0.00000   -0.91209

  Old nuclear repulsion        =    9.148263043209003
  Additional nuclear repulsion =    0.278963154351173
  Total nuclear repulsion      =    9.427226197560175

  Minimum eigenvalue in the overlap matrix is 2.2463310653E-02.
  Using Symmetric Orthogonalization.

  SCF Guess: Superposition of Atomic Densities via on-the-fly atomic UHF.

  ==> Iterations <==

                           Total Energy        Delta E     RMS |[F,P]|

   @DF-RHF iter   0:   -76.08411722205901   -7.60841e+01   8.87172e-02 
   @DF-RHF iter   1:   -75.96509380952827    1.19023e-01   1.75242e-02 
   @DF-RHF iter   2:   -76.00818487738843   -4.30911e-02   9.01227e-03 DIIS
   @DF-RHF iter   3:   -76.01850996108504   -1.03251e-02   1.67910e-03 DIIS
   @DF-RHF iter   4:   -76.01934615923990   -8.36198e-04   4.21465e-04 DIIS
   @DF-RHF iter   5:   -76.01941693919849   -7.07800e-05   7.43424e-05 DIIS
   @DF-RHF iter   6:   -76.01941963786795   -2.69867e-06   1.31377e-05 DIIS
   @DF-RHF iter   7:   -76.01941972180738   -8.39394e-08   2.64390e-06 DIIS
   @DF-RHF iter   8:   -76.01941972525793   -3.45055e-09   3.31873e-07 DIIS
   @DF-RHF iter   9:   -76.01941972530541   -4.74785e-11   6.55055e-08 DIIS
   @DF-RHF iter  10:   -76.01941972530746   -2.04636e-12   1.85605e-08 DIIS
   @DF-RHF iter  11:   -76.01941972530778   -3.26850e-13   2.09107e-09 DIIS

  ==> Post-Iterations <==

    Orbital Energies (a.u.)
    -----------------------

    Doubly Occupied:                                                      

       1A    -20.586620     2A     -1.364241     3A     -0.730441  
       4A     -0.598177     5A     -0.524223  

    Virtual:                                                              

       6A      0.191898     7A      0.285595     8A      0.998690  
       9A      1.098585    10A      1.135898    11A      1.142920  
      12A      1.354219    13A      1.409147    14A      1.995003  
      15A      2.007823    16A      2.040884    17A      2.591274  
      18A      2.913358    19A      3.941847  

    Final Occupation by Irrep:
              A 
    DOCC [     5 ]

  Energy converged.

  @DF-RHF Final Energy:   -76.01941972530778

   => Energetics <=

    Nuclear Repulsion Energy =              9.4272261975601754
    One-Electron Energy =                -123.2858880871893774
    Two-Electron Energy =                  37.8392421643214121
    DFT Exchange-Correlation Energy =       0.0000000000000000
    Empirical Dispersion Energy =           0.0000000000000000
    PCM Polarization Energy =               0.0000000000000000
    EFP Energy =                            0.0000000000000000
    Total Energy =                        -76.0194197253077846



Properties will be evaluated at   0.000000,   0.000000,   0.000000 Bohr

Properties computed using the SCF density matrix

  Nuclear Dipole Moment: (a.u.)
     X:   -14.2835      Y:     0.0000      Z:    23.5725

  Electronic Dipole Moment: (a.u.)
     X:    14.4423      Y:    -0.0000      Z:   -22.6701

  Dipole Moment: (a.u.)
     X:     0.1589      Y:    -0.0000      Z:     0.9024     Total:     0.9163

  Dipole Moment: (Debye)
     X:     0.4038      Y:    -0.0000      Z:     2.2938     Total:     2.3290


  //>>>>>>>>>>>>>>>>>>>>>>>>>>>>>>>>>>>//
  //               DFMP2               //
  //<<<<<<<<<<<<<<<<<<<<<<<<<<<<<<<<<<<//

	 --------------------------------------------------------
	                          DF-MP2                         
	      2nd-Order Density-Fitted Moller-Plesset Theory     
	              RMP2 Wavefunction,   1 Threads             
	                                                         
	        Rob Parrish, Justin Turney, Andy Simmonett,      
	           Ed Hohenstein, and C. David Sherrill          
	 --------------------------------------------------------

   => Auxiliary Basis Set <=

  Basis Set: file /Users/andysim/programming/psi4/obj_debug/stage/usr/local/psi4/share/psi4/basis/cc-pvdz-ri.gbs
    Number of shells: 30
    Number of basis function: 84
    Number of Cartesian functions: 96
    Spherical Harmonics?: true
    Max angular momentum: 3

	 --------------------------------------------------------
	                 NBF =    19, NAUX =    84
	 --------------------------------------------------------
	   CLASS    FOCC     OCC    AOCC    AVIR     VIR    FVIR
	   PAIRS       0       5       5      14      14       0
	 --------------------------------------------------------

	-----------------------------------------------------------
	 ==================> DF-MP2 Energies <==================== 
	-----------------------------------------------------------
	 Reference Energy          =     -76.0194197253077846 [Eh]
	 Singles Energy            =      -0.0000000000000005 [Eh]
	 Same-Spin Energy          =      -0.0484766084244261 [Eh]
	 Opposite-Spin Energy      =      -0.1402028320214677 [Eh]
	 Correlation Energy        =      -0.1886794404458943 [Eh]
	 Total Energy              =     -76.2080991657536799 [Eh]
	-----------------------------------------------------------
	 ================> DF-SCS-MP2 Energies <================== 
	-----------------------------------------------------------
	 SCS Same-Spin Scale       =       0.3333333333333333 [-]
	 SCS Opposite-Spin Scale   =       1.2000000000000000 [-]
	 SCS Same-Spin Energy      =      -0.0161588694748087 [Eh]
	 SCS Opposite-Spin Energy  =      -0.1682433984257612 [Eh]
	 SCS Correlation Energy    =      -0.1844022679005704 [Eh]
	 SCS Total Energy          =     -76.2038219932083507 [Eh]
	-----------------------------------------------------------


*** tstop() called on QuickSilver.local at Fri Feb 17 09:38:20 2017
Module time:
	user time   =       0.58 seconds =       0.01 minutes
	system time =       0.01 seconds =       0.00 minutes
	total time  =          0 seconds =       0.00 minutes
Total time:
	user time   =       1.20 seconds =       0.02 minutes
	system time =       0.03 seconds =       0.00 minutes
	total time  =          1 seconds =       0.02 minutes

  //>>>>>>>>>>>>>>>>>>>>>>>>>>>>>>>>>>>//
  //    Loading displacement 3 of 19   //
  //<<<<<<<<<<<<<<<<<<<<<<<<<<<<<<<<<<<//

*** tstart() called on QuickSilver.local
*** at Fri Feb 17 09:38:20 2017


         ---------------------------------------------------------
                                   SCF
            by Justin Turney, Rob Parrish, and Andy Simmonett
                              RHF Reference
                        1 Threads,    500 MiB Core
         ---------------------------------------------------------

  ==> Geometry <==

    Molecular point group: c1
    Full point group: C1

    Geometry (in Angstrom), charge = 0, multiplicity = 1:

       Center              X                  Y                   Z               Mass       
    ------------   -----------------  -----------------  -----------------  -----------------
           O         -0.778803000000    -0.000661576656     1.132683000000    15.994914619560
           H         -0.666682000000     0.764099000000     1.706291000000     1.007825032070
           H         -0.666682000000    -0.764099000000     1.706290000000     1.007825032070

  Running in c1 symmetry.

  Rotational constants: A =     11.49897  B =      0.45577  C =      0.44509 [cm^-1]
  Rotational constants: A = 344730.50936  B =  13663.77435  C =  13343.53950 [MHz]
  Nuclear repulsion =    9.147561457614870

  Charge       = 0
  Multiplicity = 1
  Electrons    = 10
  Nalpha       = 5
  Nbeta        = 5

  ==> Algorithm <==

  SCF Algorithm Type is DF.
  DIIS enabled.
  MOM disabled.
  Fractional occupation disabled.
  Guess Type is SAD.
  Energy threshold   = 1.00e-10
  Density threshold  = 1.00e-08
  Integral threshold = 0.00e+00

  ==> Primary Basis <==

  Basis Set: file /Users/andysim/programming/psi4/obj_debug/stage/usr/local/psi4/share/psi4/basis/6-31gs.gbs
    Number of shells: 10
    Number of basis function: 19
    Number of Cartesian functions: 19
    Spherical Harmonics?: false
    Max angular momentum: 2

  ==> Pre-Iterations <==

   -------------------------------------------------------
    Irrep   Nso     Nmo     Nalpha   Nbeta   Ndocc  Nsocc
   -------------------------------------------------------
     A         19      19       0       0       0       0
   -------------------------------------------------------
    Total      19      19       5       5       5       0
   -------------------------------------------------------

  ==> Integral Setup <==

  ==> DFJK: Density-Fitted J/K Matrices <==

    J tasked:                  Yes
    K tasked:                  Yes
    wK tasked:                  No
    OpenMP threads:              1
    Integrals threads:           1
    Memory (MB):               357
    Algorithm:                Core
    Integral Cache:           NONE
    Schwarz Cutoff:          1E-12
    Fitting Condition:       1E-12

   => Auxiliary Basis Set <=

  Basis Set: file /Users/andysim/programming/psi4/obj_debug/stage/usr/local/psi4/share/psi4/basis/cc-pvdz-jkfit.gbs
    Number of shells: 42
    Number of basis function: 131
    Number of Cartesian functions: 131
    Spherical Harmonics?: false
    Max angular momentum: 3

   => External Potential Field:  <= 

    > Charges [a.u.] < 

              Z          x          y          z
       -0.83400    1.64923    0.00000   -2.35602
        0.41700    0.54476    0.00000   -3.79996
        0.41700    0.54476    0.00000   -0.91209

  Old nuclear repulsion        =    9.147561457614870
  Additional nuclear repulsion =    0.278918423874489
  Total nuclear repulsion      =    9.426479881489358

  Minimum eigenvalue in the overlap matrix is 2.2466013991E-02.
  Using Symmetric Orthogonalization.

  SCF Guess: Superposition of Atomic Densities via on-the-fly atomic UHF.

  ==> Iterations <==

                           Total Energy        Delta E     RMS |[F,P]|

   @DF-RHF iter   0:   -76.00678318719488   -7.60068e+01   8.83097e-02 
   @DF-RHF iter   1:   -75.98120092070599    2.55823e-02   1.51956e-02 
   @DF-RHF iter   2:   -76.01115495471670   -2.99540e-02   7.79650e-03 DIIS
   @DF-RHF iter   3:   -76.01882062647334   -7.66567e-03   1.28944e-03 DIIS
   @DF-RHF iter   4:   -76.01935300885127   -5.32382e-04   3.56409e-04 DIIS
   @DF-RHF iter   5:   -76.01940784779848   -5.48389e-05   7.28589e-05 DIIS
   @DF-RHF iter   6:   -76.01941062644728   -2.77865e-06   9.05247e-06 DIIS
   @DF-RHF iter   7:   -76.01941066664260   -4.01953e-08   1.43260e-06 DIIS
   @DF-RHF iter   8:   -76.01941066750845   -8.65853e-10   2.45820e-07 DIIS
   @DF-RHF iter   9:   -76.01941066753055   -2.20979e-11   2.63598e-08 DIIS
   @DF-RHF iter  10:   -76.01941066753064   -8.52651e-14   6.29168e-09 DIIS

  ==> Post-Iterations <==

    Orbital Energies (a.u.)
    -----------------------

    Doubly Occupied:                                                      

       1A    -20.586638     2A     -1.364209     3A     -0.730374  
       4A     -0.598176     5A     -0.524223  

    Virtual:                                                              

       6A      0.191881     7A      0.285573     8A      0.998605  
       9A      1.098592    10A      1.135871    11A      1.142911  
      12A      1.354189    13A      1.409183    14A      1.994997  
      15A      2.007853    16A      2.040889    17A      2.591167  
      18A      2.913221    19A      3.941789  

    Final Occupation by Irrep:
              A 
    DOCC [     5 ]

  Energy converged.

  @DF-RHF Final Energy:   -76.01941066753064

   => Energetics <=

    Nuclear Repulsion Energy =              9.4264798814893584
    One-Electron Energy =                -123.2845397365123148
    Two-Electron Energy =                  37.8386491874923152
    DFT Exchange-Correlation Energy =       0.0000000000000000
    Empirical Dispersion Energy =           0.0000000000000000
    PCM Polarization Energy =               0.0000000000000000
    EFP Energy =                            0.0000000000000000
    Total Energy =                        -76.0194106675306500



Properties will be evaluated at   0.000000,   0.000000,   0.000000 Bohr

Properties computed using the SCF density matrix

  Nuclear Dipole Moment: (a.u.)
     X:   -14.2935      Y:    -0.0100      Z:    23.5725

  Electronic Dipole Moment: (a.u.)
     X:    14.4533      Y:     0.0107      Z:   -22.6702

  Dipole Moment: (a.u.)
     X:     0.1598      Y:     0.0007      Z:     0.9023     Total:     0.9164

  Dipole Moment: (Debye)
     X:     0.4063      Y:     0.0018      Z:     2.2935     Total:     2.3292


  //>>>>>>>>>>>>>>>>>>>>>>>>>>>>>>>>>>>//
  //               DFMP2               //
  //<<<<<<<<<<<<<<<<<<<<<<<<<<<<<<<<<<<//

	 --------------------------------------------------------
	                          DF-MP2                         
	      2nd-Order Density-Fitted Moller-Plesset Theory     
	              RMP2 Wavefunction,   1 Threads             
	                                                         
	        Rob Parrish, Justin Turney, Andy Simmonett,      
	           Ed Hohenstein, and C. David Sherrill          
	 --------------------------------------------------------

   => Auxiliary Basis Set <=

  Basis Set: file /Users/andysim/programming/psi4/obj_debug/stage/usr/local/psi4/share/psi4/basis/cc-pvdz-ri.gbs
    Number of shells: 30
    Number of basis function: 84
    Number of Cartesian functions: 96
    Spherical Harmonics?: true
    Max angular momentum: 3

	 --------------------------------------------------------
	                 NBF =    19, NAUX =    84
	 --------------------------------------------------------
	   CLASS    FOCC     OCC    AOCC    AVIR     VIR    FVIR
	   PAIRS       0       5       5      14      14       0
	 --------------------------------------------------------

	-----------------------------------------------------------
	 ==================> DF-MP2 Energies <==================== 
	-----------------------------------------------------------
	 Reference Energy          =     -76.0194106675306358 [Eh]
	 Singles Energy            =      -0.0000000000000013 [Eh]
	 Same-Spin Energy          =      -0.0484779535227070 [Eh]
	 Opposite-Spin Energy      =      -0.1402084322049182 [Eh]
	 Correlation Energy        =      -0.1886863857276265 [Eh]
	 Total Energy              =     -76.2080970532582569 [Eh]
	-----------------------------------------------------------
	 ================> DF-SCS-MP2 Energies <================== 
	-----------------------------------------------------------
	 SCS Same-Spin Scale       =       0.3333333333333333 [-]
	 SCS Opposite-Spin Scale   =       1.2000000000000000 [-]
	 SCS Same-Spin Energy      =      -0.0161593178409023 [Eh]
	 SCS Opposite-Spin Energy  =      -0.1682501186459018 [Eh]
	 SCS Correlation Energy    =      -0.1844094364868054 [Eh]
	 SCS Total Energy          =     -76.2038201040174386 [Eh]
	-----------------------------------------------------------


*** tstop() called on QuickSilver.local at Fri Feb 17 09:38:21 2017
Module time:
	user time   =       0.57 seconds =       0.01 minutes
	system time =       0.02 seconds =       0.00 minutes
	total time  =          1 seconds =       0.02 minutes
Total time:
	user time   =       1.78 seconds =       0.03 minutes
	system time =       0.05 seconds =       0.00 minutes
	total time  =          2 seconds =       0.03 minutes

  //>>>>>>>>>>>>>>>>>>>>>>>>>>>>>>>>>>>//
  //    Loading displacement 4 of 19   //
  //<<<<<<<<<<<<<<<<<<<<<<<<<<<<<<<<<<<//

*** tstart() called on QuickSilver.local
*** at Fri Feb 17 09:38:21 2017


         ---------------------------------------------------------
                                   SCF
            by Justin Turney, Rob Parrish, and Andy Simmonett
                              RHF Reference
                        1 Threads,    500 MiB Core
         ---------------------------------------------------------

  ==> Geometry <==

    Molecular point group: c1
    Full point group: C1

    Geometry (in Angstrom), charge = 0, multiplicity = 1:

       Center              X                  Y                   Z               Mass       
    ------------   -----------------  -----------------  -----------------  -----------------
           O         -0.778803000000     0.000661576656     1.132683000000    15.994914619560
           H         -0.666682000000     0.764099000000     1.706291000000     1.007825032070
           H         -0.666682000000    -0.764099000000     1.706290000000     1.007825032070

  Running in c1 symmetry.

  Rotational constants: A =     11.49897  B =      0.45577  C =      0.44509 [cm^-1]
  Rotational constants: A = 344730.50961  B =  13663.77435  C =  13343.53950 [MHz]
  Nuclear repulsion =    9.147561448675397

  Charge       = 0
  Multiplicity = 1
  Electrons    = 10
  Nalpha       = 5
  Nbeta        = 5

  ==> Algorithm <==

  SCF Algorithm Type is DF.
  DIIS enabled.
  MOM disabled.
  Fractional occupation disabled.
  Guess Type is SAD.
  Energy threshold   = 1.00e-10
  Density threshold  = 1.00e-08
  Integral threshold = 0.00e+00

  ==> Primary Basis <==

  Basis Set: file /Users/andysim/programming/psi4/obj_debug/stage/usr/local/psi4/share/psi4/basis/6-31gs.gbs
    Number of shells: 10
    Number of basis function: 19
    Number of Cartesian functions: 19
    Spherical Harmonics?: false
    Max angular momentum: 2

  ==> Pre-Iterations <==

   -------------------------------------------------------
    Irrep   Nso     Nmo     Nalpha   Nbeta   Ndocc  Nsocc
   -------------------------------------------------------
     A         19      19       0       0       0       0
   -------------------------------------------------------
    Total      19      19       5       5       5       0
   -------------------------------------------------------

  ==> Integral Setup <==

  ==> DFJK: Density-Fitted J/K Matrices <==

    J tasked:                  Yes
    K tasked:                  Yes
    wK tasked:                  No
    OpenMP threads:              1
    Integrals threads:           1
    Memory (MB):               357
    Algorithm:                Core
    Integral Cache:           NONE
    Schwarz Cutoff:          1E-12
    Fitting Condition:       1E-12

   => Auxiliary Basis Set <=

  Basis Set: file /Users/andysim/programming/psi4/obj_debug/stage/usr/local/psi4/share/psi4/basis/cc-pvdz-jkfit.gbs
    Number of shells: 42
    Number of basis function: 131
    Number of Cartesian functions: 131
    Spherical Harmonics?: false
    Max angular momentum: 3

   => External Potential Field:  <= 

    > Charges [a.u.] < 

              Z          x          y          z
       -0.83400    1.64923    0.00000   -2.35602
        0.41700    0.54476    0.00000   -3.79996
        0.41700    0.54476    0.00000   -0.91209

  Old nuclear repulsion        =    9.147561448675397
  Additional nuclear repulsion =    0.278918423874489
  Total nuclear repulsion      =    9.426479872549885

  Minimum eigenvalue in the overlap matrix is 2.2466014061E-02.
  Using Symmetric Orthogonalization.

  SCF Guess: Superposition of Atomic Densities via on-the-fly atomic UHF.

  ==> Iterations <==

                           Total Energy        Delta E     RMS |[F,P]|

   @DF-RHF iter   0:   -75.94330650975928   -7.59433e+01   8.76554e-02 
   @DF-RHF iter   1:   -75.98945804341471   -4.61515e-02   1.37204e-02 
   @DF-RHF iter   2:   -76.01295203688646   -2.34940e-02   6.78164e-03 DIIS
   @DF-RHF iter   3:   -76.01889739380000   -5.94536e-03   1.19666e-03 DIIS
   @DF-RHF iter   4:   -76.01933402689772   -4.36633e-04   3.56236e-04 DIIS
   @DF-RHF iter   5:   -76.01940457722739   -7.05503e-05   9.42122e-05 DIIS
   @DF-RHF iter   6:   -76.01941059072161   -6.01349e-06   1.15409e-05 DIIS
   @DF-RHF iter   7:   -76.01941066665829   -7.59367e-08   1.95268e-06 DIIS
   @DF-RHF iter   8:   -76.01941066870280   -2.04452e-09   4.10593e-07 DIIS
   @DF-RHF iter   9:   -76.01941066877990   -7.70939e-11   7.48799e-08 DIIS
   @DF-RHF iter  10:   -76.01941066878221   -2.31637e-12   1.91110e-08 DIIS
   @DF-RHF iter  11:   -76.01941066878234   -1.27898e-13   3.49965e-09 DIIS

  ==> Post-Iterations <==

    Orbital Energies (a.u.)
    -----------------------

    Doubly Occupied:                                                      

       1A    -20.586638     2A     -1.364209     3A     -0.730374  
       4A     -0.598176     5A     -0.524223  

    Virtual:                                                              

       6A      0.191881     7A      0.285573     8A      0.998605  
       9A      1.098592    10A      1.135871    11A      1.142911  
      12A      1.354189    13A      1.409183    14A      1.994997  
      15A      2.007853    16A      2.040889    17A      2.591167  
      18A      2.913221    19A      3.941789  

    Final Occupation by Irrep:
              A 
    DOCC [     5 ]

  Energy converged.

  @DF-RHF Final Energy:   -76.01941066878234

   => Energetics <=

    Nuclear Repulsion Energy =              9.4264798725498853
    One-Electron Energy =                -123.2845398074557295
    Two-Electron Energy =                  37.8386492661235039
    DFT Exchange-Correlation Energy =       0.0000000000000000
    Empirical Dispersion Energy =           0.0000000000000000
    PCM Polarization Energy =               0.0000000000000000
    EFP Energy =                            0.0000000000000000
    Total Energy =                        -76.0194106687823421



Properties will be evaluated at   0.000000,   0.000000,   0.000000 Bohr

Properties computed using the SCF density matrix

  Nuclear Dipole Moment: (a.u.)
     X:   -14.2935      Y:     0.0100      Z:    23.5725

  Electronic Dipole Moment: (a.u.)
     X:    14.4533      Y:    -0.0107      Z:   -22.6702

  Dipole Moment: (a.u.)
     X:     0.1598      Y:    -0.0007      Z:     0.9023     Total:     0.9164

  Dipole Moment: (Debye)
     X:     0.4063      Y:    -0.0018      Z:     2.2935     Total:     2.3292


  //>>>>>>>>>>>>>>>>>>>>>>>>>>>>>>>>>>>//
  //               DFMP2               //
  //<<<<<<<<<<<<<<<<<<<<<<<<<<<<<<<<<<<//

	 --------------------------------------------------------
	                          DF-MP2                         
	      2nd-Order Density-Fitted Moller-Plesset Theory     
	              RMP2 Wavefunction,   1 Threads             
	                                                         
	        Rob Parrish, Justin Turney, Andy Simmonett,      
	           Ed Hohenstein, and C. David Sherrill          
	 --------------------------------------------------------

   => Auxiliary Basis Set <=

  Basis Set: file /Users/andysim/programming/psi4/obj_debug/stage/usr/local/psi4/share/psi4/basis/cc-pvdz-ri.gbs
    Number of shells: 30
    Number of basis function: 84
    Number of Cartesian functions: 96
    Spherical Harmonics?: true
    Max angular momentum: 3

	 --------------------------------------------------------
	                 NBF =    19, NAUX =    84
	 --------------------------------------------------------
	   CLASS    FOCC     OCC    AOCC    AVIR     VIR    FVIR
	   PAIRS       0       5       5      14      14       0
	 --------------------------------------------------------

	-----------------------------------------------------------
	 ==================> DF-MP2 Energies <==================== 
	-----------------------------------------------------------
	 Reference Energy          =     -76.0194106687823421 [Eh]
	 Singles Energy            =      -0.0000000000000007 [Eh]
	 Same-Spin Energy          =      -0.0484779533549428 [Eh]
	 Opposite-Spin Energy      =      -0.1402084316758840 [Eh]
	 Correlation Energy        =      -0.1886863850308274 [Eh]
	 Total Energy              =     -76.2080970538131766 [Eh]
	-----------------------------------------------------------
	 ================> DF-SCS-MP2 Energies <================== 
	-----------------------------------------------------------
	 SCS Same-Spin Scale       =       0.3333333333333333 [-]
	 SCS Opposite-Spin Scale   =       1.2000000000000000 [-]
	 SCS Same-Spin Energy      =      -0.0161593177849809 [Eh]
	 SCS Opposite-Spin Energy  =      -0.1682501180110608 [Eh]
	 SCS Correlation Energy    =      -0.1844094357960424 [Eh]
	 SCS Total Energy          =     -76.2038201045783836 [Eh]
	-----------------------------------------------------------


*** tstop() called on QuickSilver.local at Fri Feb 17 09:38:21 2017
Module time:
	user time   =       0.57 seconds =       0.01 minutes
	system time =       0.01 seconds =       0.00 minutes
	total time  =          0 seconds =       0.00 minutes
Total time:
	user time   =       2.36 seconds =       0.04 minutes
	system time =       0.06 seconds =       0.00 minutes
	total time  =          2 seconds =       0.03 minutes

  //>>>>>>>>>>>>>>>>>>>>>>>>>>>>>>>>>>>//
  //    Loading displacement 5 of 19   //
  //<<<<<<<<<<<<<<<<<<<<<<<<<<<<<<<<<<<//

*** tstart() called on QuickSilver.local
*** at Fri Feb 17 09:38:21 2017


         ---------------------------------------------------------
                                   SCF
            by Justin Turney, Rob Parrish, and Andy Simmonett
                              RHF Reference
                        1 Threads,    500 MiB Core
         ---------------------------------------------------------

  ==> Geometry <==

    Molecular point group: c1
    Full point group: C1

    Geometry (in Angstrom), charge = 0, multiplicity = 1:

       Center              X                  Y                   Z               Mass       
    ------------   -----------------  -----------------  -----------------  -----------------
           O         -0.778803000000     0.000000000000     1.132021423344    15.994914619560
           H         -0.666682000000     0.764099000000     1.706291000000     1.007825032070
           H         -0.666682000000    -0.764099000000     1.706290000000     1.007825032070

  Running in c1 symmetry.

  Rotational constants: A =     11.49397  B =      0.45607  C =      0.44538 [cm^-1]
  Rotational constants: A = 344580.53870  B =  13672.63529  C =  13352.21595 [MHz]
  Nuclear repulsion =    9.143950701435717

  Charge       = 0
  Multiplicity = 1
  Electrons    = 10
  Nalpha       = 5
  Nbeta        = 5

  ==> Algorithm <==

  SCF Algorithm Type is DF.
  DIIS enabled.
  MOM disabled.
  Fractional occupation disabled.
  Guess Type is SAD.
  Energy threshold   = 1.00e-10
  Density threshold  = 1.00e-08
  Integral threshold = 0.00e+00

  ==> Primary Basis <==

  Basis Set: file /Users/andysim/programming/psi4/obj_debug/stage/usr/local/psi4/share/psi4/basis/6-31gs.gbs
    Number of shells: 10
    Number of basis function: 19
    Number of Cartesian functions: 19
    Spherical Harmonics?: false
    Max angular momentum: 2

  ==> Pre-Iterations <==

   -------------------------------------------------------
    Irrep   Nso     Nmo     Nalpha   Nbeta   Ndocc  Nsocc
   -------------------------------------------------------
     A         19      19       0       0       0       0
   -------------------------------------------------------
    Total      19      19       5       5       5       0
   -------------------------------------------------------

  ==> Integral Setup <==

  ==> DFJK: Density-Fitted J/K Matrices <==

    J tasked:                  Yes
    K tasked:                  Yes
    wK tasked:                  No
    OpenMP threads:              1
    Integrals threads:           1
    Memory (MB):               357
    Algorithm:                Core
    Integral Cache:           NONE
    Schwarz Cutoff:          1E-12
    Fitting Condition:       1E-12

   => Auxiliary Basis Set <=

  Basis Set: file /Users/andysim/programming/psi4/obj_debug/stage/usr/local/psi4/share/psi4/basis/cc-pvdz-jkfit.gbs
    Number of shells: 42
    Number of basis function: 131
    Number of Cartesian functions: 131
    Spherical Harmonics?: false
    Max angular momentum: 3

   => External Potential Field:  <= 

    > Charges [a.u.] < 

              Z          x          y          z
       -0.83400    1.64923    0.00000   -2.35602
        0.41700    0.54476    0.00000   -3.79996
        0.41700    0.54476    0.00000   -0.91209

  Old nuclear repulsion        =    9.143950701435717
  Additional nuclear repulsion =    0.279020850162104
  Total nuclear repulsion      =    9.422971551597822

  Minimum eigenvalue in the overlap matrix is 2.2480125076E-02.
  Using Symmetric Orthogonalization.

  SCF Guess: Superposition of Atomic Densities via on-the-fly atomic UHF.

  ==> Iterations <==

                           Total Energy        Delta E     RMS |[F,P]|

   @DF-RHF iter   0:   -75.89051784776855   -7.58905e+01   8.70900e-02 
   @DF-RHF iter   1:   -75.99630949095354   -1.05792e-01   1.25487e-02 
   @DF-RHF iter   2:   -76.01452943198228   -1.82199e-02   6.05967e-03 DIIS
   @DF-RHF iter   3:   -76.01918150776645   -4.65208e-03   9.48893e-04 DIIS
   @DF-RHF iter   4:   -76.01937342343476   -1.91916e-04   2.07901e-04 DIIS
   @DF-RHF iter   5:   -76.01939223387620   -1.88104e-05   5.14340e-05 DIIS
   @DF-RHF iter   6:   -76.01939364493286   -1.41106e-06   7.60690e-06 DIIS
   @DF-RHF iter   7:   -76.01939367403114   -2.90983e-08   1.49542e-06 DIIS
   @DF-RHF iter   8:   -76.01939367524528   -1.21415e-09   2.87946e-07 DIIS
   @DF-RHF iter   9:   -76.01939367529020   -4.49205e-11   5.36020e-08 DIIS
   @DF-RHF iter  10:   -76.01939367529174   -1.53477e-12   9.79385e-09 DIIS

  ==> Post-Iterations <==

    Orbital Energies (a.u.)
    -----------------------

    Doubly Occupied:                                                      

       1A    -20.586753     2A     -1.364066     3A     -0.730051  
       4A     -0.598237     5A     -0.524226  

    Virtual:                                                              

       6A      0.191782     7A      0.285452     8A      0.998152  
       9A      1.098534    10A      1.135736    11A      1.142834  
      12A      1.353999    13A      1.409375    14A      1.994909  
      15A      2.007990    16A      2.040877    17A      2.590613  
      18A      2.912461    19A      3.941461  

    Final Occupation by Irrep:
              A 
    DOCC [     5 ]

  Energy converged.

  @DF-RHF Final Energy:   -76.01939367529174

   => Energetics <=

    Nuclear Repulsion Energy =              9.4229715515978221
    One-Electron Energy =                -123.2780649764068528
    Two-Electron Energy =                  37.8356997495172820
    DFT Exchange-Correlation Energy =       0.0000000000000000
    Empirical Dispersion Energy =           0.0000000000000000
    PCM Polarization Energy =               0.0000000000000000
    EFP Energy =                            0.0000000000000000
    Total Energy =                        -76.0193936752917523



Properties will be evaluated at   0.000000,   0.000000,   0.000000 Bohr

Properties computed using the SCF density matrix

  Nuclear Dipole Moment: (a.u.)
     X:   -14.2935      Y:     0.0000      Z:    23.5625

  Electronic Dipole Moment: (a.u.)
     X:    14.4532      Y:    -0.0000      Z:   -22.6595

  Dipole Moment: (a.u.)
     X:     0.1598      Y:    -0.0000      Z:     0.9030     Total:     0.9170

  Dipole Moment: (Debye)
     X:     0.4061      Y:    -0.0000      Z:     2.2952     Total:     2.3308


  //>>>>>>>>>>>>>>>>>>>>>>>>>>>>>>>>>>>//
  //               DFMP2               //
  //<<<<<<<<<<<<<<<<<<<<<<<<<<<<<<<<<<<//

	 --------------------------------------------------------
	                          DF-MP2                         
	      2nd-Order Density-Fitted Moller-Plesset Theory     
	              RMP2 Wavefunction,   1 Threads             
	                                                         
	        Rob Parrish, Justin Turney, Andy Simmonett,      
	           Ed Hohenstein, and C. David Sherrill          
	 --------------------------------------------------------

   => Auxiliary Basis Set <=

  Basis Set: file /Users/andysim/programming/psi4/obj_debug/stage/usr/local/psi4/share/psi4/basis/cc-pvdz-ri.gbs
    Number of shells: 30
    Number of basis function: 84
    Number of Cartesian functions: 96
    Spherical Harmonics?: true
    Max angular momentum: 3

	 --------------------------------------------------------
	                 NBF =    19, NAUX =    84
	 --------------------------------------------------------
	   CLASS    FOCC     OCC    AOCC    AVIR     VIR    FVIR
	   PAIRS       0       5       5      14      14       0
	 --------------------------------------------------------

	-----------------------------------------------------------
	 ==================> DF-MP2 Energies <==================== 
	-----------------------------------------------------------
	 Reference Energy          =     -76.0193936752917381 [Eh]
	 Singles Energy            =      -0.0000000000000120 [Eh]
	 Same-Spin Energy          =      -0.0484847552285264 [Eh]
	 Opposite-Spin Energy      =      -0.1402363067651580 [Eh]
	 Correlation Energy        =      -0.1887210619936964 [Eh]
	 Total Energy              =     -76.2081147372854275 [Eh]
	-----------------------------------------------------------
	 ================> DF-SCS-MP2 Energies <================== 
	-----------------------------------------------------------
	 SCS Same-Spin Scale       =       0.3333333333333333 [-]
	 SCS Opposite-Spin Scale   =       1.2000000000000000 [-]
	 SCS Same-Spin Energy      =      -0.0161615850761755 [Eh]
	 SCS Opposite-Spin Energy  =      -0.1682835681181896 [Eh]
	 SCS Correlation Energy    =      -0.1844451531943770 [Eh]
	 SCS Total Energy          =     -76.2038388284861128 [Eh]
	-----------------------------------------------------------


*** tstop() called on QuickSilver.local at Fri Feb 17 09:38:22 2017
Module time:
	user time   =       0.58 seconds =       0.01 minutes
	system time =       0.01 seconds =       0.00 minutes
	total time  =          1 seconds =       0.02 minutes
Total time:
	user time   =       2.95 seconds =       0.05 minutes
	system time =       0.07 seconds =       0.00 minutes
	total time  =          3 seconds =       0.05 minutes

  //>>>>>>>>>>>>>>>>>>>>>>>>>>>>>>>>>>>//
  //    Loading displacement 6 of 19   //
  //<<<<<<<<<<<<<<<<<<<<<<<<<<<<<<<<<<<//

*** tstart() called on QuickSilver.local
*** at Fri Feb 17 09:38:22 2017


         ---------------------------------------------------------
                                   SCF
            by Justin Turney, Rob Parrish, and Andy Simmonett
                              RHF Reference
                        1 Threads,    500 MiB Core
         ---------------------------------------------------------

  ==> Geometry <==

    Molecular point group: c1
    Full point group: C1

    Geometry (in Angstrom), charge = 0, multiplicity = 1:

       Center              X                  Y                   Z               Mass       
    ------------   -----------------  -----------------  -----------------  -----------------
           O         -0.778803000000     0.000000000000     1.133344576656    15.994914619560
           H         -0.666682000000     0.764099000000     1.706291000000     1.007825032070
           H         -0.666682000000    -0.764099000000     1.706290000000     1.007825032070

  Running in c1 symmetry.

  Rotational constants: A =     11.50399  B =      0.45548  C =      0.44480 [cm^-1]
  Rotational constants: A = 344880.84907  B =  13654.92381  C =  13334.87500 [MHz]
  Nuclear repulsion =    9.151168766395070

  Charge       = 0
  Multiplicity = 1
  Electrons    = 10
  Nalpha       = 5
  Nbeta        = 5

  ==> Algorithm <==

  SCF Algorithm Type is DF.
  DIIS enabled.
  MOM disabled.
  Fractional occupation disabled.
  Guess Type is SAD.
  Energy threshold   = 1.00e-10
  Density threshold  = 1.00e-08
  Integral threshold = 0.00e+00

  ==> Primary Basis <==

  Basis Set: file /Users/andysim/programming/psi4/obj_debug/stage/usr/local/psi4/share/psi4/basis/6-31gs.gbs
    Number of shells: 10
    Number of basis function: 19
    Number of Cartesian functions: 19
    Spherical Harmonics?: false
    Max angular momentum: 2

  ==> Pre-Iterations <==

   -------------------------------------------------------
    Irrep   Nso     Nmo     Nalpha   Nbeta   Ndocc  Nsocc
   -------------------------------------------------------
     A         19      19       0       0       0       0
   -------------------------------------------------------
    Total      19      19       5       5       5       0
   -------------------------------------------------------

  ==> Integral Setup <==

  ==> DFJK: Density-Fitted J/K Matrices <==

    J tasked:                  Yes
    K tasked:                  Yes
    wK tasked:                  No
    OpenMP threads:              1
    Integrals threads:           1
    Memory (MB):               357
    Algorithm:                Core
    Integral Cache:           NONE
    Schwarz Cutoff:          1E-12
    Fitting Condition:       1E-12

   => Auxiliary Basis Set <=

  Basis Set: file /Users/andysim/programming/psi4/obj_debug/stage/usr/local/psi4/share/psi4/basis/cc-pvdz-jkfit.gbs
    Number of shells: 42
    Number of basis function: 131
    Number of Cartesian functions: 131
    Spherical Harmonics?: false
    Max angular momentum: 3

   => External Potential Field:  <= 

    > Charges [a.u.] < 

              Z          x          y          z
       -0.83400    1.64923    0.00000   -2.35602
        0.41700    0.54476    0.00000   -3.79996
        0.41700    0.54476    0.00000   -0.91209

  Old nuclear repulsion        =    9.151168766395070
  Additional nuclear repulsion =    0.278816086187886
  Total nuclear repulsion      =    9.429984852582956

  Minimum eigenvalue in the overlap matrix is 2.2451969903E-02.
  Using Symmetric Orthogonalization.

  SCF Guess: Superposition of Atomic Densities via on-the-fly atomic UHF.

  ==> Iterations <==

                           Total Energy        Delta E     RMS |[F,P]|

   @DF-RHF iter   0:   -76.00921678444739   -7.60092e+01   8.83604e-02 
   @DF-RHF iter   1:   -75.98038907391150    2.88277e-02   1.52923e-02 
   @DF-RHF iter   2:   -76.01111547828953   -3.07264e-02   7.81012e-03 DIIS
   @DF-RHF iter   3:   -76.01882017272331   -7.70469e-03   1.31700e-03 DIIS
   @DF-RHF iter   4:   -76.01936791455364   -5.47742e-04   3.63274e-04 DIIS
   @DF-RHF iter   5:   -76.01942496483981   -5.70503e-05   7.48197e-05 DIIS
   @DF-RHF iter   6:   -76.01942795238831   -2.98755e-06   1.08062e-05 DIIS
   @DF-RHF iter   7:   -76.01942801719753   -6.48092e-08   2.28355e-06 DIIS
   @DF-RHF iter   8:   -76.01942802027956   -3.08204e-09   4.90557e-07 DIIS
   @DF-RHF iter   9:   -76.01942802042259   -1.43032e-10   1.07758e-07 DIIS
   @DF-RHF iter  10:   -76.01942802042937   -6.77858e-12   3.07838e-08 DIIS
   @DF-RHF iter  11:   -76.01942802042988   -5.11591e-13   3.20854e-09 DIIS

  ==> Post-Iterations <==

    Orbital Energies (a.u.)
    -----------------------

    Doubly Occupied:                                                      

       1A    -20.586524     2A     -1.364353     3A     -0.730697  
       4A     -0.598116     5A     -0.524219  

    Virtual:                                                              

       6A      0.191980     7A      0.285694     8A      0.999063  
       9A      1.098649    10A      1.136002    11A      1.142988  
      12A      1.354379    13A      1.408992    14A      1.995086  
      15A      2.007715    16A      2.040902    17A      2.591726  
      18A      2.913974    19A      3.942117  

    Final Occupation by Irrep:
              A 
    DOCC [     5 ]

  Energy converged.

  @DF-RHF Final Energy:   -76.01942802042988

   => Energetics <=

    Nuclear Repulsion Energy =              9.4299848525829564
    One-Electron Energy =                -123.2910098800118845
    Two-Electron Energy =                  37.8415970069990379
    DFT Exchange-Correlation Energy =       0.0000000000000000
    Empirical Dispersion Energy =           0.0000000000000000
    PCM Polarization Energy =               0.0000000000000000
    EFP Energy =                            0.0000000000000000
    Total Energy =                        -76.0194280204298849

    Alert: EFP and PCM quantities not currently incorporated into SCF psivars.

Properties will be evaluated at   0.000000,   0.000000,   0.000000 Bohr

Properties computed using the SCF density matrix

  Nuclear Dipole Moment: (a.u.)
     X:   -14.2935      Y:     0.0000      Z:    23.5825

  Electronic Dipole Moment: (a.u.)
     X:    14.4534      Y:    -0.0000      Z:   -22.6808

  Dipole Moment: (a.u.)
     X:     0.1599      Y:    -0.0000      Z:     0.9017     Total:     0.9158

  Dipole Moment: (Debye)
     X:     0.4065      Y:    -0.0000      Z:     2.2918     Total:     2.3276


  //>>>>>>>>>>>>>>>>>>>>>>>>>>>>>>>>>>>//
  //               DFMP2               //
  //<<<<<<<<<<<<<<<<<<<<<<<<<<<<<<<<<<<//

	 --------------------------------------------------------
	                          DF-MP2                         
	      2nd-Order Density-Fitted Moller-Plesset Theory     
	              RMP2 Wavefunction,   1 Threads             
	                                                         
	        Rob Parrish, Justin Turney, Andy Simmonett,      
	           Ed Hohenstein, and C. David Sherrill          
	 --------------------------------------------------------

   => Auxiliary Basis Set <=

  Basis Set: file /Users/andysim/programming/psi4/obj_debug/stage/usr/local/psi4/share/psi4/basis/cc-pvdz-ri.gbs
    Number of shells: 30
    Number of basis function: 84
    Number of Cartesian functions: 96
    Spherical Harmonics?: true
    Max angular momentum: 3

	 --------------------------------------------------------
	                 NBF =    19, NAUX =    84
	 --------------------------------------------------------
	   CLASS    FOCC     OCC    AOCC    AVIR     VIR    FVIR
	   PAIRS       0       5       5      14      14       0
	 --------------------------------------------------------

	-----------------------------------------------------------
	 ==================> DF-MP2 Energies <==================== 
	-----------------------------------------------------------
	 Reference Energy          =     -76.0194280204298849 [Eh]
	 Singles Energy            =      -0.0000000000000004 [Eh]
	 Same-Spin Energy          =      -0.0484711686291954 [Eh]
	 Opposite-Spin Energy      =      -0.1401805873509016 [Eh]
	 Correlation Energy        =      -0.1886517559800974 [Eh]
	 Total Energy              =     -76.2080797764099884 [Eh]
	-----------------------------------------------------------
	 ================> DF-SCS-MP2 Energies <================== 
	-----------------------------------------------------------
	 SCS Same-Spin Scale       =       0.3333333333333333 [-]
	 SCS Opposite-Spin Scale   =       1.2000000000000000 [-]
	 SCS Same-Spin Energy      =      -0.0161570562097318 [Eh]
	 SCS Opposite-Spin Energy  =      -0.1682167048210819 [Eh]
	 SCS Correlation Energy    =      -0.1843737610308141 [Eh]
	 SCS Total Energy          =     -76.2038017814606974 [Eh]
	-----------------------------------------------------------


*** tstop() called on QuickSilver.local at Fri Feb 17 09:38:23 2017
Module time:
	user time   =       0.60 seconds =       0.01 minutes
	system time =       0.02 seconds =       0.00 minutes
	total time  =          1 seconds =       0.02 minutes
Total time:
	user time   =       3.56 seconds =       0.06 minutes
	system time =       0.09 seconds =       0.00 minutes
	total time  =          4 seconds =       0.07 minutes

  //>>>>>>>>>>>>>>>>>>>>>>>>>>>>>>>>>>>//
  //    Loading displacement 7 of 19   //
  //<<<<<<<<<<<<<<<<<<<<<<<<<<<<<<<<<<<//

*** tstart() called on QuickSilver.local
*** at Fri Feb 17 09:38:23 2017


         ---------------------------------------------------------
                                   SCF
            by Justin Turney, Rob Parrish, and Andy Simmonett
                              RHF Reference
                        1 Threads,    500 MiB Core
         ---------------------------------------------------------

  ==> Geometry <==

    Molecular point group: c1
    Full point group: C1

    Geometry (in Angstrom), charge = 0, multiplicity = 1:

       Center              X                  Y                   Z               Mass       
    ------------   -----------------  -----------------  -----------------  -----------------
           O         -0.778803000000     0.000000000000     1.132683000000    15.994914619560
           H         -0.669317594332     0.764099000000     1.706291000000     1.007825032070
           H         -0.666682000000    -0.764099000000     1.706290000000     1.007825032070

  Running in c1 symmetry.

  Rotational constants: A =     11.51107  B =      0.45573  C =      0.44503 [cm^-1]
  Rotational constants: A = 345093.30199  B =  13662.46676  C =  13341.74834 [MHz]
  Nuclear repulsion =    9.148948399506164

  Charge       = 0
  Multiplicity = 1
  Electrons    = 10
  Nalpha       = 5
  Nbeta        = 5

  ==> Algorithm <==

  SCF Algorithm Type is DF.
  DIIS enabled.
  MOM disabled.
  Fractional occupation disabled.
  Guess Type is SAD.
  Energy threshold   = 1.00e-10
  Density threshold  = 1.00e-08
  Integral threshold = 0.00e+00

  ==> Primary Basis <==

  Basis Set: file /Users/andysim/programming/psi4/obj_debug/stage/usr/local/psi4/share/psi4/basis/6-31gs.gbs
    Number of shells: 10
    Number of basis function: 19
    Number of Cartesian functions: 19
    Spherical Harmonics?: false
    Max angular momentum: 2

  ==> Pre-Iterations <==

   -------------------------------------------------------
    Irrep   Nso     Nmo     Nalpha   Nbeta   Ndocc  Nsocc
   -------------------------------------------------------
     A         19      19       0       0       0       0
   -------------------------------------------------------
    Total      19      19       5       5       5       0
   -------------------------------------------------------

  ==> Integral Setup <==

  ==> DFJK: Density-Fitted J/K Matrices <==

    J tasked:                  Yes
    K tasked:                  Yes
    wK tasked:                  No
    OpenMP threads:              1
    Integrals threads:           1
    Memory (MB):               357
    Algorithm:                Core
    Integral Cache:           NONE
    Schwarz Cutoff:          1E-12
    Fitting Condition:       1E-12

   => Auxiliary Basis Set <=

  Basis Set: file /Users/andysim/programming/psi4/obj_debug/stage/usr/local/psi4/share/psi4/basis/cc-pvdz-jkfit.gbs
    Number of shells: 42
    Number of basis function: 131
    Number of Cartesian functions: 131
    Spherical Harmonics?: false
    Max angular momentum: 3

   => External Potential Field:  <= 

    > Charges [a.u.] < 

              Z          x          y          z
       -0.83400    1.64923    0.00000   -2.35602
        0.41700    0.54476    0.00000   -3.79996
        0.41700    0.54476    0.00000   -0.91209

  Old nuclear repulsion        =    9.148948399506164
  Additional nuclear repulsion =    0.278913425878046
  Total nuclear repulsion      =    9.427861825384209

  Minimum eigenvalue in the overlap matrix is 2.2460654294E-02.
  Using Symmetric Orthogonalization.

  SCF Guess: Superposition of Atomic Densities via on-the-fly atomic UHF.

  ==> Iterations <==

                           Total Energy        Delta E     RMS |[F,P]|

   @DF-RHF iter   0:   -75.95954789648906   -7.59595e+01   8.78124e-02 
   @DF-RHF iter   1:   -75.98697106661905   -2.74232e-02   1.41220e-02 
   @DF-RHF iter   2:   -76.01246242262869   -2.54914e-02   7.00537e-03 DIIS
   @DF-RHF iter   3:   -76.01882757782870   -6.36516e-03   1.27114e-03 DIIS
   @DF-RHF iter   4:   -76.01933471165358   -5.07134e-04   3.81434e-04 DIIS
   @DF-RHF iter   5:   -76.01941446515477   -7.97535e-05   9.74079e-05 DIIS
   @DF-RHF iter   6:   -76.01942074419014   -6.27904e-06   1.29533e-05 DIIS
   @DF-RHF iter   7:   -76.01942083861297   -9.44228e-08   2.37890e-06 DIIS
   @DF-RHF iter   8:   -76.01942084167636   -3.06339e-09   4.66824e-07 DIIS
   @DF-RHF iter   9:   -76.01942084177155   -9.51843e-11   8.35901e-08 DIIS
   @DF-RHF iter  10:   -76.01942084177422   -2.67164e-12   2.17312e-08 DIIS
   @DF-RHF iter  11:   -76.01942084177446   -2.41585e-13   3.99463e-09 DIIS

  ==> Post-Iterations <==

    Orbital Energies (a.u.)
    -----------------------

    Doubly Occupied:                                                      

       1A    -20.586595     2A     -1.364264     3A     -0.730500  
       4A     -0.598164     5A     -0.524217  

    Virtual:                                                              

       6A      0.191918     7A      0.285618     8A      0.998779  
       9A      1.098594    10A      1.135932    11A      1.142935  
      12A      1.354257    13A      1.409115    14A      1.995020  
      15A      2.007802    16A      2.040891    17A      2.591384  
      18A      2.913504    19A      3.941913  

    Final Occupation by Irrep:
              A 
    DOCC [     5 ]

  Energy converged.

  @DF-RHF Final Energy:   -76.01942084177446

   => Energetics <=

    Nuclear Repulsion Energy =              9.4278618253842090
    One-Electron Energy =                -123.2870860580356265
    Two-Electron Energy =                  37.8398033908769662
    DFT Exchange-Correlation Energy =       0.0000000000000000
    Empirical Dispersion Energy =           0.0000000000000000
    PCM Polarization Energy =               0.0000000000000000
    EFP Energy =                            0.0000000000000000
    Total Energy =                        -76.0194208417744477



Properties will be evaluated at   0.000000,   0.000000,   0.000000 Bohr

Properties computed using the SCF density matrix

  Nuclear Dipole Moment: (a.u.)
     X:   -14.2985      Y:     0.0000      Z:    23.5725

  Electronic Dipole Moment: (a.u.)
     X:    14.4563      Y:     0.0001      Z:   -22.6700

  Dipole Moment: (a.u.)
     X:     0.1579      Y:     0.0001      Z:     0.9025     Total:     0.9162

  Dipole Moment: (Debye)
     X:     0.4012      Y:     0.0002      Z:     2.2939     Total:     2.3287


  //>>>>>>>>>>>>>>>>>>>>>>>>>>>>>>>>>>>//
  //               DFMP2               //
  //<<<<<<<<<<<<<<<<<<<<<<<<<<<<<<<<<<<//

	 --------------------------------------------------------
	                          DF-MP2                         
	      2nd-Order Density-Fitted Moller-Plesset Theory     
	              RMP2 Wavefunction,   1 Threads             
	                                                         
	        Rob Parrish, Justin Turney, Andy Simmonett,      
	           Ed Hohenstein, and C. David Sherrill          
	 --------------------------------------------------------

   => Auxiliary Basis Set <=

  Basis Set: file /Users/andysim/programming/psi4/obj_debug/stage/usr/local/psi4/share/psi4/basis/cc-pvdz-ri.gbs
    Number of shells: 30
    Number of basis function: 84
    Number of Cartesian functions: 96
    Spherical Harmonics?: true
    Max angular momentum: 3

	 --------------------------------------------------------
	                 NBF =    19, NAUX =    84
	 --------------------------------------------------------
	   CLASS    FOCC     OCC    AOCC    AVIR     VIR    FVIR
	   PAIRS       0       5       5      14      14       0
	 --------------------------------------------------------

	-----------------------------------------------------------
	 ==================> DF-MP2 Energies <==================== 
	-----------------------------------------------------------
	 Reference Energy          =     -76.0194208417744619 [Eh]
	 Singles Energy            =      -0.0000000000000010 [Eh]
	 Same-Spin Energy          =      -0.0484752874928170 [Eh]
	 Opposite-Spin Energy      =      -0.1401974836918598 [Eh]
	 Correlation Energy        =      -0.1886727711846778 [Eh]
	 Total Energy              =     -76.2080936129591464 [Eh]
	-----------------------------------------------------------
	 ================> DF-SCS-MP2 Energies <================== 
	-----------------------------------------------------------
	 SCS Same-Spin Scale       =       0.3333333333333333 [-]
	 SCS Opposite-Spin Scale   =       1.2000000000000000 [-]
	 SCS Same-Spin Energy      =      -0.0161584291642723 [Eh]
	 SCS Opposite-Spin Energy  =      -0.1682369804302317 [Eh]
	 SCS Correlation Energy    =      -0.1843954095945050 [Eh]
	 SCS Total Energy          =     -76.2038162513689628 [Eh]
	-----------------------------------------------------------


*** tstop() called on QuickSilver.local at Fri Feb 17 09:38:23 2017
Module time:
	user time   =       0.58 seconds =       0.01 minutes
	system time =       0.01 seconds =       0.00 minutes
	total time  =          0 seconds =       0.00 minutes
Total time:
	user time   =       4.14 seconds =       0.07 minutes
	system time =       0.10 seconds =       0.00 minutes
	total time  =          4 seconds =       0.07 minutes

  //>>>>>>>>>>>>>>>>>>>>>>>>>>>>>>>>>>>//
  //    Loading displacement 8 of 19   //
  //<<<<<<<<<<<<<<<<<<<<<<<<<<<<<<<<<<<//

*** tstart() called on QuickSilver.local
*** at Fri Feb 17 09:38:23 2017


         ---------------------------------------------------------
                                   SCF
            by Justin Turney, Rob Parrish, and Andy Simmonett
                              RHF Reference
                        1 Threads,    500 MiB Core
         ---------------------------------------------------------

  ==> Geometry <==

    Molecular point group: c1
    Full point group: C1

    Geometry (in Angstrom), charge = 0, multiplicity = 1:

       Center              X                  Y                   Z               Mass       
    ------------   -----------------  -----------------  -----------------  -----------------
           O         -0.778803000000     0.000000000000     1.132683000000    15.994914619560
           H         -0.664046405668     0.764099000000     1.706291000000     1.007825032070
           H         -0.666682000000    -0.764099000000     1.706290000000     1.007825032070

  Running in c1 symmetry.

  Rotational constants: A =     11.48684  B =      0.45582  C =      0.44515 [cm^-1]
  Rotational constants: A = 344366.79742  B =  13665.08355  C =  13345.33238 [MHz]
  Nuclear repulsion =    9.146138076314957

  Charge       = 0
  Multiplicity = 1
  Electrons    = 10
  Nalpha       = 5
  Nbeta        = 5

  ==> Algorithm <==

  SCF Algorithm Type is DF.
  DIIS enabled.
  MOM disabled.
  Fractional occupation disabled.
  Guess Type is SAD.
  Energy threshold   = 1.00e-10
  Density threshold  = 1.00e-08
  Integral threshold = 0.00e+00

  ==> Primary Basis <==

  Basis Set: file /Users/andysim/programming/psi4/obj_debug/stage/usr/local/psi4/share/psi4/basis/6-31gs.gbs
    Number of shells: 10
    Number of basis function: 19
    Number of Cartesian functions: 19
    Spherical Harmonics?: false
    Max angular momentum: 2

  ==> Pre-Iterations <==

   -------------------------------------------------------
    Irrep   Nso     Nmo     Nalpha   Nbeta   Ndocc  Nsocc
   -------------------------------------------------------
     A         19      19       0       0       0       0
   -------------------------------------------------------
    Total      19      19       5       5       5       0
   -------------------------------------------------------

  ==> Integral Setup <==

  ==> DFJK: Density-Fitted J/K Matrices <==

    J tasked:                  Yes
    K tasked:                  Yes
    wK tasked:                  No
    OpenMP threads:              1
    Integrals threads:           1
    Memory (MB):               357
    Algorithm:                Core
    Integral Cache:           NONE
    Schwarz Cutoff:          1E-12
    Fitting Condition:       1E-12

   => Auxiliary Basis Set <=

  Basis Set: file /Users/andysim/programming/psi4/obj_debug/stage/usr/local/psi4/share/psi4/basis/cc-pvdz-jkfit.gbs
    Number of shells: 42
    Number of basis function: 131
    Number of Cartesian functions: 131
    Spherical Harmonics?: false
    Max angular momentum: 3

   => External Potential Field:  <= 

    > Charges [a.u.] < 

              Z          x          y          z
       -0.83400    1.64923    0.00000   -2.35602
        0.41700    0.54476    0.00000   -3.79996
        0.41700    0.54476    0.00000   -0.91209

  Old nuclear repulsion        =    9.146138076314957
  Additional nuclear repulsion =    0.278923432828582
  Total nuclear repulsion      =    9.425061509143539

  Minimum eigenvalue in the overlap matrix is 2.2471546104E-02.
  Using Symmetric Orthogonalization.

  SCF Guess: Superposition of Atomic Densities via on-the-fly atomic UHF.

  ==> Iterations <==

                           Total Energy        Delta E     RMS |[F,P]|

   @DF-RHF iter   0:   -75.95819102956146   -7.59582e+01   8.77569e-02 
   @DF-RHF iter   1:   -75.98705586172288   -2.88648e-02   1.41016e-02 
   @DF-RHF iter   2:   -76.01245930729858   -2.54034e-02   6.99641e-03 DIIS
   @DF-RHF iter   3:   -76.01880929033270   -6.34998e-03   1.26907e-03 DIIS
   @DF-RHF iter   4:   -76.01931493786394   -5.05648e-04   3.81302e-04 DIIS
   @DF-RHF iter   5:   -76.01939478693730   -7.98491e-05   9.74978e-05 DIIS
   @DF-RHF iter   6:   -76.01940108479668   -6.29786e-06   1.29084e-05 DIIS
   @DF-RHF iter   7:   -76.01940117850802   -9.37113e-08   2.37088e-06 DIIS
   @DF-RHF iter   8:   -76.01940118155132   -3.04330e-09   4.66620e-07 DIIS
   @DF-RHF iter   9:   -76.01940118164663   -9.53122e-11   8.35412e-08 DIIS
   @DF-RHF iter  10:   -76.01940118164939   -2.75691e-12   2.16823e-08 DIIS
   @DF-RHF iter  11:   -76.01940118164967   -2.84217e-13   3.98928e-09 DIIS

  ==> Post-Iterations <==

    Orbital Energies (a.u.)
    -----------------------

    Doubly Occupied:                                                      

       1A    -20.586683     2A     -1.364152     3A     -0.730246  
       4A     -0.598189     5A     -0.524228  

    Virtual:                                                              

       6A      0.191843     7A      0.285527     8A      0.998433  
       9A      1.098590    10A      1.135806    11A      1.142885  
      12A      1.354119    13A      1.409251    14A      1.994975  
      15A      2.007904    16A      2.040888    17A      2.590950  
      18A      2.912928    19A      3.941663  

    Final Occupation by Irrep:
              A 
    DOCC [     5 ]

  Energy converged.

  @DF-RHF Final Energy:   -76.01940118164967

   => Energetics <=

    Nuclear Repulsion Energy =              9.4250615091435392
    One-Electron Energy =                -123.2819307408638139
    Two-Electron Energy =                  37.8374680500706262
    DFT Exchange-Correlation Energy =       0.0000000000000000
    Empirical Dispersion Energy =           0.0000000000000000
    PCM Polarization Energy =               0.0000000000000000
    EFP Energy =                            0.0000000000000000
    Total Energy =                        -76.0194011816496555



Properties will be evaluated at   0.000000,   0.000000,   0.000000 Bohr

Properties computed using the SCF density matrix

  Nuclear Dipole Moment: (a.u.)
     X:   -14.2885      Y:     0.0000      Z:    23.5725

  Electronic Dipole Moment: (a.u.)
     X:    14.4503      Y:    -0.0001      Z:   -22.6703

  Dipole Moment: (a.u.)
     X:     0.1618      Y:    -0.0001      Z:     0.9022     Total:     0.9166

  Dipole Moment: (Debye)
     X:     0.4113      Y:    -0.0002      Z:     2.2931     Total:     2.3297


  //>>>>>>>>>>>>>>>>>>>>>>>>>>>>>>>>>>>//
  //               DFMP2               //
  //<<<<<<<<<<<<<<<<<<<<<<<<<<<<<<<<<<<//

	 --------------------------------------------------------
	                          DF-MP2                         
	      2nd-Order Density-Fitted Moller-Plesset Theory     
	              RMP2 Wavefunction,   1 Threads             
	                                                         
	        Rob Parrish, Justin Turney, Andy Simmonett,      
	           Ed Hohenstein, and C. David Sherrill          
	 --------------------------------------------------------

   => Auxiliary Basis Set <=

  Basis Set: file /Users/andysim/programming/psi4/obj_debug/stage/usr/local/psi4/share/psi4/basis/cc-pvdz-ri.gbs
    Number of shells: 30
    Number of basis function: 84
    Number of Cartesian functions: 96
    Spherical Harmonics?: true
    Max angular momentum: 3

	 --------------------------------------------------------
	                 NBF =    19, NAUX =    84
	 --------------------------------------------------------
	   CLASS    FOCC     OCC    AOCC    AVIR     VIR    FVIR
	   PAIRS       0       5       5      14      14       0
	 --------------------------------------------------------

	-----------------------------------------------------------
	 ==================> DF-MP2 Energies <==================== 
	-----------------------------------------------------------
	 Reference Energy          =     -76.0194011816496698 [Eh]
	 Singles Energy            =      -0.0000000000000010 [Eh]
	 Same-Spin Energy          =      -0.0484806842811768 [Eh]
	 Opposite-Spin Energy      =      -0.1402196117231952 [Eh]
	 Correlation Energy        =      -0.1887002960043729 [Eh]
	 Total Energy              =     -76.2081014776540400 [Eh]
	-----------------------------------------------------------
	 ================> DF-SCS-MP2 Energies <================== 
	-----------------------------------------------------------
	 SCS Same-Spin Scale       =       0.3333333333333333 [-]
	 SCS Opposite-Spin Scale   =       1.2000000000000000 [-]
	 SCS Same-Spin Energy      =      -0.0161602280937256 [Eh]
	 SCS Opposite-Spin Energy  =      -0.1682635340678342 [Eh]
	 SCS Correlation Energy    =      -0.1844237621615608 [Eh]
	 SCS Total Energy          =     -76.2038249438112274 [Eh]
	-----------------------------------------------------------


*** tstop() called on QuickSilver.local at Fri Feb 17 09:38:24 2017
Module time:
	user time   =       0.58 seconds =       0.01 minutes
	system time =       0.01 seconds =       0.00 minutes
	total time  =          1 seconds =       0.02 minutes
Total time:
	user time   =       4.72 seconds =       0.08 minutes
	system time =       0.11 seconds =       0.00 minutes
	total time  =          5 seconds =       0.08 minutes

  //>>>>>>>>>>>>>>>>>>>>>>>>>>>>>>>>>>>//
  //    Loading displacement 9 of 19   //
  //<<<<<<<<<<<<<<<<<<<<<<<<<<<<<<<<<<<//

*** tstart() called on QuickSilver.local
*** at Fri Feb 17 09:38:24 2017


         ---------------------------------------------------------
                                   SCF
            by Justin Turney, Rob Parrish, and Andy Simmonett
                              RHF Reference
                        1 Threads,    500 MiB Core
         ---------------------------------------------------------

  ==> Geometry <==

    Molecular point group: c1
    Full point group: C1

    Geometry (in Angstrom), charge = 0, multiplicity = 1:

       Center              X                  Y                   Z               Mass       
    ------------   -----------------  -----------------  -----------------  -----------------
           O         -0.778803000000     0.000000000000     1.132683000000    15.994914619560
           H         -0.666682000000     0.761463405668     1.706291000000     1.007825032070
           H         -0.666682000000    -0.764099000000     1.706290000000     1.007825032070

  Running in c1 symmetry.

  Rotational constants: A =     11.53086  B =      0.45577  C =      0.44514 [cm^-1]
  Rotational constants: A = 345686.42696  B =  13663.77651  C =  13344.96957 [MHz]
  Nuclear repulsion =    9.157748787276153

  Charge       = 0
  Multiplicity = 1
  Electrons    = 10
  Nalpha       = 5
  Nbeta        = 5

  ==> Algorithm <==

[...]
   @DF-RHF iter   7:   -76.01941122706279   -7.40039e-08   1.65808e-06 DIIS
   @DF-RHF iter   8:   -76.01941122848724   -1.42445e-09   3.41336e-07 DIIS
   @DF-RHF iter   9:   -76.01941122854117   -5.39302e-11   6.32057e-08 DIIS
   @DF-RHF iter  10:   -76.01941122854302   -1.84741e-12   1.66943e-08 DIIS
   @DF-RHF iter  11:   -76.01941122854318   -1.56319e-13   2.76412e-09 DIIS

  ==> Post-Iterations <==

    Orbital Energies (a.u.)
    -----------------------

    Doubly Occupied:                                                      

       1A    -20.586638     2A     -1.364209     3A     -0.730374  
       4A     -0.598176     5A     -0.524223  

    Virtual:                                                              

       6A      0.191881     7A      0.285573     8A      0.998607  
       9A      1.098592    10A      1.135870    11A      1.142910  
      12A      1.354188    13A      1.409183    14A      1.994997  
      15A      2.007853    16A      2.040889    17A      2.591169  
      18A      2.913219    19A      3.941789  

    Final Occupation by Irrep:
              A 
    DOCC [     5 ]

  Energy converged.

  @DF-RHF Final Energy:   -76.01941122854318

   => Energetics <=

    Nuclear Repulsion Energy =              9.4264780387548672
    One-Electron Energy =                -123.2845377058328893
    Two-Electron Energy =                  37.8386484385348538
    DFT Exchange-Correlation Energy =       0.0000000000000000
    Empirical Dispersion Energy =           0.0000000000000000
    PCM Polarization Energy =               0.0000000000000000
    EFP Energy =                            0.0000000000000000
    Total Energy =                        -76.0194112285431629

    Alert: EFP and PCM quantities not currently incorporated into SCF psivars.

Properties will be evaluated at   0.000000,   0.000000,   0.000000 Bohr

Properties computed using the SCF density matrix

  Nuclear Dipole Moment: (a.u.)
     X:   -14.2935      Y:     0.0000      Z:    23.5725

  Electronic Dipole Moment: (a.u.)
     X:    14.4533      Y:    -0.0000      Z:   -22.6702

  Dipole Moment: (a.u.)
     X:     0.1598      Y:    -0.0000      Z:     0.9023     Total:     0.9164

  Dipole Moment: (Debye)
     X:     0.4063      Y:    -0.0000      Z:     2.2935     Total:     2.3292


  //>>>>>>>>>>>>>>>>>>>>>>>>>>>>>>>>>>>//
  //               DFMP2               //
  //<<<<<<<<<<<<<<<<<<<<<<<<<<<<<<<<<<<//

	 --------------------------------------------------------
	                          DF-MP2                         
	      2nd-Order Density-Fitted Moller-Plesset Theory     
	              RMP2 Wavefunction,   1 Threads             
	                                                         
	        Rob Parrish, Justin Turney, Andy Simmonett,      
	           Ed Hohenstein, and C. David Sherrill          
	 --------------------------------------------------------

   => Auxiliary Basis Set <=

  Basis Set: file /Users/andysim/programming/psi4/obj_debug/stage/usr/local/psi4/share/psi4/basis/cc-pvdz-ri.gbs
    Number of shells: 30
    Number of basis function: 84
    Number of Cartesian functions: 96
    Spherical Harmonics?: true
    Max angular momentum: 3

	 --------------------------------------------------------
	                 NBF =    19, NAUX =    84
	 --------------------------------------------------------
	   CLASS    FOCC     OCC    AOCC    AVIR     VIR    FVIR
	   PAIRS       0       5       5      14      14       0
	 --------------------------------------------------------

	-----------------------------------------------------------
	 ==================> DF-MP2 Energies <==================== 
	-----------------------------------------------------------
	 Reference Energy          =     -76.0194112285431771 [Eh]
	 Singles Energy            =      -0.0000000000000003 [Eh]
	 Same-Spin Energy          =      -0.0484779565293744 [Eh]
	 Opposite-Spin Energy      =      -0.1402084280293517 [Eh]
	 Correlation Energy        =      -0.1886863845587264 [Eh]
	 Total Energy              =     -76.2080976131018986 [Eh]
	-----------------------------------------------------------
	 ================> DF-SCS-MP2 Energies <================== 
	-----------------------------------------------------------
	 SCS Same-Spin Scale       =       0.3333333333333333 [-]
	 SCS Opposite-Spin Scale   =       1.2000000000000000 [-]
	 SCS Same-Spin Energy      =      -0.0161593188431248 [Eh]
	 SCS Opposite-Spin Energy  =      -0.1682501136352220 [Eh]
	 SCS Correlation Energy    =      -0.1844094324783472 [Eh]
	 SCS Total Energy          =     -76.2038206610215241 [Eh]
	-----------------------------------------------------------


*** tstop() called on QuickSilver.local at Fri Feb 17 09:38:31 2017
Module time:
	user time   =       0.58 seconds =       0.01 minutes
	system time =       0.01 seconds =       0.00 minutes
	total time  =          1 seconds =       0.02 minutes
Total time:
	user time   =      11.21 seconds =       0.19 minutes
	system time =       0.25 seconds =       0.00 minutes
	total time  =         12 seconds =       0.20 minutes

-------------------------------------------------------------

  Computing gradient from energies (fd_1_0).
	Using 3-point formula.
	Energy without displacement:  -76.2080976131
	Check energies below for precision!
	Forces are for mass-weighted, symmetry-adapted cartesians (in au).

	 Coord      Energy(-)        Energy(+)        Force
	    0    -76.2080960403   -76.2080991658    -0.0003125455
	    1    -76.2080970533   -76.2080970538    -0.0000000555
	    2    -76.2081147373   -76.2080797764     0.0034960875
	    3    -76.2080936130   -76.2081014777    -0.0007864695
	    4    -76.2080717867   -76.2081138522    -0.0042065561
	    5    -76.2080704633   -76.2081194105    -0.0048947235
	    6    -76.2080936126   -76.2081014781    -0.0007865484
	    7    -76.2081138547   -76.2080717841     0.0042070578
	    8    -76.2080704613   -76.2081194124    -0.0048951044

	Gradient written.

-------------------------------------------------------------
  Irrep: 1 Size: 3 x 3

                 1                   2                   3

    1    -0.00124998312953    -0.00000022193259     0.01398212763212
    2    -0.00078954056773    -0.00422298229311    -0.00491383687789
    3    -0.00078961974167     0.00422348593081    -0.00491421921598



gradient() will perform analytic gradient computation.

*** tstart() called on QuickSilver.local
*** at Fri Feb 17 09:38:31 2017


         ---------------------------------------------------------
                                   SCF
            by Justin Turney, Rob Parrish, and Andy Simmonett
                              RHF Reference
                        1 Threads,    500 MiB Core
         ---------------------------------------------------------

  ==> Geometry <==

    Molecular point group: c1
    Full point group: C1

    Geometry (in Angstrom), charge = 0, multiplicity = 1:

       Center              X                  Y                   Z               Mass       
    ------------   -----------------  -----------------  -----------------  -----------------
           O         -0.778803000000     0.000000000000     1.132683000000    15.994914619560
           H         -0.666682000000     0.764099000000     1.706291000000     1.007825032070
           H         -0.666682000000    -0.764099000000     1.706290000000     1.007825032070

  Running in c1 symmetry.

  Rotational constants: A =     11.49898  B =      0.45577  C =      0.44509 [cm^-1]
  Rotational constants: A = 344730.75741  B =  13663.77640  C =  13343.54211 [MHz]
  Nuclear repulsion =    9.147559595308433

  Charge       = 0
  Multiplicity = 1
  Electrons    = 10
  Nalpha       = 5
  Nbeta        = 5

  ==> Algorithm <==

  SCF Algorithm Type is DF.
  DIIS enabled.
  MOM disabled.
  Fractional occupation disabled.
  Guess Type is SAD.
  Energy threshold   = 1.00e-10
  Density threshold  = 1.00e-08
  Integral threshold = 0.00e+00

  ==> Primary Basis <==

  Basis Set: file /Users/andysim/programming/psi4/obj_debug/stage/usr/local/psi4/share/psi4/basis/6-31gs.gbs
    Number of shells: 10
    Number of basis function: 19
    Number of Cartesian functions: 19
    Spherical Harmonics?: false
    Max angular momentum: 2

  ==> Pre-Iterations <==

   -------------------------------------------------------
    Irrep   Nso     Nmo     Nalpha   Nbeta   Ndocc  Nsocc
   -------------------------------------------------------
     A         19      19       0       0       0       0
   -------------------------------------------------------
    Total      19      19       5       5       5       0
   -------------------------------------------------------

  ==> Integral Setup <==

  ==> DFJK: Density-Fitted J/K Matrices <==

    J tasked:                  Yes
    K tasked:                  Yes
    wK tasked:                  No
    OpenMP threads:              1
    Integrals threads:           1
    Memory (MB):               357
    Algorithm:                Core
    Integral Cache:           NONE
    Schwarz Cutoff:          1E-12
    Fitting Condition:       1E-12

   => Auxiliary Basis Set <=

  Basis Set: file /Users/andysim/programming/psi4/obj_debug/stage/usr/local/psi4/share/psi4/basis/cc-pvdz-jkfit.gbs
    Number of shells: 42
    Number of basis function: 131
    Number of Cartesian functions: 131
    Spherical Harmonics?: false
    Max angular momentum: 3

   => External Potential Field:  <= 

    > Charges [a.u.] < 

              Z          x          y          z
       -0.83400    1.64923    0.00000   -2.35602
        0.41700    0.54476    0.00000   -3.79996
        0.41700    0.54476    0.00000   -0.91209

  Old nuclear repulsion        =    9.147559595308433
  Additional nuclear repulsion =    0.278918443446434
  Total nuclear repulsion      =    9.426478038754867

  Minimum eigenvalue in the overlap matrix is 2.2466036533E-02.
  Using Symmetric Orthogonalization.

  SCF Guess: Superposition of Atomic Densities via on-the-fly atomic UHF.

  ==> Iterations <==

                           Total Energy        Delta E     RMS |[F,P]|

   @DF-RHF iter   0:   -75.94024437987360   -7.59402e+01   8.76458e-02 
   @DF-RHF iter   1:   -75.99023668249013   -4.99923e-02   1.36135e-02 
   @DF-RHF iter   2:   -76.01308485847774   -2.28482e-02   6.74079e-03 DIIS
   @DF-RHF iter   3:   -76.01893263724749   -5.84778e-03   1.15968e-03 DIIS
   @DF-RHF iter   4:   -76.01933939941938   -4.06762e-04   3.42921e-04 DIIS
   @DF-RHF iter   5:   -76.01940516314254   -6.57637e-05   9.26520e-05 DIIS
   @DF-RHF iter   6:   -76.01941115305881   -5.98992e-06   1.11618e-05 DIIS
   @DF-RHF iter   7:   -76.01941122706278   -7.40040e-08   1.65808e-06 DIIS
   @DF-RHF iter   8:   -76.01941122848723   -1.42445e-09   3.41336e-07 DIIS
   @DF-RHF iter   9:   -76.01941122854124   -5.40155e-11   6.32057e-08 DIIS
   @DF-RHF iter  10:   -76.01941122854302   -1.77636e-12   1.66943e-08 DIIS
   @DF-RHF iter  11:   -76.01941122854316   -1.42109e-13   2.76412e-09 DIIS

  ==> Post-Iterations <==

    Orbital Energies (a.u.)
    -----------------------

    Doubly Occupied:                                                      

       1A    -20.586638     2A     -1.364209     3A     -0.730374  
       4A     -0.598176     5A     -0.524223  

    Virtual:                                                              

       6A      0.191881     7A      0.285573     8A      0.998607  
       9A      1.098592    10A      1.135870    11A      1.142910  
      12A      1.354188    13A      1.409183    14A      1.994997  
      15A      2.007853    16A      2.040889    17A      2.591169  
      18A      2.913219    19A      3.941789  

    Final Occupation by Irrep:
              A 
    DOCC [     5 ]

  Energy converged.

  @DF-RHF Final Energy:   -76.01941122854316

   => Energetics <=

    Nuclear Repulsion Energy =              9.4264780387548672
    One-Electron Energy =                -123.2845377058329319
    Two-Electron Energy =                  37.8386484385349036
    DFT Exchange-Correlation Energy =       0.0000000000000000
    Empirical Dispersion Energy =           0.0000000000000000
    PCM Polarization Energy =               0.0000000000000000
    EFP Energy =                            0.0000000000000000
    Total Energy =                        -76.0194112285431629



Properties will be evaluated at   0.000000,   0.000000,   0.000000 Bohr

Properties computed using the SCF density matrix

  Nuclear Dipole Moment: (a.u.)
     X:   -14.2935      Y:     0.0000      Z:    23.5725

  Electronic Dipole Moment: (a.u.)
     X:    14.4533      Y:    -0.0000      Z:   -22.6702

  Dipole Moment: (a.u.)
     X:     0.1598      Y:    -0.0000      Z:     0.9023     Total:     0.9164

  Dipole Moment: (Debye)
     X:     0.4063      Y:    -0.0000      Z:     2.2935     Total:     2.3292


  //>>>>>>>>>>>>>>>>>>>>>>>>>>>>>>>>>>>//
  //               DFMP2               //
  //<<<<<<<<<<<<<<<<<<<<<<<<<<<<<<<<<<<//

	 --------------------------------------------------------
	                          DF-MP2                         
	      2nd-Order Density-Fitted Moller-Plesset Theory     
	              RMP2 Wavefunction,   1 Threads             
	                                                         
	        Rob Parrish, Justin Turney, Andy Simmonett,      
	           Ed Hohenstein, and C. David Sherrill          
	 --------------------------------------------------------

   => Auxiliary Basis Set <=

  Basis Set: file /Users/andysim/programming/psi4/obj_debug/stage/usr/local/psi4/share/psi4/basis/cc-pvdz-ri.gbs
    Number of shells: 30
    Number of basis function: 84
    Number of Cartesian functions: 96
    Spherical Harmonics?: true
    Max angular momentum: 3

	 --------------------------------------------------------
	                 NBF =    19, NAUX =    84
	 --------------------------------------------------------
	   CLASS    FOCC     OCC    AOCC    AVIR     VIR    FVIR
	   PAIRS       0       5       5      14      14       0
	 --------------------------------------------------------


         ------------------------------------------------------------
                                     CPHF                           
                                  Rob Parrish                       
         ------------------------------------------------------------

  ==> Geometry <==

    Molecular point group: c1
    Full point group: C1

    Geometry (in Angstrom), charge = 0, multiplicity = 1:

       Center              X                  Y                   Z               Mass       
    ------------   -----------------  -----------------  -----------------  -----------------
           O         -0.778803000000     0.000000000000     1.132683000000    15.994914619560
           H         -0.666682000000     0.764099000000     1.706291000000     1.007825032070
           H         -0.666682000000    -0.764099000000     1.706290000000     1.007825032070

  Nuclear repulsion =    9.147559595308433
  Reference energy  =  -76.019411228543163

  ==> Basis Set <==

  Basis Set: file /Users/andysim/programming/psi4/obj_debug/stage/usr/local/psi4/share/psi4/basis/6-31gs.gbs
    Number of shells: 10
    Number of basis function: 19
    Number of Cartesian functions: 19
    Spherical Harmonics?: false
    Max angular momentum: 2

  ==> CGRSolver (by Rob Parrish) <==

   Number of roots    =         1
   Preconditioning    =    JACOBI
   Convergence cutoff =     1E-06
   Maximum iterations =       100

  ==> CPHFRHamiltonian (by Rob Parrish) <== 

  ==> DFJK: Density-Fitted J/K Matrices <==

    J tasked:                  Yes
    K tasked:                  Yes
    wK tasked:                  No
    OpenMP threads:              1
    Integrals threads:           1
    Memory (MB):               357
    Algorithm:                Core
    Integral Cache:           NONE
    Schwarz Cutoff:          1E-12
    Fitting Condition:       1E-12

   => Auxiliary Basis Set <=

  Basis Set: file /Users/andysim/programming/psi4/obj_debug/stage/usr/local/psi4/share/psi4/basis/cc-pvdz-jkfit.gbs
    Number of shells: 42
    Number of basis function: 131
    Number of Cartesian functions: 131
    Spherical Harmonics?: false
    Max angular momentum: 3

  ==> CPHF Iterations <==

  => Iterations <=

             Iter  Converged  Remaining    Residual
  CGR           1          0          1   6.602E-02
  CGR           2          0          1   1.433E-02
  CGR           3          0          1   2.165E-03
  CGR           4          0          1   4.305E-04
  CGR           5          0          1   8.106E-05
  CGR           6          0          1   1.665E-05
  CGR           7          0          1   2.769E-06
  CGR           8          1          0   6.889E-07

    CGRSolver converged.

  ## External Potential Gradient (Symmetry 0) ##
  Irrep: 1 Size: 3 x 3

                 1                   2                   3

    1    -0.00446220029017     0.00000000431488     0.00527523187358
    2     0.00081611590265     0.00232391234326    -0.00055999123033
    3     0.00081611654914    -0.00232391492458    -0.00055999387368



  ==> DFCorrGrad: Density-Fitted Correlated Gradients <==

    OpenMP threads:              1
    Integrals threads:           1
    Memory (MB):               357
    Schwarz Cutoff:          0E+00
    Fitting Condition:       1E-12

   => Auxiliary Basis Set <=

  Basis Set: file /Users/andysim/programming/psi4/obj_debug/stage/usr/local/psi4/share/psi4/basis/cc-pvdz-jkfit.gbs
    Number of shells: 42
    Number of basis function: 131
    Number of Cartesian functions: 131
    Spherical Harmonics?: false
    Max angular momentum: 3

	-----------------------------------------------------------
	 ==================> DF-MP2 Energies <==================== 
	-----------------------------------------------------------
	 Reference Energy          =     -76.0194112285431629 [Eh]
	 Singles Energy            =      -0.0000000000000003 [Eh]
	 Same-Spin Energy          =      -0.0484779565293746 [Eh]
	 Opposite-Spin Energy      =      -0.1402084280293518 [Eh]
	 Correlation Energy        =      -0.1886863845587267 [Eh]
	 Total Energy              =     -76.2080976131018843 [Eh]
	-----------------------------------------------------------
	 ================> DF-SCS-MP2 Energies <================== 
	-----------------------------------------------------------
	 SCS Same-Spin Scale       =       0.3333333333333333 [-]
	 SCS Opposite-Spin Scale   =       1.2000000000000000 [-]
	 SCS Same-Spin Energy      =      -0.0161593188431249 [Eh]
	 SCS Opposite-Spin Energy  =      -0.1682501136352222 [Eh]
	 SCS Correlation Energy    =      -0.1844094324783473 [Eh]
	 SCS Total Energy          =     -76.2038206610215099 [Eh]
	-----------------------------------------------------------


  -Total Gradient:
     Atom            X                  Y                   Z
    ------   -----------------  -----------------  -----------------
       1       -0.001249970169    -0.000000510745     0.013982159470
       2       -0.000789958585    -0.004219518955    -0.004913264505
       3       -0.000790039084     0.004220031434    -0.004913648195


*** tstop() called on QuickSilver.local at Fri Feb 17 09:38:32 2017
Module time:
	user time   =       1.09 seconds =       0.02 minutes
	system time =       0.04 seconds =       0.00 minutes
	total time  =          1 seconds =       0.02 minutes
Total time:
	user time   =      12.31 seconds =       0.21 minutes
	system time =       0.29 seconds =       0.00 minutes
	total time  =         13 seconds =       0.22 minutes
	Finite difference (3-pt.) vs. analytic gradient to 10^-5..........PASSED
	Finite difference energy..........................................PASSED
	Analytic energy...................................................PASSED

*** Psi4 exiting successfully. Buy a developer a beer!
