
    -----------------------------------------------------------------------
          Psi4: An Open-Source Ab Initio Electronic Structure Package
                               Psi4 1.1rc3.dev5 

                         Git: Rev {master} 3fbd859 


    R. M. Parrish, L. A. Burns, D. G. A. Smith, A. C. Simmonett,
    A. E. DePrince III, E. G. Hohenstein, U. Bozkaya, A. Yu. Sokolov,
    R. Di Remigio, R. M. Richard, J. F. Gonthier, A. M. James,
    H. R. McAlexander, A. Kumar, M. Saitow, X. Wang, B. P. Pritchard,
    P. Verma, H. F. Schaefer III, K. Patkowski, R. A. King, E. F. Valeev,
    F. A. Evangelista, J. M. Turney, T. D. Crawford, and C. D. Sherrill,
    J. Chem. Theory Comput. in press (2017).
    (doi: 10.1021/acs.jctc.7b00174)

    -----------------------------------------------------------------------


    Psi4 started on: Monday, 15 May 2017 03:39PM

    Process ID:  15219
    PSIDATADIR: /home/psilocaluser/gits/hrw-direct/objdir4/stage/usr/local/psi4/share/psi4
    Memory:     500.0 MiB
    Threads:    1
    
  ==> Input File <==

--------------------------------------------------------------------------
#! This checks that all energy methods can run with
#! a minimal input and set symmetry.

import random

molecule water {
  0 1
  O
  H  1  1.07
  H  1  1.07  2  109.5
}

sym = 'cs'
set reference uhf

#-------------------------------------------------------------------------------------------

print('  Checking gradient methods (ground state) ...')

set basis sto-3g
# three keywords below are so test can pass with default max_am_eri=5
set df_basis_scf cc-pvdz-jkfit
set df_basis_mp2 cc-pvdz-ri
set df_basis_cc cc-pvdz-ri

Earray = [
  'SCF',
  'CCSD',
  'CCSD(T)',
  'MP2',
  'DCFT',
  'OMP2',
  'OMP3',
  'MP3',
  'MP2.5',
  'OMP2.5',
  'LCCD',
  'OLCCD',
  'BP86',
]
random.shuffle(Earray)

for method in Earray:
   water.reset_point_group(sym)
   water.fix_orientation(True)
   water.update_geometry()

   banner('Testing %s' % (method)) 
   G, wfn = gradient(method, return_wfn=True)
   ans = wfn.energy()
   print('%16s\t%s\t%s\t%s' % (method, water.schoenflies_symbol(), get_variable('CURRENT ENERGY') - ans, ans))
   clean()

#-------------------------------------------------------------------------------------------

print('  Checking gradient methods (excited state) ...')

Earray = [
  'EOM-CCSD',
]
random.shuffle(Earray)

set basis 6-31g
set roots_per_irrep [1, 1]
#set roots_per_irrep [1]

for method in Earray:
   water.reset_point_group(sym)
   water.fix_orientation(True)
   water.update_geometry()

   banner('Testing %s' % (method)) 
   G, wfn = gradient(method, return_wfn=True)
   ans = wfn.energy()
   print('%16s\t%s\t%s\t%s' % (method, water.schoenflies_symbol(), get_variable('CURRENT ENERGY') - ans, ans))
   clean()

#-------------------------------------------------------------------------------------------

print('  Checking energy methods (ground state) ...')

Earray = [
  'SCF',
  'MP2',
  'MCSCF',
  'CC2',
  'CCSD',
  'BCCD',
  'CC3',
  'CCSD(T)',
  'BCCD(T)',
  'MP3',
#  'ZAPT3',
#  'CISD',
#  'FCI',
  'DCFT',
  'MP2.5',
  'OLCCD',
  'LCCD',
  'BP86',
  'B2PLYP-D',
]
random.shuffle(Earray)

set basis sto-3g

for method in Earray:
   water.reset_point_group(sym)
   water.fix_orientation(True)
   water.update_geometry()

   banner('Testing %s' % (method)) 
   ans = energy(method)
   print('%16s\t%s\t%s\t%s' % (method, water.schoenflies_symbol(), get_variable('CURRENT ENERGY') - ans, ans))
   clean()

#-------------------------------------------------------------------------------------------

print('  Checking energy methods (ground state, non-minimal basis) ...')

set basis 6-31g

Earray = [
#  'MP4',
#  'MP4(SDQ)',
#  'CEPA(0)',
#  'CEPA(1)',
#  'CEPA(3)',
#  'ACPF',
#  'AQCC',
#  'SDCI',
#  'DCI',
#  'FNO-DF-CCSD(T)',
]
random.shuffle(Earray)

for method in Earray:
   water.reset_point_group(sym)
   water.fix_orientation(True)
   water.update_geometry()

   banner('Testing %s' % (method)) 
   ans = energy(method)
   print('%16s\t%s\t%s\t%s' % (method, water.schoenflies_symbol(), get_variable('CURRENT ENERGY') - ans, ans))
   clean()

#-------------------------------------------------------------------------------------------

print('  Checking energy methods (excited state) ...')

set roots_per_irrep [1, 1]
#set roots_per_irrep [1]
set basis sto-3g

Earray = [
#  'ADC',
#  'EOM-CC2',
  'EOM-CCSD',
  'EOM-CC3',
]
random.shuffle(Earray)

for method in Earray:
   water.reset_point_group(sym)
   water.fix_orientation(True)
   water.update_geometry()

   banner('Testing %s' % (method)) 
   ans = energy(method)
   print('%16s\t%s\t%s\t%s' % (method, water.schoenflies_symbol(), get_variable('CURRENT ENERGY') - ans, ans))
   clean()

#-------------------------------------------------------------------------------------------

print('  Checking energy methods (sapt) ...')

molecule water {
0 1
O  -1.551007  -0.114520   0.000000
H  -1.934259   0.762503   0.000000
H  -0.599677   0.040712   0.000000
--
0 1
O   1.350625   0.111469   0.000000
H   1.680398  -0.373741  -0.758561
H   1.680398  -0.373741   0.758561
units angstrom
}

set basis sto-3g

Earray = [
#  'SAPT0',
#  'SAPT2+3',
#  'SAPT0-CT',
#  'SAPT2+(CCD)-CT',
  ]
random.shuffle(Earray)

for method in Earray:
   water.reset_point_group(sym)
   water.fix_orientation(True)
   water.update_geometry()

   banner('Testing %s' % (method)) 
   ans = energy(method)
   print('%16s\t%s\t%s\t%s' % (method, water.schoenflies_symbol(), get_variable('CURRENT ENERGY') - ans, ans))
   clean()

compare_values(0.0, 0.0, 3, 'Nothing segfaulted')  #TEST


--------------------------------------------------------------------------
  //>>>>>>>>>>>>>>>>>>>>>>>>>>>>>>>>>>>//
  //            Testing OMP3           //
  //<<<<<<<<<<<<<<<<<<<<<<<<<<<<<<<<<<<//
gradient() will perform analytic gradient computation.

*** tstart() called on psinet
*** at Mon May 15 15:39:00 2017

   => Loading Basis Set <=

    Name: STO-3G
    Role: ORBITAL
    Keyword: BASIS
    atoms 1   entry O          line    80 file /home/psilocaluser/gits/hrw-direct/objdir4/stage/usr/local/psi4/share/psi4/basis/sto-3g.gbs 
    atoms 2-3 entry H          line    18 file /home/psilocaluser/gits/hrw-direct/objdir4/stage/usr/local/psi4/share/psi4/basis/sto-3g.gbs 


         ---------------------------------------------------------
                                   SCF
            by Justin Turney, Rob Parrish, and Andy Simmonett
                              UHF Reference
                        1 Threads,    500 MiB Core
         ---------------------------------------------------------

  ==> Geometry <==

    Molecular point group: cs
    Full point group: C2v

    Geometry (in Angstrom), charge = 0, multiplicity = 1:

       Center              X                  Y                   Z               Mass       
    ------------   -----------------  -----------------  -----------------  -----------------
           O          0.000000000000     0.000000000000    -0.069112509959    15.994914619560
           H          0.000000000000    -0.873806464023     0.548432843381     1.007825032070
           H          0.000000000000     0.873806464023     0.548432843381     1.007825032070

  Running in cs symmetry.

  Rotational constants: A =     24.69386  B =     10.95345  C =      7.58775 [cm^-1]
  Rotational constants: A = 740303.40356  B = 328376.10947  C = 227475.07417 [MHz]
  Nuclear repulsion =    8.215730229904695

  Charge       = 0
  Multiplicity = 1
  Electrons    = 10
  Nalpha       = 5
  Nbeta        = 5

  ==> Algorithm <==

  SCF Algorithm Type is PK.
  DIIS enabled.
  MOM disabled.
  Fractional occupation disabled.
  Guess Type is GWH.
  Energy threshold   = 1.00e-10
  Density threshold  = 1.00e-10
  Integral threshold = 0.00e+00

  ==> Primary Basis <==

  Basis Set: STO-3G
    Blend: STO-3G
    Number of shells: 5
    Number of basis function: 7
    Number of Cartesian functions: 7
    Spherical Harmonics?: true
    Max angular momentum: 1

  ==> Pre-Iterations <==

   -------------------------------------------------------
    Irrep   Nso     Nmo     Nalpha   Nbeta   Ndocc  Nsocc
   -------------------------------------------------------
     A'         6       6       0       0       0       0
     A"         1       1       0       0       0       0
   -------------------------------------------------------
    Total       7       7       5       5       5       0
   -------------------------------------------------------

  ==> Integral Setup <==

  Using in-core PK algorithm.
   Calculation information:
      Number of atoms:                   3
      Number of AO shells:               5
      Number of primitives:             15
      Number of atomic orbitals:         7
      Number of basis functions:         7

      Integral cutoff                 1.00e-12
      Number of threads:                 1

  Performing in-core PK
  Using 812 doubles for integral storage.
  We computed 120 shell quartets total.
  Whereas there are 120 unique shell quartets.
  ==> DiskJK: Disk-Based J/K Matrices <==

    J tasked:                  Yes
    K tasked:                  Yes
    wK tasked:                  No
    Memory (MB):               375
    Schwarz Cutoff:          1E-12

    OpenMP threads:              1
  Minimum eigenvalue in the overlap matrix is 4.1615931672E-01.
  Using Symmetric Orthogonalization.

  SCF Guess: Generalized Wolfsberg-Helmholtz.

  ==> Iterations <==

                        Total Energy        Delta E     RMS |[F,P]|

   @UHF iter   1:   -74.55757156271855   -7.45576e+01   1.07621e-01 
   @UHF iter   2:   -74.92733533816096   -3.69764e-01   2.45994e-02 DIIS
   @UHF iter   3:   -74.94605410071000   -1.87188e-02   6.52860e-03 DIIS
   @UHF iter   4:   -74.94802642026482   -1.97232e-03   1.40796e-03 DIIS
   @UHF iter   5:   -74.94813628923737   -1.09869e-04   4.04685e-04 DIIS
   @UHF iter   6:   -74.94814773639769   -1.14472e-05   4.58497e-06 DIIS
   @UHF iter   7:   -74.94814773703013   -6.32440e-10   6.43953e-08 DIIS
   @UHF iter   8:   -74.94814773703030   -1.70530e-13   3.03943e-10 DIIS
   @UHF iter   9:   -74.94814773703027    2.84217e-14   2.58781e-12 DIIS

  ==> Post-Iterations <==

   @Spin Contamination Metric:   3.552713679E-15
   @S^2 Expected:                0.000000000E+00
   @S^2 Observed:                3.552713679E-15
   @S   Expected:                0.000000000E+00
   @S   Observed:                0.000000000E+00

    Orbital Energies (a.u.)
    -----------------------

    Alpha Occupied:                                                       

       1Ap   -20.250169     2Ap    -1.214494     3Ap    -0.568527  
       4Ap    -0.427529     1App   -0.383234  

    Alpha Virtual:                                                        

       5Ap     0.490869     6Ap     0.632706  

    Beta Occupied:                                                        

       1Ap   -20.250169     2Ap    -1.214494     3Ap    -0.568527  
       4Ap    -0.427529     1App   -0.383234  

    Beta Virtual:                                                         

       5Ap     0.490869     6Ap     0.632706  

    Final Occupation by Irrep:
             Ap   App 
    DOCC [     4,    1 ]
    SOCC [     0,    0 ]

  Energy converged.

  @UHF Final Energy:   -74.94814773703027

   => Energetics <=

    Nuclear Repulsion Energy =              8.2157302299046950
    One-Electron Energy =                -120.6398498925227614
    Two-Electron Energy =                  37.4759719255877997
    DFT Exchange-Correlation Energy =       0.0000000000000000
    Empirical Dispersion Energy =           0.0000000000000000
    PCM Polarization Energy =               0.0000000000000000
    EFP Energy =                            0.0000000000000000
    Total Energy =                        -74.9481477370302684


  UHF NO Occupations:
  HONO-2 :    2 Ap 2.0000000
  HONO-1 :    3 Ap 2.0000000
  HONO-0 :    4 Ap 2.0000000
  LUNO+0 :    5 Ap 0.0000000
  LUNO+1 :    6 Ap -0.0000000



Properties will be evaluated at   0.000000,   0.000000,   0.000000 Bohr

Properties computed using the SCF density matrix

  Nuclear Dipole Moment: (a.u.)
     X:     0.0000      Y:    -0.0000      Z:     1.0279

  Electronic Dipole Moment: (a.u.)
     X:     0.0000      Y:    -0.0000      Z:    -0.4187

  Dipole Moment: (a.u.)
     X:     0.0000      Y:    -0.0000      Z:     0.6093     Total:     0.6093

  Dipole Moment: (Debye)
     X:     0.0000      Y:    -0.0000      Z:     1.5486     Total:     1.5486


*** tstop() called on psinet at Mon May 15 15:39:01 2017
Module time:
	user time   =       0.12 seconds =       0.00 minutes
	system time =       0.01 seconds =       0.00 minutes
	total time  =          1 seconds =       0.02 minutes
Total time:
	user time   =       0.12 seconds =       0.00 minutes
	system time =       0.01 seconds =       0.00 minutes
	total time  =          1 seconds =       0.02 minutes
 MINTS: Wrapper to libmints.
   by Justin Turney

   Calculation information:
      Number of threads:                 1
      Number of atoms:                   3
      Number of AO shells:               5
      Number of SO shells:               5
      Number of primitives:             15
      Number of atomic orbitals:         7
      Number of basis functions:         7

      Number of irreps:                  2
      Integral cutoff                 0.00e+00
      Number of functions per irrep: [   6    1 ]

 OEINTS: Overlap, kinetic, potential, dipole, and quadrupole integrals
         stored in file 35.

      Computing two-electron integrals...done
      Computed 231 non-zero two-electron integrals.
        Stored in file 33.


*** tstart() called on psinet
*** at Mon May 15 15:39:01 2017



  Options:
  ----------------------------------------------------------------------------
  ACTIVE                      => [  ]             
  BASIS_RELATIVISTIC          => (empty)          
  BENCH                       => 0                
  CACHELEVEL                  => 2                
  CCL_ENERGY                  => FALSE            
  CC_DIIS_MAX_VECS            => 6                
  CC_DIIS_MIN_VECS            => 2                
  CC_MAXITER                  => 50               
  CC_TYPE                     => CONV             
  CEPA_OS_SCALE               => 1.27             
  CEPA_SOS_SCALE              => 1.3              
  CEPA_SS_SCALE               => 1.13             
  CEPA_TYPE                   => CEPA0            
  CI_TYPE                     => CONV             
  CUBEPROP_BASIS_FUNCTIONS    => [  ]             
  CUBEPROP_FILEPATH           => .                
  CUBEPROP_ORBITALS           => [  ]             
  CUBEPROP_TASKS              => [  ]             
  CUBIC_BASIS_TOLERANCE       => 1e-12            
  CUBIC_BLOCK_MAX_POINTS      => 1000             
  CUBIC_GRID_OVERAGE          => [  ]             
  CUBIC_GRID_SPACING          => [  ]             
  CUTOFF                      => 14               
  DEBUG                       => 0                
  DERTYPE                     => FIRST           !
  DF_BASIS_CC                 => CC-PVDZ-RI      !
  DIE_IF_NOT_CONVERGED        => TRUE             
  DKH_ORDER                   => 2                
  DOCC                        => [  ]             
  DO_DIIS                     => TRUE             
  DO_LEVEL_SHIFT              => TRUE             
  DO_SCS                      => FALSE           !
  DO_SOS                      => FALSE           !
  E3_SCALE                    => 0.25             
  EA_POLES                    => FALSE            
  EKT_EA                      => FALSE            
  EKT_IP                      => FALSE            
  EP_EA_POLES                 => FALSE            
  EP_IP_POLES                 => FALSE            
  EP_MAXITER                  => 30               
  EXTERNAL_POTENTIAL_SYMMETRY => FALSE            
  E_CONVERGENCE               => 1e-08           !
  FREEZE_CORE                 => FALSE            
  FROZEN_DOCC                 => [  ]             
  FROZEN_UOCC                 => [  ]             
  INTEGRAL_PACKAGE            => LIBINT           
  IP_POLES                    => FALSE            
  LEVEL_SHIFT                 => 0.02             
  LINEQ_SOLVER                => CDGESV           
  LITERAL_CFOUR               => (empty)          
  MAT_NUM_COLUMN_PRINT        => 5                
  MAX_MOGRAD_CONVERGENCE      => 0.001            
  MOGRAD_DAMPING              => 1                
  MOLDEN_WITH_VIRTUAL         => TRUE             
  MO_DIIS_NUM_VECS            => 6                
  MO_MAXITER                  => 50               
  MO_READ                     => FALSE            
  MO_STEP_MAX                 => 0.5              
  MO_WRITE                    => FALSE            
  MP2_OS_SCALE                => 1.2              
  MP2_SOS_SCALE               => 1.3              
  MP2_SOS_SCALE2              => 1.2              
  MP2_SS_SCALE                => 0.333333         
  MP2_TYPE                    => DF               
  MP_TYPE                     => CONV             
  NAT_ORBS                    => FALSE            
  NUM_FROZEN_DOCC             => 0                
  NUM_FROZEN_UOCC             => 0                
  OCC_ORBS_PRINT              => FALSE            
  OEPROP                      => FALSE            
  OPT_METHOD                  => ORB_RESP         
  ORB_OPT                     => TRUE            !
  ORB_RESP_SOLVER             => PCG              
  ORTH_TYPE                   => MGS              
  PCG_BETA_TYPE               => FLETCHER_REEVES  
  PCG_CONVERGENCE             => 1e-06            
  PCG_MAXITER                 => 30               
  PCM                         => FALSE            
  PCM_CC_TYPE                 => PTE              
  PCM_SCF_TYPE                => TOTAL            
  PRINT                       => 1                
  PRINT_NOONS                 => 3                
  PROPERTIES                  => [  ]             
  PROPERTIES_ORIGIN           => [  ]             
  PUREAM                      => TRUE             
  QC_MODULE                   => (empty)          
  RAS1                        => [  ]             
  RAS2                        => [  ]             
  RAS3                        => [  ]             
  RAS4                        => [  ]             
  RELATIVISTIC                => NO               
  RELAXED                     => TRUE             
  RESTRICTED_DOCC             => [  ]             
  RESTRICTED_UOCC             => [  ]             
  RMS_MOGRAD_CONVERGENCE      => 1e-06            
  R_CONVERGENCE               => 1e-05            
  SCS_TYPE                    => SCS              
  SOCC                        => [  ]             
  SOS_TYPE                    => SOS              
  SYMMETRIZE                  => TRUE             
  TPDM_ABCD_TYPE              => DIRECT           
  UNITS                       => ANGSTROMS        
  WFN                         => SCF              
  WFN_TYPE                    => OMP3            !
  WRITER_FILE_LABEL           => (empty)          


 ============================================================================== 
 ============================================================================== 
 ============================================================================== 

                       OMP3 (OO-MP3)   
              Program Written by Ugur Bozkaya,
              Latest Revision June 25, 2014.

 ============================================================================== 
 ============================================================================== 
 ============================================================================== 

	RMS orbital gradient is changed to :     1.00e-06
	MAX orbital gradient is changed to :     1.00e-04
	MO spaces per irreps... 

	IRREP   FC   AOCC  BOCC  AVIR    BVIR  FV 
	==========================================
	  A'     0     4     4     2      2     0
	  A"     0     1     1     0      0     0
	==========================================

	Computing MP2 energy using SCF MOs (Canonical MP2)... 
	============================================================================== 
	Nuclear Repulsion Energy (a.u.)    :     8.21573022990470
	SCF Energy (a.u.)                  :   -74.94814773703027
	REF Energy (a.u.)                  :   -74.94814773703025
	Alpha-Alpha Contribution (a.u.)    :    -0.00132274872232
	Alpha-Beta Contribution (a.u.)     :    -0.04244499950757
	Beta-Beta Contribution (a.u.)      :    -0.00132274872232
	Scaled_SS Correlation Energy (a.u.):    -0.00088183248154
	Scaled_OS Correlation Energy (a.u.):    -0.05093399940909
	SCS-MP2 Total Energy (a.u.)        :   -74.99996356892089
	SOS-MP2 Total Energy (a.u.)        :   -75.00332623639009
	SCSN-MP2 Total Energy (a.u.)       :   -74.95280381253282
	SCS-MP2-VDW Total Energy (a.u.)    :   -75.00380008512226
	SOS-PI-MP2 Total Energy (a.u.)     :   -75.00757073634085
	MP2 Correlation Energy (a.u.)      :    -0.04509049695220
	MP2 Total Energy (a.u.)            :   -74.99323823398245
	============================================================================== 


	Computing MP3 energy using SCF MOs (Canonical MP3)... 
	============================================================================== 
	Nuclear Repulsion Energy (a.u.)    :     8.21573022990470
	SCF Energy (a.u.)                  :   -74.94814773703027
	REF Energy (a.u.)                  :   -74.94814773703025
	Alpha-Alpha Contribution (a.u.)    :    -0.00131698745103
	Alpha-Beta Contribution (a.u.)     :    -0.05550433006672
	Beta-Beta Contribution (a.u.)      :    -0.00131698745103
	MP2.5 Correlation Energy (a.u.)    :    -0.05161440096047
	MP2.5 Total Energy (a.u.)          :   -74.99976213799074
	SCS-MP3 Total Energy (a.u.)        :   -75.00322552092504
	SOS-MP3 Total Energy (a.u.)        :   -75.00658818839423
	SCSN-MP3 Total Energy (a.u.)       :   -74.95606576453696
	SCS-MP3-VDW Total Energy (a.u.)    :   -75.00706203712642
	SOS-PI-MP3 Total Energy (a.u.)     :   -75.01083268834500
	3rd Order Energy (a.u.)            :    -0.01304780801658
	MP3 Correlation Energy (a.u.)      :    -0.05813830496877
	MP3 Total Energy (a.u.)            :   -75.00628604199903
	============================================================================== 


	Number of alpha independent-pairs:  8
	Number of beta independent-pairs :  8

 ============================================================================== 
 ================ Performing OMP3 iterations... =============================== 
 ============================================================================== 
	            Minimizing MP3-L Functional 
	            --------------------------- 
 Iter       E_total           DE           RMS MO Grad      MAX MO Grad      RMS T2    
 ----    ---------------    ----------     -----------      -----------     ---------- 
   1     -75.0066699861     -3.84e-04       2.11e-04         1.64e-03        2.10e-05 
   2     -75.0066711288     -1.14e-06       7.50e-06         5.05e-05        4.71e-06 
   3     -75.0066711067      2.21e-08       4.36e-07         3.22e-06        9.47e-07 

 ============================================================================== 
 ======================== OMP3 ITERATIONS ARE CONVERGED ======================= 
 ============================================================================== 

	Orbitals are optimized now.
	Switching to the standard MP3 computation after semicanonicalization of the MOs... 

	Computing MP2 energy using optimized MOs... 
	============================================================================== 
	Nuclear Repulsion Energy (a.u.)    :     8.21573022990470
	SCF Energy (a.u.)                  :   -74.94814773703027
	REF Energy (a.u.)                  :   -74.94776061687384
	Alpha-Alpha Contribution (a.u.)    :    -0.00133320653269
	Alpha-Beta Contribution (a.u.)     :    -0.04301008719807
	Beta-Beta Contribution (a.u.)      :    -0.00133320653269
	Scaled_SS Correlation Energy (a.u.):    -0.00088880435513
	Scaled_OS Correlation Energy (a.u.):    -0.05161210463768
	SCS-MP2 Total Energy (a.u.)        :   -75.00026152586665
	SOS-MP2 Total Energy (a.u.)        :   -75.00367373023133
	SCSN-MP2 Total Energy (a.u.)       :   -74.95245350386892
	SCS-MP2-VDW Total Energy (a.u.)    :   -75.00414673502007
	SOS-PI-MP2 Total Energy (a.u.)     :   -75.00797473895113
	MP2 Correlation Energy (a.u.)      :    -0.05891048964834
	MP2 Total Energy (a.u.)            :   -74.99343711713729
	============================================================================== 


	Computing MP3 energy using optimized MOs... 
	============================================================================== 
	Nuclear Repulsion Energy (a.u.)    :     8.21573022990470
	SCF Energy (a.u.)                  :   -74.94814773703027
	REF Energy (a.u.)                  :   -74.94776061687384
	Alpha-Alpha Contribution (a.u.)    :    -0.00132387395004
	Alpha-Beta Contribution (a.u.)     :    -0.05626274174825
	Beta-Beta Contribution (a.u.)      :    -0.00132387395004
	MP2.5 Correlation Energy (a.u.)    :    -0.05190637479947
	MP2.5 Total Energy (a.u.)          :   -75.00005411182974
	SCS-MP3 Total Energy (a.u.)        :   -75.00357002321287
	SOS-MP3 Total Energy (a.u.)        :   -75.00698222757755
	SCSN-MP3 Total Energy (a.u.)       :   -74.95576200121515
	SCS-MP3-VDW Total Energy (a.u.)    :   -75.00745523236630
	SOS-PI-MP3 Total Energy (a.u.)     :   -75.01128323629736
	3rd Order Energy (a.u.)            :    -0.01323398938489
	MP3 Correlation Energy (a.u.)      :    -0.05891048964834
	MP3 Total Energy (a.u.)            :   -75.00667110652218
	============================================================================== 


	============================================================================== 
	================ OMP3 FINAL RESULTS ========================================== 
	============================================================================== 
	Nuclear Repulsion Energy (a.u.)    :     8.21573022990470
	SCF Energy (a.u.)                  :   -74.94814773703027
	REF Energy (a.u.)                  :   -74.94776061687384
	SCS-OMP3 Total Energy (a.u.)       :   -75.00357002321287
	SOS-OMP3 Total Energy (a.u.)       :   -75.00698222757755
	SCSN-OMP3 Total Energy (a.u.)      :   -74.95576200121515
	SCS-OMP3-VDW Total Energy (a.u.    :   -75.00745523236630
	SOS-PI-OMP3 Total Energy (a.u.)    :   -75.01128323629736
	OMP3 Correlation Energy (a.u.)     :    -0.05852336949191
	Eomp3 - Eref (a.u.)                :    -0.05891048964834
	OMP3 Total Energy (a.u.)           :   -75.00667110652218
	============================================================================== 

	Analytic gradient computation is starting...
	Computing G_abcd...
	Computing diagonal blocks of GFM...
	Writing particle density matrices and GFM to disk...
	Necessary information has been sent to DERIV, which will take care of the rest.

*** tstop() called on psinet at Mon May 15 15:39:01 2017
Module time:
	user time   =       0.05 seconds =       0.00 minutes
	system time =       0.11 seconds =       0.00 minutes
	total time  =          0 seconds =       0.00 minutes
Total time:
	user time   =       0.19 seconds =       0.00 minutes
	system time =       0.12 seconds =       0.00 minutes
	total time  =          1 seconds =       0.02 minutes
  Cartesian Displacement SALCs
  By SALC:
  Number of SALCs: 6, nirreps: 1
  Project out translations: False
  Project out rotations: False
	irrep = 0, ncomponent = 1
		0: atom 0, direction y, coef 1.000000
	irrep = 0, ncomponent = 1
		0: atom 0, direction z, coef 1.000000
	irrep = 0, ncomponent = 1
		0: atom 1, direction y, coef 1.000000
	irrep = 0, ncomponent = 1
		0: atom 1, direction z, coef 1.000000
	irrep = 0, ncomponent = 1
		0: atom 2, direction y, coef 1.000000
	irrep = 0, ncomponent = 1
		0: atom 2, direction z, coef 1.000000

  By Atomic Center:
  Number of atomic centers: 3
   Atomic Center 0:
	x component, size = 0
	y component, size = 1
		0: salc 0, irrep 0, coef 1.000000
	z component, size = 1
		0: salc 1, irrep 0, coef 1.000000
   Atomic Center 1:
	x component, size = 0
	y component, size = 1
		0: salc 2, irrep 0, coef 1.000000
	z component, size = 1
		0: salc 3, irrep 0, coef 1.000000
   Atomic Center 2:
	x component, size = 0
	y component, size = 1
		0: salc 4, irrep 0, coef 1.000000
	z component, size = 1
		0: salc 5, irrep 0, coef 1.000000

    Molecular point group: cs
    Full point group: C2v

    Geometry (in Bohr), charge = 0, multiplicity = 1:

       Center              X                  Y                   Z       
    ------------   -----------------  -----------------  -----------------
           O          0.000000000000     0.000000000000    -0.130603716179
           H          0.000000000000    -1.651254910149     1.036387876270
           H          0.000000000000     1.651254910149     1.036387876270

	Presorting MO-basis TPDMs.
	Sorting File: MO TPDM (AA|AA) nbuckets = 1
	Sorting File: MO TPDM (AA|aa) nbuckets = 1
	Sorting File: MO TPDM (aa|aa) nbuckets = 1
	Starting first half-transformation.
	Sorting half-transformed TPDMs.
	First half integral transformation complete.


  -Nuclear Repulsion Energy 1st Derivatives:
     Atom            X                  Y                   Z
    ------   -----------------  -----------------  -----------------
       1        0.000000000000    -0.000000000000     2.258602320406
       2        0.000000000000     1.689612026893    -1.129301160203
       3        0.000000000000    -1.689612026893    -1.129301160203


  -One-electron contribution to gradient:
     Atom            X                  Y                   Z
    ------   -----------------  -----------------  -----------------
       1        0.000000000000    -0.000000000000    -4.938612913824
       2        0.000000000000    -3.845588049385     2.469306456912
       3        0.000000000000     3.845588049385     2.469306456912


  -Lagrangian contribution to gradient:
     Atom            X                  Y                   Z
    ------   -----------------  -----------------  -----------------
       1        0.000000000000     0.000000000000     0.239491244279
       2        0.000000000000     0.152267436852    -0.119745622140
       3        0.000000000000    -0.152267436852    -0.119745622140


  -Two-electron contribution to gradient:
     Atom            X                  Y                   Z
    ------   -----------------  -----------------  -----------------
       1        0.000000000000     0.000000000000     2.441071949180
       2        0.000000000000     1.951100659080    -1.220535974590
       3        0.000000000000    -1.951100659080    -1.220535974590


  -Total gradient:
     Atom            X                  Y                   Z
    ------   -----------------  -----------------  -----------------
       1        0.000000000000     0.000000000000     0.000552600042
       2        0.000000000000    -0.052607926560    -0.000276300021
       3        0.000000000000     0.052607926560    -0.000276300021

  //>>>>>>>>>>>>>>>>>>>>>>>>>>>>>>>>>>>//
  //            Testing MP3            //
  //<<<<<<<<<<<<<<<<<<<<<<<<<<<<<<<<<<<//
gradient() will perform analytic gradient computation.

*** tstart() called on psinet
*** at Mon May 15 15:39:01 2017

   => Loading Basis Set <=

    Name: STO-3G
    Role: ORBITAL
    Keyword: BASIS
    atoms 1   entry O          line    80 file /home/psilocaluser/gits/hrw-direct/objdir4/stage/usr/local/psi4/share/psi4/basis/sto-3g.gbs 
    atoms 2-3 entry H          line    18 file /home/psilocaluser/gits/hrw-direct/objdir4/stage/usr/local/psi4/share/psi4/basis/sto-3g.gbs 


         ---------------------------------------------------------
                                   SCF
            by Justin Turney, Rob Parrish, and Andy Simmonett
                              UHF Reference
                        1 Threads,    500 MiB Core
         ---------------------------------------------------------

  ==> Geometry <==

    Molecular point group: cs
    Full point group: C2v

    Geometry (in Angstrom), charge = 0, multiplicity = 1:

       Center              X                  Y                   Z               Mass       
    ------------   -----------------  -----------------  -----------------  -----------------
           O          0.000000000000     0.000000000000    -0.069112509959    15.994914619560
           H          0.000000000000    -0.873806464023     0.548432843381     1.007825032070
           H          0.000000000000     0.873806464023     0.548432843381     1.007825032070

  Running in cs symmetry.

  Rotational constants: A =     24.69386  B =     10.95345  C =      7.58775 [cm^-1]
  Rotational constants: A = 740303.40356  B = 328376.10947  C = 227475.07417 [MHz]
  Nuclear repulsion =    8.215730229904697

  Charge       = 0
  Multiplicity = 1
  Electrons    = 10
  Nalpha       = 5
  Nbeta        = 5

  ==> Algorithm <==

  SCF Algorithm Type is PK.
  DIIS enabled.
  MOM disabled.
  Fractional occupation disabled.
  Guess Type is GWH.
  Energy threshold   = 1.00e-10
  Density threshold  = 1.00e-10
  Integral threshold = 0.00e+00

  ==> Primary Basis <==

  Basis Set: STO-3G
    Blend: STO-3G
    Number of shells: 5
    Number of basis function: 7
    Number of Cartesian functions: 7
    Spherical Harmonics?: true
    Max angular momentum: 1

  ==> Pre-Iterations <==

   -------------------------------------------------------
    Irrep   Nso     Nmo     Nalpha   Nbeta   Ndocc  Nsocc
   -------------------------------------------------------
     A'         6       6       0       0       0       0
     A"         1       1       0       0       0       0
   -------------------------------------------------------
    Total       7       7       5       5       5       0
   -------------------------------------------------------

  ==> Integral Setup <==

  Using in-core PK algorithm.
   Calculation information:
      Number of atoms:                   3
      Number of AO shells:               5
      Number of primitives:             15
      Number of atomic orbitals:         7
      Number of basis functions:         7

      Integral cutoff                 1.00e-12
      Number of threads:                 1

  Performing in-core PK
  Using 812 doubles for integral storage.
  We computed 120 shell quartets total.
  Whereas there are 120 unique shell quartets.
  ==> DiskJK: Disk-Based J/K Matrices <==

    J tasked:                  Yes
    K tasked:                  Yes
    wK tasked:                  No
    Memory (MB):               375
    Schwarz Cutoff:          1E-12

    OpenMP threads:              1
  Minimum eigenvalue in the overlap matrix is 4.1615931672E-01.
  Using Symmetric Orthogonalization.

  SCF Guess: Generalized Wolfsberg-Helmholtz.

  ==> Iterations <==

                        Total Energy        Delta E     RMS |[F,P]|

   @UHF iter   1:   -74.55757156271858   -7.45576e+01   1.07621e-01 
   @UHF iter   2:   -74.92733533816096   -3.69764e-01   2.45994e-02 DIIS
   @UHF iter   3:   -74.94605410071003   -1.87188e-02   6.52860e-03 DIIS
   @UHF iter   4:   -74.94802642026481   -1.97232e-03   1.40796e-03 DIIS
   @UHF iter   5:   -74.94813628923735   -1.09869e-04   4.04685e-04 DIIS
   @UHF iter   6:   -74.94814773639776   -1.14472e-05   4.58497e-06 DIIS
   @UHF iter   7:   -74.94814773703013   -6.32369e-10   6.43953e-08 DIIS
   @UHF iter   8:   -74.94814773703030   -1.70530e-13   3.03944e-10 DIIS
   @UHF iter   9:   -74.94814773703025    4.26326e-14   2.58763e-12 DIIS

  ==> Post-Iterations <==

   @Spin Contamination Metric:  -3.552713679E-15
   @S^2 Expected:                0.000000000E+00
   @S^2 Observed:               -3.552713679E-15
   @S   Expected:                0.000000000E+00
   @S   Observed:                0.000000000E+00

    Orbital Energies (a.u.)
    -----------------------

    Alpha Occupied:                                                       

       1Ap   -20.250169     2Ap    -1.214494     3Ap    -0.568527  
       4Ap    -0.427529     1App   -0.383234  

    Alpha Virtual:                                                        

       5Ap     0.490869     6Ap     0.632706  

    Beta Occupied:                                                        

       1Ap   -20.250169     2Ap    -1.214494     3Ap    -0.568527  
       4Ap    -0.427529     1App   -0.383234  

    Beta Virtual:                                                         

       5Ap     0.490869     6Ap     0.632706  

    Final Occupation by Irrep:
             Ap   App 
    DOCC [     4,    1 ]
    SOCC [     0,    0 ]

  Energy converged.

  @UHF Final Energy:   -74.94814773703025

   => Energetics <=

    Nuclear Repulsion Energy =              8.2157302299046968
    One-Electron Energy =                -120.6398498925227329
    Two-Electron Energy =                  37.4759719255877854
    DFT Exchange-Correlation Energy =       0.0000000000000000
    Empirical Dispersion Energy =           0.0000000000000000
    PCM Polarization Energy =               0.0000000000000000
    EFP Energy =                            0.0000000000000000
    Total Energy =                        -74.9481477370302542


  UHF NO Occupations:
  HONO-2 :    1App 2.0000000
  HONO-1 :    3 Ap 2.0000000
  HONO-0 :    4 Ap 2.0000000
  LUNO+0 :    5 Ap 0.0000000
  LUNO+1 :    6 Ap -0.0000000



Properties will be evaluated at   0.000000,   0.000000,   0.000000 Bohr

Properties computed using the SCF density matrix

  Nuclear Dipole Moment: (a.u.)
     X:     0.0000      Y:     0.0000      Z:     1.0279

  Electronic Dipole Moment: (a.u.)
     X:     0.0000      Y:     0.0000      Z:    -0.4187

  Dipole Moment: (a.u.)
     X:     0.0000      Y:     0.0000      Z:     0.6093     Total:     0.6093

  Dipole Moment: (Debye)
     X:     0.0000      Y:     0.0000      Z:     1.5486     Total:     1.5486


*** tstop() called on psinet at Mon May 15 15:39:01 2017
Module time:
	user time   =       0.11 seconds =       0.00 minutes
	system time =       0.01 seconds =       0.00 minutes
	total time  =          0 seconds =       0.00 minutes
Total time:
	user time   =       0.33 seconds =       0.01 minutes
	system time =       0.14 seconds =       0.00 minutes
	total time  =          1 seconds =       0.02 minutes
 MINTS: Wrapper to libmints.
   by Justin Turney

   Calculation information:
      Number of threads:                 1
      Number of atoms:                   3
      Number of AO shells:               5
      Number of SO shells:               5
      Number of primitives:             15
      Number of atomic orbitals:         7
      Number of basis functions:         7

      Number of irreps:                  2
      Integral cutoff                 0.00e+00
      Number of functions per irrep: [   6    1 ]

 OEINTS: Overlap, kinetic, potential, dipole, and quadrupole integrals
         stored in file 35.

      Computing two-electron integrals...done
      Computed 231 non-zero two-electron integrals.
        Stored in file 33.


*** tstart() called on psinet
*** at Mon May 15 15:39:01 2017



  Options:
  ----------------------------------------------------------------------------
  ACTIVE                      => [  ]             
  BASIS_RELATIVISTIC          => (empty)          
  BENCH                       => 0                
  CACHELEVEL                  => 2                
  CCL_ENERGY                  => FALSE            
  CC_DIIS_MAX_VECS            => 6                
  CC_DIIS_MIN_VECS            => 2                
  CC_MAXITER                  => 50               
  CC_TYPE                     => CONV             
  CEPA_OS_SCALE               => 1.27             
  CEPA_SOS_SCALE              => 1.3              
  CEPA_SS_SCALE               => 1.13             
  CEPA_TYPE                   => CEPA0            
  CI_TYPE                     => CONV             
  CUBEPROP_BASIS_FUNCTIONS    => [  ]             
  CUBEPROP_FILEPATH           => .                
  CUBEPROP_ORBITALS           => [  ]             
  CUBEPROP_TASKS              => [  ]             
  CUBIC_BASIS_TOLERANCE       => 1e-12            
  CUBIC_BLOCK_MAX_POINTS      => 1000             
  CUBIC_GRID_OVERAGE          => [  ]             
  CUBIC_GRID_SPACING          => [  ]             
  CUTOFF                      => 14               
  DEBUG                       => 0                
  DERTYPE                     => FIRST           !
  DF_BASIS_CC                 => CC-PVDZ-RI      !
  DIE_IF_NOT_CONVERGED        => TRUE             
  DKH_ORDER                   => 2                
  DOCC                        => [  ]             
  DO_DIIS                     => TRUE             
  DO_LEVEL_SHIFT              => TRUE             
  DO_SCS                      => FALSE           !
  DO_SOS                      => FALSE           !
  E3_SCALE                    => 0.25             
  EA_POLES                    => FALSE            
  EKT_EA                      => FALSE            
  EKT_IP                      => FALSE            
  EP_EA_POLES                 => FALSE            
  EP_IP_POLES                 => FALSE            
  EP_MAXITER                  => 30               
  EXTERNAL_POTENTIAL_SYMMETRY => FALSE            
  E_CONVERGENCE               => 1e-08           !
  FREEZE_CORE                 => FALSE            
  FROZEN_DOCC                 => [  ]             
  FROZEN_UOCC                 => [  ]             
  INTEGRAL_PACKAGE            => LIBINT           
  IP_POLES                    => FALSE            
  LEVEL_SHIFT                 => 0.02             
  LINEQ_SOLVER                => CDGESV           
  LITERAL_CFOUR               => (empty)          
  MAT_NUM_COLUMN_PRINT        => 5                
  MAX_MOGRAD_CONVERGENCE      => 0.001            
  MOGRAD_DAMPING              => 1                
  MOLDEN_WITH_VIRTUAL         => TRUE             
  MO_DIIS_NUM_VECS            => 6                
  MO_MAXITER                  => 50               
  MO_READ                     => FALSE            
  MO_STEP_MAX                 => 0.5              
  MO_WRITE                    => FALSE            
  MP2_OS_SCALE                => 1.2              
  MP2_SOS_SCALE               => 1.3              
  MP2_SOS_SCALE2              => 1.2              
  MP2_SS_SCALE                => 0.333333         
  MP2_TYPE                    => DF               
  MP_TYPE                     => CONV             
  NAT_ORBS                    => FALSE            
  NUM_FROZEN_DOCC             => 0                
  NUM_FROZEN_UOCC             => 0                
  OCC_ORBS_PRINT              => FALSE            
  OEPROP                      => FALSE            
  OPT_METHOD                  => ORB_RESP         
  ORB_OPT                     => FALSE           !
  ORB_RESP_SOLVER             => PCG              
  ORTH_TYPE                   => MGS              
  PCG_BETA_TYPE               => FLETCHER_REEVES  
  PCG_CONVERGENCE             => 1e-06            
  PCG_MAXITER                 => 30               
  PCM                         => FALSE            
  PCM_CC_TYPE                 => PTE              
  PCM_SCF_TYPE                => TOTAL            
  PRINT                       => 1                
  PRINT_NOONS                 => 3                
  PROPERTIES                  => [  ]             
  PROPERTIES_ORIGIN           => [  ]             
  PUREAM                      => TRUE             
  QC_MODULE                   => (empty)          
  RAS1                        => [  ]             
  RAS2                        => [  ]             
  RAS3                        => [  ]             
  RAS4                        => [  ]             
  RELATIVISTIC                => NO               
  RELAXED                     => TRUE             
  RESTRICTED_DOCC             => [  ]             
  RESTRICTED_UOCC             => [  ]             
  RMS_MOGRAD_CONVERGENCE      => 1e-06            
  R_CONVERGENCE               => 1e-05            
  SCS_TYPE                    => SCS              
  SOCC                        => [  ]             
  SOS_TYPE                    => SOS              
  SYMMETRIZE                  => TRUE             
  TPDM_ABCD_TYPE              => DIRECT           
  UNITS                       => ANGSTROMS        
  WFN                         => SCF              
  WFN_TYPE                    => OMP3            !
  WRITER_FILE_LABEL           => (empty)          


 ============================================================================== 
 ============================================================================== 
 ============================================================================== 

                       MP3   
              Program Written by Ugur Bozkaya,
              Latest Revision June 25, 2014.

 ============================================================================== 
 ============================================================================== 
 ============================================================================== 

	RMS orbital gradient is changed to :     1.00e-06
	MAX orbital gradient is changed to :     1.00e-04
	MO spaces per irreps... 

	IRREP   FC   AOCC  BOCC  AVIR    BVIR  FV 
	==========================================
	  A'     0     4     4     2      2     0
	  A"     0     1     1     0      0     0
	==========================================

	Computing MP2 energy using SCF MOs (Canonical MP2)... 
	============================================================================== 
	Nuclear Repulsion Energy (a.u.)    :     8.21573022990470
	SCF Energy (a.u.)                  :   -74.94814773703025
	REF Energy (a.u.)                  :   -74.94814773703025
	Alpha-Alpha Contribution (a.u.)    :    -0.00132274872232
	Alpha-Beta Contribution (a.u.)     :    -0.04244499950757
	Beta-Beta Contribution (a.u.)      :    -0.00132274872232
	Scaled_SS Correlation Energy (a.u.):    -0.00088183248154
	Scaled_OS Correlation Energy (a.u.):    -0.05093399940909
	SCS-MP2 Total Energy (a.u.)        :   -74.99996356892089
	SOS-MP2 Total Energy (a.u.)        :   -75.00332623639009
	SCSN-MP2 Total Energy (a.u.)       :   -74.95280381253282
	SCS-MP2-VDW Total Energy (a.u.)    :   -75.00380008512226
	SOS-PI-MP2 Total Energy (a.u.)     :   -75.00757073634085
	MP2 Correlation Energy (a.u.)      :    -0.04509049695220
	MP2 Total Energy (a.u.)            :   -74.99323823398245
	============================================================================== 


	Computing MP3 energy using SCF MOs (Canonical MP3)... 
	============================================================================== 
	Nuclear Repulsion Energy (a.u.)    :     8.21573022990470
	SCF Energy (a.u.)                  :   -74.94814773703025
	REF Energy (a.u.)                  :   -74.94814773703025
	Alpha-Alpha Contribution (a.u.)    :    -0.00131698745103
	Alpha-Beta Contribution (a.u.)     :    -0.05550433006672
	Beta-Beta Contribution (a.u.)      :    -0.00131698745103
	MP2.5 Correlation Energy (a.u.)    :    -0.05161440096049
	MP2.5 Total Energy (a.u.)          :   -74.99976213799074
	SCS-MP3 Total Energy (a.u.)        :   -75.00322552092504
	SOS-MP3 Total Energy (a.u.)        :   -75.00658818839423
	SCSN-MP3 Total Energy (a.u.)       :   -74.95606576453696
	SCS-MP3-VDW Total Energy (a.u.)    :   -75.00706203712642
	SOS-PI-MP3 Total Energy (a.u.)     :   -75.01083268834500
	3rd Order Energy (a.u.)            :    -0.01304780801658
	MP3 Correlation Energy (a.u.)      :    -0.05813830496877
	MP3 Total Energy (a.u.)            :   -75.00628604199903
	============================================================================== 

	Analytic gradient computation is starting...
	Computing response density matrices...
	Computing off-diagonal blocks of GFM...
	Forming independent-pairs...
	Number of alpha independent-pairs:  8
	Number of beta independent-pairs :  8
	Computing orbital gradient...
	Computing G_abcd...
	Computing diagonal blocks of GFM...
	Solving orbital Z-vector equations...
	Forming relaxed response density matrices...
	Forming relaxed GFM...
	Writing particle density matrices and GFM to disk...
	Necessary information has been sent to DERIV, which will take care of the rest.

*** tstop() called on psinet at Mon May 15 15:39:01 2017
Module time:
	user time   =       0.01 seconds =       0.00 minutes
	system time =       0.02 seconds =       0.00 minutes
	total time  =          0 seconds =       0.00 minutes
Total time:
	user time   =       0.36 seconds =       0.01 minutes
	system time =       0.16 seconds =       0.00 minutes
	total time  =          1 seconds =       0.02 minutes
  Cartesian Displacement SALCs
  By SALC:
  Number of SALCs: 6, nirreps: 1
  Project out translations: False
  Project out rotations: False
	irrep = 0, ncomponent = 1
		0: atom 0, direction y, coef 1.000000
	irrep = 0, ncomponent = 1
		0: atom 0, direction z, coef 1.000000
	irrep = 0, ncomponent = 1
		0: atom 1, direction y, coef 1.000000
	irrep = 0, ncomponent = 1
		0: atom 1, direction z, coef 1.000000
	irrep = 0, ncomponent = 1
		0: atom 2, direction y, coef 1.000000
	irrep = 0, ncomponent = 1
		0: atom 2, direction z, coef 1.000000

  By Atomic Center:
  Number of atomic centers: 3
   Atomic Center 0:
	x component, size = 0
	y component, size = 1
		0: salc 0, irrep 0, coef 1.000000
	z component, size = 1
		0: salc 1, irrep 0, coef 1.000000
   Atomic Center 1:
	x component, size = 0
	y component, size = 1
		0: salc 2, irrep 0, coef 1.000000
	z component, size = 1
		0: salc 3, irrep 0, coef 1.000000
   Atomic Center 2:
	x component, size = 0
	y component, size = 1
		0: salc 4, irrep 0, coef 1.000000
	z component, size = 1
		0: salc 5, irrep 0, coef 1.000000

    Molecular point group: cs
    Full point group: C2v

    Geometry (in Bohr), charge = 0, multiplicity = 1:

       Center              X                  Y                   Z       
    ------------   -----------------  -----------------  -----------------
           O          0.000000000000     0.000000000000    -0.130603716179
           H          0.000000000000    -1.651254910149     1.036387876270
           H          0.000000000000     1.651254910149     1.036387876270

	Presorting MO-basis TPDMs.
	Sorting File: MO TPDM (AA|AA) nbuckets = 1
	Sorting File: MO TPDM (AA|aa) nbuckets = 1
	Sorting File: MO TPDM (aa|aa) nbuckets = 1
	Starting first half-transformation.
	Sorting half-transformed TPDMs.
	First half integral transformation complete.


  -Nuclear Repulsion Energy 1st Derivatives:
     Atom            X                  Y                   Z
    ------   -----------------  -----------------  -----------------
       1        0.000000000000    -0.000000000000     2.258602320406
       2        0.000000000000     1.689612026893    -1.129301160203
       3        0.000000000000    -1.689612026893    -1.129301160203


  -One-electron contribution to gradient:
     Atom            X                  Y                   Z
    ------   -----------------  -----------------  -----------------
       1        0.000000000000    -0.000000000000    -4.941798444723
       2        0.000000000000    -3.851463754791     2.470899222362
       3        0.000000000000     3.851463754791     2.470899222362


  -Lagrangian contribution to gradient:
     Atom            X                  Y                   Z
    ------   -----------------  -----------------  -----------------
       1        0.000000000000    -0.000000000000     0.239712211655
       2        0.000000000000     0.152359795320    -0.119856105828
       3        0.000000000000    -0.152359795320    -0.119856105828


  -Two-electron contribution to gradient:
     Atom            X                  Y                   Z
    ------   -----------------  -----------------  -----------------
       1        0.000000000000     0.000000000000     2.443747463010
       2        0.000000000000     1.956294634660    -1.221873731505
       3        0.000000000000    -1.956294634660    -1.221873731505


  -Total gradient:
     Atom            X                  Y                   Z
    ------   -----------------  -----------------  -----------------
       1        0.000000000000     0.000000000000     0.000263550349
       2        0.000000000000    -0.053197297919    -0.000131775174
       3        0.000000000000     0.053197297919    -0.000131775174

  //>>>>>>>>>>>>>>>>>>>>>>>>>>>>>>>>>>>//
  //           Testing OLCCD           //
  //<<<<<<<<<<<<<<<<<<<<<<<<<<<<<<<<<<<//
gradient() will perform analytic gradient computation.

*** tstart() called on psinet
*** at Mon May 15 15:39:01 2017

   => Loading Basis Set <=

    Name: STO-3G
    Role: ORBITAL
    Keyword: BASIS
    atoms 1   entry O          line    80 file /home/psilocaluser/gits/hrw-direct/objdir4/stage/usr/local/psi4/share/psi4/basis/sto-3g.gbs 
    atoms 2-3 entry H          line    18 file /home/psilocaluser/gits/hrw-direct/objdir4/stage/usr/local/psi4/share/psi4/basis/sto-3g.gbs 


         ---------------------------------------------------------
                                   SCF
            by Justin Turney, Rob Parrish, and Andy Simmonett
                              UHF Reference
                        1 Threads,    500 MiB Core
         ---------------------------------------------------------

  ==> Geometry <==

    Molecular point group: cs
    Full point group: C2v

    Geometry (in Angstrom), charge = 0, multiplicity = 1:

       Center              X                  Y                   Z               Mass       
    ------------   -----------------  -----------------  -----------------  -----------------
           O          0.000000000000     0.000000000000    -0.069112509959    15.994914619560
           H          0.000000000000    -0.873806464023     0.548432843381     1.007825032070
           H          0.000000000000     0.873806464023     0.548432843381     1.007825032070

  Running in cs symmetry.

  Rotational constants: A =     24.69386  B =     10.95345  C =      7.58775 [cm^-1]
  Rotational constants: A = 740303.40356  B = 328376.10947  C = 227475.07417 [MHz]
  Nuclear repulsion =    8.215730229904697

  Charge       = 0
  Multiplicity = 1
  Electrons    = 10
  Nalpha       = 5
  Nbeta        = 5

  ==> Algorithm <==

  SCF Algorithm Type is PK.
  DIIS enabled.
  MOM disabled.
  Fractional occupation disabled.
  Guess Type is GWH.
  Energy threshold   = 1.00e-10
  Density threshold  = 1.00e-10
  Integral threshold = 0.00e+00

  ==> Primary Basis <==

  Basis Set: STO-3G
    Blend: STO-3G
    Number of shells: 5
    Number of basis function: 7
    Number of Cartesian functions: 7
    Spherical Harmonics?: true
    Max angular momentum: 1

  ==> Pre-Iterations <==

   -------------------------------------------------------
    Irrep   Nso     Nmo     Nalpha   Nbeta   Ndocc  Nsocc
   -------------------------------------------------------
     A'         6       6       0       0       0       0
     A"         1       1       0       0       0       0
   -------------------------------------------------------
    Total       7       7       5       5       5       0
   -------------------------------------------------------

  ==> Integral Setup <==

  Using in-core PK algorithm.
   Calculation information:
      Number of atoms:                   3
      Number of AO shells:               5
      Number of primitives:             15
      Number of atomic orbitals:         7
      Number of basis functions:         7

      Integral cutoff                 1.00e-12
      Number of threads:                 1

  Performing in-core PK
  Using 812 doubles for integral storage.
  We computed 120 shell quartets total.
  Whereas there are 120 unique shell quartets.
  ==> DiskJK: Disk-Based J/K Matrices <==

    J tasked:                  Yes
    K tasked:                  Yes
    wK tasked:                  No
    Memory (MB):               375
    Schwarz Cutoff:          1E-12

    OpenMP threads:              1
  Minimum eigenvalue in the overlap matrix is 4.1615931672E-01.
  Using Symmetric Orthogonalization.

  SCF Guess: Generalized Wolfsberg-Helmholtz.

  ==> Iterations <==

                        Total Energy        Delta E     RMS |[F,P]|

   @UHF iter   1:   -74.55757156271856   -7.45576e+01   1.07621e-01 
   @UHF iter   2:   -74.92733533816093   -3.69764e-01   2.45994e-02 DIIS
   @UHF iter   3:   -74.94605410070994   -1.87188e-02   6.52860e-03 DIIS
   @UHF iter   4:   -74.94802642026477   -1.97232e-03   1.40796e-03 DIIS
   @UHF iter   5:   -74.94813628923728   -1.09869e-04   4.04685e-04 DIIS
   @UHF iter   6:   -74.94814773639774   -1.14472e-05   4.58497e-06 DIIS
   @UHF iter   7:   -74.94814773703011   -6.32369e-10   6.43953e-08 DIIS
   @UHF iter   8:   -74.94814773703025   -1.42109e-13   3.03944e-10 DIIS
   @UHF iter   9:   -74.94814773703023    2.84217e-14   2.58753e-12 DIIS

  ==> Post-Iterations <==

   @Spin Contamination Metric:   7.105427358E-15
   @S^2 Expected:                0.000000000E+00
   @S^2 Observed:                7.105427358E-15
   @S   Expected:                0.000000000E+00
   @S   Observed:                0.000000000E+00

    Orbital Energies (a.u.)
    -----------------------

    Alpha Occupied:                                                       

       1Ap   -20.250169     2Ap    -1.214494     3Ap    -0.568527  
       4Ap    -0.427529     1App   -0.383234  

    Alpha Virtual:                                                        

       5Ap     0.490869     6Ap     0.632706  

    Beta Occupied:                                                        

       1Ap   -20.250169     2Ap    -1.214494     3Ap    -0.568527  
       4Ap    -0.427529     1App   -0.383234  

    Beta Virtual:                                                         

       5Ap     0.490869     6Ap     0.632706  

    Final Occupation by Irrep:
             Ap   App 
    DOCC [     4,    1 ]
    SOCC [     0,    0 ]

  Energy converged.

  @UHF Final Energy:   -74.94814773703023

   => Energetics <=

    Nuclear Repulsion Energy =              8.2157302299046968
    One-Electron Energy =                -120.6398498925227045
    Two-Electron Energy =                  37.4759719255877854
    DFT Exchange-Correlation Energy =       0.0000000000000000
    Empirical Dispersion Energy =           0.0000000000000000
    PCM Polarization Energy =               0.0000000000000000
    EFP Energy =                            0.0000000000000000
    Total Energy =                        -74.9481477370302258


  UHF NO Occupations:
  HONO-2 :    2 Ap 2.0000000
  HONO-1 :    3 Ap 2.0000000
  HONO-0 :    4 Ap 2.0000000
  LUNO+0 :    5 Ap 0.0000000
  LUNO+1 :    6 Ap 0.0000000



Properties will be evaluated at   0.000000,   0.000000,   0.000000 Bohr

Properties computed using the SCF density matrix

  Nuclear Dipole Moment: (a.u.)
     X:     0.0000      Y:     0.0000      Z:     1.0279

  Electronic Dipole Moment: (a.u.)
     X:     0.0000      Y:     0.0000      Z:    -0.4187

  Dipole Moment: (a.u.)
     X:     0.0000      Y:     0.0000      Z:     0.6093     Total:     0.6093

  Dipole Moment: (Debye)
     X:     0.0000      Y:     0.0000      Z:     1.5486     Total:     1.5486


*** tstop() called on psinet at Mon May 15 15:39:01 2017
Module time:
	user time   =       0.10 seconds =       0.00 minutes
	system time =       0.01 seconds =       0.00 minutes
	total time  =          0 seconds =       0.00 minutes
Total time:
	user time   =       0.48 seconds =       0.01 minutes
	system time =       0.18 seconds =       0.00 minutes
	total time  =          1 seconds =       0.02 minutes
 MINTS: Wrapper to libmints.
   by Justin Turney

   Calculation information:
      Number of threads:                 1
      Number of atoms:                   3
      Number of AO shells:               5
      Number of SO shells:               5
      Number of primitives:             15
      Number of atomic orbitals:         7
      Number of basis functions:         7

      Number of irreps:                  2
      Integral cutoff                 0.00e+00
      Number of functions per irrep: [   6    1 ]

 OEINTS: Overlap, kinetic, potential, dipole, and quadrupole integrals
         stored in file 35.

      Computing two-electron integrals...done
      Computed 231 non-zero two-electron integrals.
        Stored in file 33.


*** tstart() called on psinet
*** at Mon May 15 15:39:01 2017



  Options:
  ----------------------------------------------------------------------------
  ACTIVE                      => [  ]             
  BASIS_RELATIVISTIC          => (empty)          
  BENCH                       => 0                
  CACHELEVEL                  => 2                
  CCL_ENERGY                  => FALSE            
  CC_DIIS_MAX_VECS            => 6                
  CC_DIIS_MIN_VECS            => 2                
  CC_MAXITER                  => 50               
  CC_TYPE                     => CONV             
  CEPA_OS_SCALE               => 1.27             
  CEPA_SOS_SCALE              => 1.3              
  CEPA_SS_SCALE               => 1.13             
  CEPA_TYPE                   => CEPA0            
  CI_TYPE                     => CONV             
  CUBEPROP_BASIS_FUNCTIONS    => [  ]             
  CUBEPROP_FILEPATH           => .                
  CUBEPROP_ORBITALS           => [  ]             
  CUBEPROP_TASKS              => [  ]             
  CUBIC_BASIS_TOLERANCE       => 1e-12            
  CUBIC_BLOCK_MAX_POINTS      => 1000             
  CUBIC_GRID_OVERAGE          => [  ]             
  CUBIC_GRID_SPACING          => [  ]             
  CUTOFF                      => 14               
  DEBUG                       => 0                
  DERTYPE                     => FIRST           !
  DF_BASIS_CC                 => CC-PVDZ-RI      !
  DIE_IF_NOT_CONVERGED        => TRUE             
  DKH_ORDER                   => 2                
  DOCC                        => [  ]             
  DO_DIIS                     => TRUE             
  DO_LEVEL_SHIFT              => TRUE             
  DO_SCS                      => FALSE           !
  DO_SOS                      => FALSE           !
  E3_SCALE                    => 0.25             
  EA_POLES                    => FALSE            
  EKT_EA                      => FALSE            
  EKT_IP                      => FALSE            
  EP_EA_POLES                 => FALSE            
  EP_IP_POLES                 => FALSE            
  EP_MAXITER                  => 30               
  EXTERNAL_POTENTIAL_SYMMETRY => FALSE            
  E_CONVERGENCE               => 1e-08           !
  FREEZE_CORE                 => FALSE            
  FROZEN_DOCC                 => [  ]             
  FROZEN_UOCC                 => [  ]             
  INTEGRAL_PACKAGE            => LIBINT           
  IP_POLES                    => FALSE            
  LEVEL_SHIFT                 => 0.02             
  LINEQ_SOLVER                => CDGESV           
  LITERAL_CFOUR               => (empty)          
  MAT_NUM_COLUMN_PRINT        => 5                
  MAX_MOGRAD_CONVERGENCE      => 0.001            
  MOGRAD_DAMPING              => 1                
  MOLDEN_WITH_VIRTUAL         => TRUE             
  MO_DIIS_NUM_VECS            => 6                
  MO_MAXITER                  => 50               
  MO_READ                     => FALSE            
  MO_STEP_MAX                 => 0.5              
  MO_WRITE                    => FALSE            
  MP2_OS_SCALE                => 1.2              
  MP2_SOS_SCALE               => 1.3              
  MP2_SOS_SCALE2              => 1.2              
  MP2_SS_SCALE                => 0.333333         
  MP2_TYPE                    => DF               
  MP_TYPE                     => CONV             
  NAT_ORBS                    => FALSE            
  NUM_FROZEN_DOCC             => 0                
  NUM_FROZEN_UOCC             => 0                
  OCC_ORBS_PRINT              => FALSE            
  OEPROP                      => FALSE            
  OPT_METHOD                  => ORB_RESP         
  ORB_OPT                     => TRUE            !
  ORB_RESP_SOLVER             => PCG              
  ORTH_TYPE                   => MGS              
  PCG_BETA_TYPE               => FLETCHER_REEVES  
  PCG_CONVERGENCE             => 1e-06            
  PCG_MAXITER                 => 30               
  PCM                         => FALSE            
  PCM_CC_TYPE                 => PTE              
  PCM_SCF_TYPE                => TOTAL            
  PRINT                       => 1                
  PRINT_NOONS                 => 3                
  PROPERTIES                  => [  ]             
  PROPERTIES_ORIGIN           => [  ]             
  PUREAM                      => TRUE             
  QC_MODULE                   => (empty)          
  RAS1                        => [  ]             
  RAS2                        => [  ]             
  RAS3                        => [  ]             
  RAS4                        => [  ]             
  RELATIVISTIC                => NO               
  RELAXED                     => TRUE             
  RESTRICTED_DOCC             => [  ]             
  RESTRICTED_UOCC             => [  ]             
  RMS_MOGRAD_CONVERGENCE      => 1e-06            
  R_CONVERGENCE               => 1e-05            
  SCS_TYPE                    => SCS              
  SOCC                        => [  ]             
  SOS_TYPE                    => SOS              
  SYMMETRIZE                  => TRUE             
  TPDM_ABCD_TYPE              => DIRECT           
  UNITS                       => ANGSTROMS        
  WFN                         => SCF              
  WFN_TYPE                    => OCEPA           !
  WRITER_FILE_LABEL           => (empty)          


 ============================================================================== 
 ============================================================================== 
 ============================================================================== 

                       OCEPA (OO-CEPA)   
              Program Written by Ugur Bozkaya,
              Latest Revision June 25, 2014.

 ============================================================================== 
 ============================================================================== 
 ============================================================================== 

	RMS orbital gradient is changed to :     1.00e-06
	MAX orbital gradient is changed to :     1.00e-04
	MO spaces per irreps... 

	IRREP   FC   AOCC  BOCC  AVIR    BVIR  FV 
	==========================================
	  A'     0     4     4     2      2     0
	  A"     0     1     1     0      0     0
	==========================================

	Computing MP2 energy using SCF MOs (Canonical MP2)... 
	============================================================================== 
	Nuclear Repulsion Energy (a.u.)    :     8.21573022990470
	SCF Energy (a.u.)                  :   -74.94814773703023
	REF Energy (a.u.)                  :   -74.94814773703025
	Alpha-Alpha Contribution (a.u.)    :    -0.00132274872232
	Alpha-Beta Contribution (a.u.)     :    -0.04244499950757
	Beta-Beta Contribution (a.u.)      :    -0.00132274872232
	Scaled_SS Correlation Energy (a.u.):    -0.00088183248154
	Scaled_OS Correlation Energy (a.u.):    -0.05093399940909
	SCS-MP2 Total Energy (a.u.)        :   -74.99996356892089
	SOS-MP2 Total Energy (a.u.)        :   -75.00332623639009
	SCSN-MP2 Total Energy (a.u.)       :   -74.95280381253279
	SCS-MP2-VDW Total Energy (a.u.)    :   -75.00380008512226
	SOS-PI-MP2 Total Energy (a.u.)     :   -75.00757073634085
	MP2 Correlation Energy (a.u.)      :    -0.04509049695220
	MP2 Total Energy (a.u.)            :   -74.99323823398245
	============================================================================== 

	Number of alpha independent-pairs:  8
	Number of beta independent-pairs :  8

 ============================================================================== 
 ================ Performing OCEPA iterations... ============================== 
 ============================================================================== 
	            Minimizing CEPA-L Functional 
	            --------------------------- 
 Iter       E_total           DE           RMS MO Grad      MAX MO Grad      RMS T2    
 ----    ---------------    ----------     -----------      -----------     ---------- 
   1     -75.0065691982     -1.33e-02       6.59e-04         4.80e-03        5.74e-05 
   2     -75.0111972213     -4.63e-03       3.01e-04         2.22e-03        1.22e-04 
   3     -75.0130290415     -1.83e-03       1.46e-04         1.07e-03        1.02e-04 
   4     -75.0138115812     -7.83e-04       7.22e-05         5.26e-04        7.68e-05 
   5     -75.0141606234     -3.49e-04       3.57e-05         2.61e-04        5.63e-05 
   6     -75.0143182018     -1.58e-04       1.88e-05         1.42e-04        4.09e-05 
   7     -75.0143968090     -7.86e-05       1.98e-05         1.53e-04        3.04e-05 
   8     -75.0144309745     -3.42e-05       1.56e-05         1.21e-04        2.22e-05 
   9     -75.0144474146     -1.64e-05       1.36e-05         1.06e-04        1.63e-05 
  10     -75.0144553734     -7.96e-06       1.23e-05         9.59e-05        1.21e-05 
  11     -75.0144592972     -3.92e-06       1.17e-05         9.08e-05        8.99e-06 
  12     -75.0144611622     -1.86e-06       9.79e-06         7.63e-05        6.66e-06 
  13     -75.0144612523     -9.01e-08       5.95e-06         4.14e-05        4.77e-06 
  14     -75.0144626653     -1.41e-06       2.59e-07         1.40e-06        4.20e-06 

 ============================================================================== 
 ======================== OCEPA ITERATIONS ARE CONVERGED ====================== 
 ============================================================================== 

	Orbitals are optimized now.
	Switching to the standard CEPA computation... 

  
 ============================================================================== 
 ================ Performing CEPA iterations... =============================== 
 ============================================================================== 

  Iter    E_corr           E_total            DE           T2 RMS        
  ----   -------------    ---------------    ----------   ----------    
   1     -0.0663152460    -75.0144629830     -3.18e-07     3.06e-06 
   2     -0.0663156286    -75.0144633656     -3.83e-07     2.27e-06 
   3     -0.0663156131    -75.0144633501      1.54e-08     2.32e-07 
   4     -0.0663156045    -75.0144633415      8.65e-09     1.26e-07 

 ============================================================================== 
 ======================== CEPA ITERATIONS ARE CONVERGED ======================= 
 ============================================================================== 

	============================================================================== 
	================ OCEPA FINAL RESULTS ========================================= 
	============================================================================== 
	Nuclear Repulsion Energy (a.u.)    :     8.21573022990470
	SCF Energy (a.u.)                  :   -74.94814773703023
	REF Energy (a.u.)                  :   -74.94758982899306
	SCS-OCEPA(0) Total Energy (a.u.)   :   -75.03224168833555
	SOS-OCEPA(0) Total Energy (a.u.)   :   -75.03194859523089
	OCEPA(0) Correlation Energy (a.u.) :    -0.06631560446925
	Eocepa - Eref (a.u.)               :    -0.06687351250642
	OCEPA(0) Total Energy (a.u.)       :   -75.01446334149948
	============================================================================== 

	Analytic gradient computation is starting...
	Computing G_abcd...
	Computing diagonal blocks of GFM...
	Writing particle density matrices and GFM to disk...
	Necessary information has been sent to DERIV, which will take care of the rest.

*** tstop() called on psinet at Mon May 15 15:39:02 2017
Module time:
	user time   =       0.10 seconds =       0.00 minutes
	system time =       0.25 seconds =       0.00 minutes
	total time  =          1 seconds =       0.02 minutes
Total time:
	user time   =       0.60 seconds =       0.01 minutes
	system time =       0.43 seconds =       0.01 minutes
	total time  =          2 seconds =       0.03 minutes
  Cartesian Displacement SALCs
  By SALC:
  Number of SALCs: 6, nirreps: 1
  Project out translations: False
  Project out rotations: False
	irrep = 0, ncomponent = 1
		0: atom 0, direction y, coef 1.000000
	irrep = 0, ncomponent = 1
		0: atom 0, direction z, coef 1.000000
	irrep = 0, ncomponent = 1
		0: atom 1, direction y, coef 1.000000
	irrep = 0, ncomponent = 1
		0: atom 1, direction z, coef 1.000000
	irrep = 0, ncomponent = 1
		0: atom 2, direction y, coef 1.000000
	irrep = 0, ncomponent = 1
		0: atom 2, direction z, coef 1.000000

  By Atomic Center:
  Number of atomic centers: 3
   Atomic Center 0:
	x component, size = 0
	y component, size = 1
		0: salc 0, irrep 0, coef 1.000000
	z component, size = 1
		0: salc 1, irrep 0, coef 1.000000
   Atomic Center 1:
	x component, size = 0
	y component, size = 1
		0: salc 2, irrep 0, coef 1.000000
	z component, size = 1
		0: salc 3, irrep 0, coef 1.000000
   Atomic Center 2:
	x component, size = 0
	y component, size = 1
		0: salc 4, irrep 0, coef 1.000000
	z component, size = 1
		0: salc 5, irrep 0, coef 1.000000

    Molecular point group: cs
    Full point group: C2v

    Geometry (in Bohr), charge = 0, multiplicity = 1:

       Center              X                  Y                   Z       
    ------------   -----------------  -----------------  -----------------
           O          0.000000000000     0.000000000000    -0.130603716179
           H          0.000000000000    -1.651254910149     1.036387876270
           H          0.000000000000     1.651254910149     1.036387876270

	Presorting MO-basis TPDMs.
	Sorting File: MO TPDM (AA|AA) nbuckets = 1
	Sorting File: MO TPDM (AA|aa) nbuckets = 1
	Sorting File: MO TPDM (aa|aa) nbuckets = 1
	Starting first half-transformation.
	Sorting half-transformed TPDMs.
	First half integral transformation complete.


  -Nuclear Repulsion Energy 1st Derivatives:
     Atom            X                  Y                   Z
    ------   -----------------  -----------------  -----------------
       1        0.000000000000    -0.000000000000     2.258602320406
       2        0.000000000000     1.689612026893    -1.129301160203
       3        0.000000000000    -1.689612026893    -1.129301160203


  -One-electron contribution to gradient:
     Atom            X                  Y                   Z
    ------   -----------------  -----------------  -----------------
       1        0.000000000000     0.000000000000    -4.852801743144
       2        0.000000000000    -3.788850322443     2.426400871572
       3        0.000000000000     3.788850322443     2.426400871572


  -Lagrangian contribution to gradient:
     Atom            X                  Y                   Z
    ------   -----------------  -----------------  -----------------
       1        0.000000000000    -0.000000000000     0.230644885549
       2        0.000000000000     0.145528932618    -0.115322442775
       3        0.000000000000    -0.145528932618    -0.115322442775


  -Two-electron contribution to gradient:
     Atom            X                  Y                   Z
    ------   -----------------  -----------------  -----------------
       1        0.000000000000    -0.000000000000     2.373718480721
       2        0.000000000000     1.908521560449    -1.186859240360
       3        0.000000000000    -1.908521560449    -1.186859240360


  -Total gradient:
     Atom            X                  Y                   Z
    ------   -----------------  -----------------  -----------------
       1        0.000000000000    -0.000000000000     0.010163943532
       2        0.000000000000    -0.045187802483    -0.005081971766
       3        0.000000000000     0.045187802483    -0.005081971766

  //>>>>>>>>>>>>>>>>>>>>>>>>>>>>>>>>>>>//
  //            Testing DCFT           //
  //<<<<<<<<<<<<<<<<<<<<<<<<<<<<<<<<<<<//
gradient() will perform analytic gradient computation.

*** tstart() called on psinet
*** at Mon May 15 15:39:02 2017

   => Loading Basis Set <=

    Name: STO-3G
    Role: ORBITAL
    Keyword: BASIS
    atoms 1   entry O          line    80 file /home/psilocaluser/gits/hrw-direct/objdir4/stage/usr/local/psi4/share/psi4/basis/sto-3g.gbs 
    atoms 2-3 entry H          line    18 file /home/psilocaluser/gits/hrw-direct/objdir4/stage/usr/local/psi4/share/psi4/basis/sto-3g.gbs 


         ---------------------------------------------------------
                                   SCF
            by Justin Turney, Rob Parrish, and Andy Simmonett
                              UHF Reference
                        1 Threads,    500 MiB Core
         ---------------------------------------------------------

  ==> Geometry <==

    Molecular point group: cs
    Full point group: C2v

    Geometry (in Angstrom), charge = 0, multiplicity = 1:

       Center              X                  Y                   Z               Mass       
    ------------   -----------------  -----------------  -----------------  -----------------
           O          0.000000000000     0.000000000000    -0.069112509959    15.994914619560
           H          0.000000000000    -0.873806464023     0.548432843381     1.007825032070
           H          0.000000000000     0.873806464023     0.548432843381     1.007825032070

  Running in cs symmetry.

  Rotational constants: A =     24.69386  B =     10.95345  C =      7.58775 [cm^-1]
  Rotational constants: A = 740303.40356  B = 328376.10947  C = 227475.07417 [MHz]
  Nuclear repulsion =    8.215730229904695

  Charge       = 0
  Multiplicity = 1
  Electrons    = 10
  Nalpha       = 5
  Nbeta        = 5

  ==> Algorithm <==

  SCF Algorithm Type is PK.
  DIIS enabled.
  MOM disabled.
  Fractional occupation disabled.
  Guess Type is GWH.
  Energy threshold   = 1.00e-10
  Density threshold  = 1.00e-10
  Integral threshold = 0.00e+00

  ==> Primary Basis <==

  Basis Set: STO-3G
    Blend: STO-3G
    Number of shells: 5
    Number of basis function: 7
    Number of Cartesian functions: 7
    Spherical Harmonics?: true
    Max angular momentum: 1

  ==> Pre-Iterations <==

   -------------------------------------------------------
    Irrep   Nso     Nmo     Nalpha   Nbeta   Ndocc  Nsocc
   -------------------------------------------------------
     A'         6       6       0       0       0       0
     A"         1       1       0       0       0       0
   -------------------------------------------------------
    Total       7       7       5       5       5       0
   -------------------------------------------------------

  ==> Integral Setup <==

  Using in-core PK algorithm.
   Calculation information:
      Number of atoms:                   3
      Number of AO shells:               5
      Number of primitives:             15
      Number of atomic orbitals:         7
      Number of basis functions:         7

      Integral cutoff                 1.00e-12
      Number of threads:                 1

  Performing in-core PK
  Using 812 doubles for integral storage.
  We computed 120 shell quartets total.
  Whereas there are 120 unique shell quartets.
  ==> DiskJK: Disk-Based J/K Matrices <==

[...]

	Size of irrep 0 of <ia|bc> integrals:      0.000 (MW) /      0.000 (MB)
	Size of irrep 1 of <ia|bc> integrals:      0.000 (MW) /      0.000 (MB)
	Total:                                     0.000 (MW) /      0.000 (MB)

	Size of irrep 0 of <Ia|Bc> integrals:      0.000 (MW) /      0.000 (MB)
	Size of irrep 1 of <Ia|Bc> integrals:      0.000 (MW) /      0.000 (MB)
	Total:                                     0.000 (MW) /      0.000 (MB)

	Size of irrep 0 of <iA|bC> integrals:      0.000 (MW) /      0.000 (MB)
	Size of irrep 1 of <iA|bC> integrals:      0.000 (MW) /      0.000 (MB)
	Total:                                     0.000 (MW) /      0.000 (MB)

	Size of irrep 0 of tIjAb amplitudes:       0.000 (MW) /      0.001 (MB)
	Size of irrep 1 of tIjAb amplitudes:       0.000 (MW) /      0.000 (MB)
	Total:                                     0.000 (MW) /      0.001 (MB)

	Nuclear Rep. energy          =      8.21573022990470
	SCF energy                   =    -74.94814773703028
	One-electron energy          =   -120.63984989252270
	Two-electron (AA) energy     =      7.11692172335749
	Two-electron (BB) energy     =      7.11692172335748
	Two-electron (AB) energy     =     23.24212847887280
	Two-electron energy          =     37.47597192558777
	Reference energy             =    -74.94814773703025

*** tstop() called on psinet at Mon May 15 15:39:19 2017
Module time:
	user time   =       0.00 seconds =       0.00 minutes
	system time =       0.03 seconds =       0.00 minutes
	total time  =          0 seconds =       0.00 minutes
Total time:
	user time   =      11.92 seconds =       0.20 minutes
	system time =       5.15 seconds =       0.09 minutes
	total time  =         19 seconds =       0.32 minutes

*** tstart() called on psinet
*** at Mon May 15 15:39:19 2017

            **************************
            *                        *
            *        CCENERGY        *
            *                        *
            **************************

    Nuclear Rep. energy (wfn)     =    8.215730229904697
    SCF energy          (wfn)     =  -74.948147737030283
    Reference energy    (file100) =  -74.948147737030254

    Input parameters:
    -----------------
    Wave function   =     CC3
    Reference wfn   =     UHF
    Brueckner       =     No
    Memory (Mbytes) =     524.3
    Maxiter         =     50
    R_Convergence   =     1.0e-07
    E_Convergence   =     1.0e-06
    Restart         =     Yes
    DIIS            =     Yes
    AO Basis        =     NONE
    ABCD            =     NEW
    Cache Level     =     2
    Cache Type      =     LRU
    Print Level     =     1
    Num. of threads =     1
    # Amps to Print =     10
    Print MP2 Amps? =     No
    Analyze T2 Amps =     No
    Print Pair Ener =     No
    Local CC        =     No
    T3 Ws incore    =     No
    SCS-MP2         =     False
    SCSN-MP2        =     False
    SCS-CCSD        =     False

MP2 correlation energy -0.0450904969457464
                Solving CC Amplitude Equations
                ------------------------------
  Iter             Energy              RMS        T1Diag      D1Diag    New D1Diag    D2Diag
  ----     ---------------------    ---------   ----------  ----------  ----------   --------
     0        -0.045090496945746    0.000e+00    0.000000    0.000000    0.000000    0.000000
     1        -0.057745910453522    4.532e-02    0.004069    0.000000    0.000000    0.000000
     2        -0.064606461278871    1.903e-02    0.007929    0.000000    0.000000    0.000000
     3        -0.064929180731634    3.764e-03    0.009154    0.000000    0.000000    0.000000
     4        -0.064968669421992    1.027e-03    0.009626    0.000000    0.000000    0.000000
     5        -0.064947390196006    1.073e-04    0.009642    0.000000    0.000000    0.000000
     6        -0.064950228011087    2.066e-05    0.009647    0.000000    0.000000    0.000000
     7        -0.064949565684963    3.553e-06    0.009646    0.000000    0.000000    0.000000
     8        -0.064949688173109    7.311e-07    0.009646    0.000000    0.000000    0.000000
     9        -0.064949675382292    1.331e-07    0.009646    0.000000    0.000000    0.000000
    10        -0.064949675254164    3.879e-08    0.009646    0.000000    0.000000    0.000000

    Iterations converged.


    Largest TIA Amplitudes:
              3   0         0.0213805246
              2   1        -0.0020850141
              1   0         0.0019372990
              0   0         0.0000478806

    Largest Tia Amplitudes:
              3   0         0.0213805246
              2   1        -0.0020850141
              1   0         0.0019372990
              0   0         0.0000478806

    Largest TIJAB Amplitudes:
      3   2   1   0        -0.0145884602
      2   1   1   0        -0.0106626360
      2   0   1   0        -0.0003929513

    Largest Tijab Amplitudes:
      3   2   1   0        -0.0145884602
      2   1   1   0        -0.0106626360
      2   0   1   0        -0.0003929513

    Largest TIjAb Amplitudes:
      2   2   1   1        -0.0919117224
      3   3   0   0        -0.0728095654
      2   3   1   0         0.0655237484
      3   2   0   1         0.0655237484
      2   2   0   0        -0.0579061318
      2   3   0   1         0.0509352882
      3   2   1   0         0.0509352882
      3   3   1   1        -0.0504921882
      1   3   0   0         0.0397507501
      3   1   0   0         0.0397507501

    SCF energy       (wfn)                    =  -74.948147737030283
    Reference energy (file100)                =  -74.948147737030254

    Opposite-spin MP2 correlation energy      =   -0.042444999501462
    Same-spin MP2 correlation energy          =   -0.002645497444284
    MP2 correlation energy                    =   -0.045090496945746
      * MP2 total energy                      =  -74.993238233976001
    CC3 correlation energy                    =   -0.064949675254164
      * CC3 total energy                      =  -75.013097412284424


*** tstop() called on psinet at Mon May 15 15:39:20 2017
Module time:
	user time   =       0.21 seconds =       0.00 minutes
	system time =       0.24 seconds =       0.00 minutes
	total time  =          1 seconds =       0.02 minutes
Total time:
	user time   =      12.13 seconds =       0.20 minutes
	system time =       5.39 seconds =       0.09 minutes
	total time  =         20 seconds =       0.33 minutes

*** tstart() called on psinet
*** at Mon May 15 15:39:20 2017


			**************************
			*                        *
			*         CCHBAR         *
			*                        *
			**************************

Dots of (HeT1)c in names "CC3 Wxxx" in CC3_HET1 
Wamef terms
	<WAMEF|WAMEF> =    0.0590317408
	<Wamef|Wamef> =    0.0590317408
	<WAmEf|WAmEf> =    0.0463126303
	<WaMeF|WaMeF> =    0.0463126303
Wmnie terms
	<WMNIE (M>N,IE)|WMNIE> =    0.7807636810
	<Wmnie (m>n,ie)|Wmnie> =    0.7807636810
	<WMnIe (Mn,Ie)|WMnIe> =    0.5726136817
	<WmNiE (mN,iE)|WmNiE> =    0.5726136817
	<WMNIE(M>N,EI)|WMNIE(M>N,EI)> =    0.7807636810
	<Wmnie(m>n,ei)|Wmnie(m>n,ei)> =    0.7807636810
	<WMnIe(Mn,eI)|WMnIe(Mn,eI)> =    0.5726136817
	<WmNiE(mN,Ei)|WmNiE(mN,Ei)> =    0.5726136817
Doing Wmnij terms.
	<WMNIJ (M>N,I>J)|WMNIJ> =   21.9652726159
	<Wmnij (m>n,i>j)|Wmnij> =   21.9652726159
	<WMnIj (Mn,Ij)|WMnIj> =   38.7206293382
Doing Wmbij terms.
	<WMBIJ (MB,I>J)|WMBIJ> =    0.7832516306
	<WMBIJ (I>J,MB)|WMBIJ> =    0.7832516306
	<Wmbij (mb,i>j)|Wmbij> =    0.7832516306
	<Wmbij (i>j,mb)|Wmbij> =    0.7832516306
	<WMbIj (Mb,Ij)|WMbIj> =    0.5731451305
	<WMbIj (Ij,Mb)|WMbIj> =    0.5731451305
	<WmBiJ (mB,iJ)|WmBiJ> =    0.5731451305
	<WmBiJ (iJ,mB)|WmBiJ> =    0.5731451305
Doing Wmbej terms.
	<WMBEJ (all ME,JB)|WMBEJ> =    3.3577905217
	<Wmbej|Wmbej> =    3.3577905217
	<WMbEj|WMbEj> =    0.1046556297
	<WmBeJ|WmBeJ> =    0.1046556297
	<WMbeJ|WMbeJ> =    4.1307838310
	<WmBEj|WmBEj> =    4.1307838310
Doing Wabei terms.
	<WABEI (IE,B>A) |WABEI> =    0.0597200331
	<Wabei (ie,b>a)|Wabei> =    0.0597200331
	<WAbEi (iE,bA)|WAbEi> =    0.0467497236
	<WAbEi (iE,Ba)|WAbEi> =    0.0467497236

*** tstop() called on psinet at Mon May 15 15:39:20 2017
Module time:
	user time   =       0.00 seconds =       0.00 minutes
	system time =       0.02 seconds =       0.00 minutes
	total time  =          0 seconds =       0.00 minutes
Total time:
	user time   =      12.13 seconds =       0.20 minutes
	system time =       5.41 seconds =       0.09 minutes
	total time  =         20 seconds =       0.33 minutes

*** tstart() called on psinet
*** at Mon May 15 15:39:20 2017


	**********************************************************
	*  CCEOM: An Equation of Motion Coupled Cluster Program  *
	**********************************************************

	Nuclear Rep. energy (wfn)     =    8.215730229904697
	SCF energy          (wfn)     =  -74.948147737030283
	Reference energy    (file100) =  -74.948147737030254
	CC3 energy          (file100) =   -0.064949675254164

	Input parameters:
	-----------------
	Reference wfn   =     UHF
	Reference EOM wfn=     UHF
	Memory (Mbytes) =  524.3
	ABCD            =     NEW
	Cache Level     =    2
	Cache Type      =     LRU
	T3 Ws incore  =      No
	Num. of threads =     1
	Local CC        =     No


	CCEOM parameters:
	-----------------
	States sought per irrep     = Ap 1, App 1,
	Max. number of iterations   =    80
	Vectors stored per root     =    12
	Print HbarSS iterations?    =     0
	Excitation range for HBarSS =     2
	Eigenvalue tolerance        = 1.0e-06
	Eigenvalue toleranceSS      = 1.0e-06
	Residual vector tolerance   = 1.0e-06
	Residual vector toleranceSS = 1.0e-06
	Complex tolerance           = 1.0e-12
	Root for properties         =     1
	Sym of state for properties =    App
	Guess vectors taken from    = SINGLES
	Restart EOM CC3             = NO
	Collapse with last vector   = YES


Symmetry of ground state: Ap
Symmetry of excited state: Ap
Symmetry of right eigenvector: Ap
Obtaining initial guess from singles-singles block of Hbar...Done.

Iter=1    L=1     Root    EOM Energy     Delta E   Res. Norm    Conv?
                     1   0.3932574432   3.93e-01    1.35e-01      N
Iter=2    L=2     Root    EOM Energy     Delta E   Res. Norm    Conv?
                     1   0.3761949717  -1.71e-02    3.64e-02      N
Iter=3    L=3     Root    EOM Energy     Delta E   Res. Norm    Conv?
                     1   0.3752228907  -9.72e-04    2.09e-02      N
Iter=4    L=4     Root    EOM Energy     Delta E   Res. Norm    Conv?
                     1   0.3751444865  -7.84e-05    1.24e-02      N
Iter=5    L=5     Root    EOM Energy     Delta E   Res. Norm    Conv?
                     1   0.3751304065  -1.41e-05    1.23e-03      N
Iter=6    L=6     Root    EOM Energy     Delta E   Res. Norm    Conv?
                     1   0.3751283479  -2.06e-06    4.12e-04      N
Iter=7    L=7     Root    EOM Energy     Delta E   Res. Norm    Conv?
                     1   0.3751279632  -3.85e-07    1.53e-04      N
Iter=8    L=8     Root    EOM Energy     Delta E   Res. Norm    Conv?
                     1   0.3751279410  -2.22e-08    1.56e-05      N
Iter=9    L=9     Root    EOM Energy     Delta E   Res. Norm    Conv?
                     1   0.3751279672   2.62e-08    3.17e-06      N
Iter=10   L=10    Root    EOM Energy     Delta E   Res. Norm    Conv?
                     1   0.3751279701   2.91e-09    1.08e-06      N
Iter=11   L=11    Root    EOM Energy     Delta E   Res. Norm    Conv?
                     1   0.3751279713   1.14e-09    6.07e-08      Y
Completed EOM_CCSD
Collapsing to only 1 vector(s).
Copying root 1 to CC3_MISC file.
Setting initial CC3 eigenvalue to    0.3751279713
Iter=1    L=1     Root    EOM Energy     Delta E   Res. Norm    Conv?
                     1   0.3750062378  -1.22e-04    1.39e-03      N
Iter=2    L=2     Root    EOM Energy     Delta E   Res. Norm    Conv?
                     1   0.3750119451   5.71e-06    5.47e-04      N
Iter=3    L=3     Root    EOM Energy     Delta E   Res. Norm    Conv?
                     1   0.3750111936  -7.51e-07    2.29e-04      N
Iter=4    L=4     Root    EOM Energy     Delta E   Res. Norm    Conv?
                     1   0.3750113832   1.90e-07    9.61e-05      N
Iter=5    L=5     Root    EOM Energy     Delta E   Res. Norm    Conv?
                     1   0.3750114568   7.36e-08    1.26e-05      N
Iter=6    L=6     Root    EOM Energy     Delta E   Res. Norm    Conv?
                     1   0.3750114445  -1.23e-08    4.08e-06      N
Iter=7    L=7     Root    EOM Energy     Delta E   Res. Norm    Conv?
                     1   0.3750114458   1.25e-09    1.03e-06      N
Iter=8    L=8     Root    EOM Energy     Delta E   Res. Norm    Conv?
                     1   0.3750114460   2.78e-10    5.90e-08      Y
Forcing one restart with sigma recomputation.
Collapsing to only 1 vector(s).
Change in CC3 energy from last iterated value    0.3750114460
Setting old CC3 eigenvalue to    0.3750114460
Iter=9    L=1     Root    EOM Energy     Delta E   Res. Norm    Conv?
                     1   0.3750114514   5.41e-09    7.03e-08      Y
Collapsing to only 1 vector(s).
Change in CC3 energy from last iterated value    0.0000000054

Procedure converged for 1 root(s).
<R|R> =   1.0000000000000002
EOM CC3 R0 for root 0 =  -0.00000000000

Final Energetic Summary for Converged Roots of Irrep Ap
                     Excitation Energy              Total Energy
                (eV)     (cm^-1)     (au)             (au)
EOM State 1     10.205    82305.5   0.3750114514   -74.638085960841

Largest components of excited wave function #1:
 RIA (libdpd indices) : (cscf notation)
         3 >   0      :       4ap >    5ap :   -0.6782543861
         2 >   1      :       3ap >    6ap :    0.1663065842
         1 >   0      :       2ap >    5ap :    0.0565423193
         0 >   0      :       1ap >    5ap :   -0.0007505774
 Ria (libdpd indices) : (cscf notation)
         3 >   0      :       4ap >    5ap :    0.6782543861
         2 >   1      :       3ap >    6ap :   -0.1663065842
         1 >   0      :       2ap >    5ap :   -0.0565423193
         0 >   0      :       1ap >    5ap :    0.0007505774
 RIjAb (libdpd indices)     : (cscf notation)
        2   3 >   1   0     :    3ap    4ap >    6ap    5ap :    0.0726928172
        3   2 >   0   1     :    4ap    3ap >    5ap    6ap :   -0.0726928172
        2   3 >   0   1     :    3ap    4ap >    5ap    6ap :    0.0486147279
        3   2 >   1   0     :    4ap    3ap >    6ap    5ap :   -0.0486147279
        1   2 >   0   1     :    2ap    3ap >    5ap    6ap :   -0.0261937979
 RIJAB (libdpd indices)     : (cscf notation)
        3   2 >   1   0     :    4ap    3ap >    6ap    5ap :    0.0181404480
        2   1 >   1   0     :    3ap    2ap >    6ap    5ap :   -0.0082189520
        2   0 >   1   0     :    3ap    1ap >    6ap    5ap :   -0.0001489965
 Rijab (libdpd indices)     : (cscf notation)
        3   2 >   1   0     :    4ap    3ap >    6ap    5ap :   -0.0181404480
        2   1 >   1   0     :    3ap    2ap >    6ap    5ap :    0.0082189520
        2   0 >   1   0     :    3ap    1ap >    6ap    5ap :    0.0001489965

Symmetry of excited state: App
Symmetry of right eigenvector: App
Obtaining initial guess from singles-singles block of Hbar...Done.

Iter=1    L=1     Root    EOM Energy     Delta E   Res. Norm    Conv?
                     1   0.3338221513   3.34e-01    2.01e-01      N
Iter=2    L=2     Root    EOM Energy     Delta E   Res. Norm    Conv?
                     1   0.2889770922  -4.48e-02    4.48e-02      N
Iter=3    L=3     Root    EOM Energy     Delta E   Res. Norm    Conv?
                     1   0.2882225851  -7.55e-04    2.33e-02      N
Iter=4    L=4     Root    EOM Energy     Delta E   Res. Norm    Conv?
                     1   0.2881946376  -2.79e-05    3.75e-03      N
Iter=5    L=5     Root    EOM Energy     Delta E   Res. Norm    Conv?
                     1   0.2881959824   1.34e-06    4.21e-04      N
Iter=6    L=6     Root    EOM Energy     Delta E   Res. Norm    Conv?
                     1   0.2881949082  -1.07e-06    6.28e-05      N
Iter=7    L=7     Root    EOM Energy     Delta E   Res. Norm    Conv?
                     1   0.2881952135   3.05e-07    8.69e-06      N
Iter=8    L=8     Root    EOM Energy     Delta E   Res. Norm    Conv?
                     1   0.2881952050  -8.48e-09    5.78e-06      N
Iter=9    L=9     Root    EOM Energy     Delta E   Res. Norm    Conv?
                     1   0.2881952037  -1.29e-09    5.57e-07      Y
Forcing restart to make sure new sigma vectors give same eigenvalue.
Collapsing to only 1 vector(s).
Change in CC3 energy from last iterated value   -0.0868162423
Setting old CC3 eigenvalue to    0.2881952037
Iter=10   L=1     Root    EOM Energy     Delta E   Res. Norm    Conv?
                     1   0.2881887462  -6.46e-06    6.32e-05      N
Iter=11   L=2     Root    EOM Energy     Delta E   Res. Norm    Conv?
                     1   0.2881884018  -3.44e-07    1.17e-05      N
Iter=12   L=3     Root    EOM Energy     Delta E   Res. Norm    Conv?
                     1   0.2881883985  -3.31e-09    3.85e-06      N
Iter=13   L=4     Root    EOM Energy     Delta E   Res. Norm    Conv?
                     1   0.2881883925  -6.05e-09    1.35e-06      N
Iter=14   L=5     Root    EOM Energy     Delta E   Res. Norm    Conv?
                     1   0.2881883899  -2.53e-09    5.16e-07      Y
Forcing restart to make sure new sigma vectors give same eigenvalue.
Collapsing to only 1 vector(s).
Change in CC3 energy from last iterated value   -0.0000068138
Setting old CC3 eigenvalue to    0.2881883899
Iter=15   L=1     Root    EOM Energy     Delta E   Res. Norm    Conv?
                     1   0.2881883884  -1.50e-09    5.16e-07      Y
Collapsing to only 1 vector(s).
Change in CC3 energy from last iterated value   -0.0000000015

Procedure converged for 1 root(s).
Energy written to CC_INFO:Etot  -74.7249090239
States per irrep written to CC_INFO.
<R|R> =   1.0000000000000000
EOM CC3 R0 for root 0 =   0.00000000000

Final Energetic Summary for Converged Roots of Irrep App
                     Excitation Energy              Total Energy
                (eV)     (cm^-1)     (au)             (au)
EOM State 2      7.842    63250.0   0.2881883884   -74.724909023854

Largest components of excited wave function #2:
 RIA (libdpd indices) : (cscf notation)
         0 >   0      :      1app >    5ap :    0.6883026031
 Ria (libdpd indices) : (cscf notation)
         0 >   0      :      1app >    5ap :   -0.6883026031
 RIjAb (libdpd indices)     : (cscf notation)
        2   0 >   1   0     :    3ap   1app >    6ap    5ap :   -0.1196658883
        0   2 >   0   1     :   1app    3ap >    5ap    6ap :    0.1196658883
        3   0 >   0   0     :    4ap   1app >    5ap    5ap :    0.0764419792
        0   3 >   0   0     :   1app    4ap >    5ap    5ap :   -0.0764419792
        3   0 >   1   1     :    4ap   1app >    6ap    6ap :    0.0622412913
 RIJAB (libdpd indices)     : (cscf notation)
        0   2 >   1   0     :   1app    3ap >    6ap    5ap :   -0.0231727296
 Rijab (libdpd indices)     : (cscf notation)
        0   2 >   1   0     :   1app    3ap >    6ap    5ap :    0.0231727296

	Putting into environment energy for root of R irrep 2 and root 1.
	Putting into environment CURRENT ENERGY:              -74.7249090239

	Total # of sigma evaluations: 35

*** tstop() called on psinet at Mon May 15 15:39:22 2017
Module time:
	user time   =       0.90 seconds =       0.02 minutes
	system time =       0.95 seconds =       0.02 minutes
	total time  =          2 seconds =       0.03 minutes
Total time:
	user time   =      13.03 seconds =       0.22 minutes
	system time =       6.36 seconds =       0.11 minutes
	total time  =         22 seconds =       0.37 minutes
	Nothing segfaulted................................................PASSED

*** Psi4 exiting successfully. Buy a developer a beer!
