    -----------------------------------------------------------------------
          PSI4: An Open-Source Ab Initio Electronic Structure Package
                              PSI 4.0.0-beta1 Driver

    J. M. Turney, A. C. Simmonett, R. M. Parrish, E. G. Hohenstein,
    F. Evangelista, J. T. Fermann, B. J. Mintz, L. A. Burns, J. J. Wilke,
    M. L. Abrams, N. J. Russ, M. L. Leininger, C. L. Janssen, E. T. Seidl,
    W. D. Allen, H. F. Schaefer, R. A. King, E. F. Valeev, C. D. Sherrill,
    and T. D. Crawford, WIREs Comput. Mol. Sci., (2011) (doi: 10.1002/wcms.93)

                         Additional Contributions by
    A. E. DePrince, M. Saitow, U. Bozkaya, A. Yu. Sokolov
    -----------------------------------------------------------------------


    Using LocalCommunicator (Number of processes = 1)

    Memory level set to 256.000 MB

  ==> Input File <==

--------------------------------------------------------------------------
#! UHF-B-CCD(T)/cc-pVDZ 3B1 CH2 single-point energy (fzc, MO-basis $\langle ab|cd \rangle$)

memory 250 mb

molecule ch2 {
    0 3
    c
    h 1 r
    h 1 r 2 a
    r = 1.1
    a = 109.0
}

set {
   reference = uhf
   basis cc-pVDZ
   freeze_core true
}

energy("bccd(t)")

escf = -38.917378694797030 #TEST
ebccd = -39.030833895315020 #TEST
ebccd_t = -39.032691827829460 #TEST
compare_values(escf, get_variable("SCF TOTAL ENERGY"), 7, "SCF energy") #TEST
compare_values(ebccd, get_variable("CCSD TOTAL ENERGY"), 7, "B-CCD energy") #TEST
compare_values(ebccd_t, get_variable("CCSD(T) TOTAL ENERGY"), 7, "B-CCD(T) energy") #TEST
--------------------------------------------------------------------------

  Memory set to 250.000 MiB by Python script.

*** tstart() called on QuickSilver.local
*** at Mon Jan 23 15:03:26 2012


         ---------------------------------------------------------
                                   SCF
            by Justin Turney, Rob Parrish, and Andy Simmonett
                              UHF Reference
                        1 Threads,    250 MiB Core
         ---------------------------------------------------------

  ==> Geometry <==

    Molecular point group: c2v

    Geometry (in Angstrom), charge = 0, multiplicity = 3:

       Center              X                  Y                   Z       
    ------------   -----------------  -----------------  -----------------
           C          0.000000000000     0.000000000000    -0.091864689759
           H          0.000000000000    -0.895527070192     0.546908561523
           H         -0.000000000000     0.895527070192     0.546908561523

    Number of unique atoms: 2

    Atoms equivalency:
       unique atom 0: 0 
       unique atom 1: 1 2 

  Running in c2v symmetry.

  Nuclear repulsion =    6.068298005568227

  Charge       = 0
  Multiplicity = 3
  Electrons    = 8
  Nalpha       = 5
  Nbeta        = 3

  ==> Algorithm <==

  SCF Algorithm Type is PK.
  DIIS enabled.
  MOM disabled.
  Fractional occupation disabled.
  Guess Type is CORE.
  Energy threshold   = 1.00e-08
  Density threshold  = 1.00e-08
  Integral threshold = 0.00e+00

  ==> Primary Basis: CC-PVDZ <==

  Basis Set
    Number of shells: 12
    Number of basis function: 24
    Number of Cartesian functions: 25
    Spherical Harmonics?: true
    Max angular momentum: 2

  ==> Pre-Iterations <==

  Minimum eigenvalue in the overlap matrix is 2.9429630952E-02.
  Using Symmetric Orthogonalization.
  SCF Guess: Core (One-Electron) Hamiltonian.

  Initial UHF energy:   -28.44231976508354

   -------------------------------------------------------
    Irrep   Nso     Nmo     Nalpha   Nbeta   Ndocc  Nsocc
   -------------------------------------------------------
     A1        11      11       3       2       2       1
     A2         2       2       0       0       0       0
     B1         4       4       1       0       0       1
     B2         7       7       1       1       1       0
   -------------------------------------------------------
    Total      24      24       5       3       3       2
   -------------------------------------------------------

  ==> Integral Setup <==

 MINTS: Wrapper to libmints.
   by Justin Turney

   Calculation information:
      Number of atoms:                   3
      Number of AO shells:              12
      Number of SO shells:               9
      Number of primitives:             32
      Number of atomic orbitals:        25
      Number of basis functions:        24

      Number of irreps:                  4
      Number of functions per irrep: [  11    2    4    7 ]

      Overlap, kinetic, potential, dipole, and quadrupole integrals
        stored in file 35.

      Computing two-electron integrals...done
      Computed 11412 non-zero two-electron integrals.
        Stored in file 33.

  ==> Iterations <==

                        Total Energy        Delta E     Density RMS

   @UHF iter   1:   -35.12226710194874   -6.67995e+00   0.00000e+00 
   @UHF iter   2:   -38.07619874146306   -2.95393e+00   2.47446e-01 DIIS
   @UHF iter   3:   -38.90113807687993   -8.24939e-01   1.43608e-01 DIIS
   @UHF iter   4:   -38.91579874172635   -1.46607e-02   1.40301e-02 DIIS
   @UHF iter   5:   -38.91721660276711   -1.41786e-03   4.09345e-03 DIIS
   @UHF iter   6:   -38.91736784949018   -1.51247e-04   9.92689e-04 DIIS
   @UHF iter   7:   -38.91737833035364   -1.04809e-05   1.86054e-04 DIIS
   @UHF iter   8:   -38.91737865537387   -3.25020e-07   2.06014e-05 DIIS
   @UHF iter   9:   -38.91737868524731   -2.98734e-08   4.77149e-06 DIIS
   @UHF iter  10:   -38.91737869162037   -6.37306e-09   2.80955e-06 DIIS
   @UHF iter  11:   -38.91737869222851   -6.08139e-10   1.05150e-06 DIIS
   @UHF iter  12:   -38.91737869225135   -2.28368e-11   2.88962e-07 DIIS
   @UHF iter  13:   -38.91737869225204   -6.96332e-13   5.56010e-08 DIIS
   @UHF iter  14:   -38.91737869225204    0.00000e+00   1.19272e-08 DIIS

  ==> Post-Iterations <==

	Orbital Energies (a.u.)
	-----------------------

	Alpha Occupied:                                                       

	   1A1   -11.279808     2A1    -0.948183     1B2    -0.574840  
	   3A1    -0.492222     1B1    -0.413890  

	Alpha Virtual:                                                        

	   4A1     0.199574     2B2     0.255473     3B2     0.587217  
	   5A1     0.632444     2B1     0.650424     6A1     0.740599  
	   4B2     0.855150     7A1     1.006855     1A2     1.182747  
	   8A1     1.193228     3B1     1.244502     9A1     1.721416  
	   5B2     1.726796     6B2     1.928609     4B1     1.997867  
	   2A2     2.036720    10A1     2.315622    11A1     2.698261  
	   7B2     2.743850  

	Beta Occupied:                                                        

	   1A1   -11.228970     2A1    -0.783471     1B2    -0.535233  

	Beta Virtual:                                                         

	   3A1     0.105281     1B1     0.159004     4A1     0.221021  
	   2B2     0.285269     3B2     0.620941     5A1     0.737973  
	   2B1     0.822031     6A1     0.832333     4B2     0.906448  
	   7A1     1.062089     1A2     1.257736     8A1     1.303650  
	   3B1     1.383571     5B2     1.732543     9A1     1.810140  
	   6B2     1.988311     4B1     2.039560     2A2     2.087798  
	  10A1     2.350790    11A1     2.720420     7B2     2.769588  

	Final Occupation by Irrep:
	         A1    A2    B1    B2 
	DOCC [     2,    0,    0,    1 ]
	SOCC [     1,    0,    1,    0 ]

  Energy converged.

  @UHF Final Energy:   -38.91737869225204

  ==> Properties <==
  Nuclear Dipole Moment: (a.u.)
     X:     0.0000      Y:     0.0000      Z:     1.0254

  Electronic Dipole Moment: (a.u.)
     X:     0.0000      Y:     0.0000      Z:    -0.7742

  Dipole Moment: (a.u.)
     X:     0.0000      Y:     0.0000      Z:     0.2512     Total:     0.2512

  Dipole Moment: (Debye)
     X:     0.0000      Y:     0.0000      Z:     0.6386     Total:     0.6386


  @Spin Contamination Metric:  0.01210
  @S^2 Expected:               2.00000
  @S^2 Observed:               2.01210

  Saving occupied orbitals to File 180.

*** tstop() called on QuickSilver.local at Mon Jan 23 15:03:27 2012
Module time:
	user time   =       0.09 seconds =       0.00 minutes
	system time =       0.01 seconds =       0.00 minutes
	total time  =          1 seconds =       0.02 minutes
Total time:
	user time   =       0.09 seconds =       0.00 minutes
	system time =       0.01 seconds =       0.00 minutes
	total time  =          1 seconds =       0.02 minutes

*** tstart() called on QuickSilver.local
*** at Mon Jan 23 15:03:27 2012


	**************************************************
	* TRANSQT2: Program to transform integrals from  *
	*           the SO basis to the MO basis.        *
	*                                                *
	*            Daniel, David, & Justin             *
	**************************************************


	Input parameters:
	-----------------
	Wave function   =	BCCD_T
	Backtransform   =	No
	Print Level     =	1
	Print TEIs      =	No
	Reference wfn   =	UHF
	Derivative      =	None
	Delete TEI File =	No
	Memory (Mbytes) =	250.0
	Cache Level     =	2
	Cache Type      =	LRU
	Chkpt Parameters:
	--------------------
	Number of irreps     = 4
	Number of SOs        = 24
	Number of MOs        = 24
	Number of active MOs = 23

	Label	# SOs	# FZDC	# DOCC	# SOCC	# VIRT	# FZVR
	-----	-----	------	------	------	------	------
	 A1	   11	    1	    1	    1	    8	    0
	 A2	   2	    0	    0	    0	    2	    0
	 B1	   4	    0	    0	    1	    3	    0
	 B2	   7	    0	    1	    0	    6	    0

	Nuclear Rep. energy (chkpt) =      6.06829800556823
	SCF energy          (chkpt) =    -38.91737869225204

	Presorting SO-basis two-electron integrals.
	Sorting File: SO Ints (pq,rs) nbuckets = 1
	Frozen-core energy =  -34.282929902198461
	Starting AA/AB first half-transformation.
	Sorting AA/AB half-transformed integrals.
	Starting AA second half-transformation.
	Starting AB second half-transformation.
	Starting BB first half-transformation.
	Sorting BB half-transformed integrals.
	Starting BB second half-transformation.
	Two-electron integral transformation complete.

*** tstop() called on QuickSilver.local at Mon Jan 23 15:03:27 2012
Module time:
	user time   =       0.02 seconds =       0.00 minutes
	system time =       0.02 seconds =       0.00 minutes
	total time  =          0 seconds =       0.00 minutes
Total time:
	user time   =       0.11 seconds =       0.00 minutes
	system time =       0.03 seconds =       0.00 minutes
	total time  =          1 seconds =       0.02 minutes

*** tstart() called on QuickSilver.local
*** at Mon Jan 23 15:03:27 2012


			**************************
			*                        *
			*         CCSORT         *
			*                        *
			**************************


	Input parameters:
	-----------------
	Wave function   =	BCCD_T
	Reference wfn   =	UHF
	Derivative      =	None
	Memory (Mbytes) =	250.0
	AO Basis        =	NONE
	Make (ab|cd)    =	True
	Make unpacked (ab|cd) =	True
	Cache Level     =	2
	Cache Type      =	LRU
	Local CC        =     No


	Chkpt Parameters:
	--------------------
	Number of irreps     = 4
	Number of MOs        = 24
	Number of active MOs = 23

	Label	# MOs	# FZDC	# DOCC	# SOCC	# VIRT	# FZVR
	-----	-----	------	------	------	------	------
	 A1	   11	    1	    1	    1	    8	    0
	 A2	   2	    0	    0	    0	    2	    0
	 B1	   4	    0	    0	    1	    3	    0
	 B2	   7	    0	    1	    0	    6	    0

	Nuclear Rep. energy (chkpt) =      6.06829800556823
	SCF energy          (chkpt) =    -38.91737869225204

	Size of irrep 0 of <AB|CD> integrals:      0.002 (MW) /      0.018 (MB)
	Size of irrep 1 of <AB|CD> integrals:      0.001 (MW) /      0.009 (MB)
	Size of irrep 2 of <AB|CD> integrals:      0.001 (MW) /      0.010 (MB)
	Size of irrep 3 of <AB|CD> integrals:      0.003 (MW) /      0.023 (MB)
	Total:                                     0.008 (MW) /      0.061 (MB)

	Size of irrep 0 of <ab|cd> integrals:      0.003 (MW) /      0.027 (MB)
	Size of irrep 1 of <ab|cd> integrals:      0.002 (MW) /      0.014 (MB)
	Size of irrep 2 of <ab|cd> integrals:      0.002 (MW) /      0.018 (MB)
	Size of irrep 3 of <ab|cd> integrals:      0.004 (MW) /      0.031 (MB)
	Total:                                     0.011 (MW) /      0.090 (MB)

	Size of irrep 0 of <Ab|Cd> integrals:      0.015 (MW) /      0.123 (MB)
	Size of irrep 1 of <Ab|Cd> integrals:      0.006 (MW) /      0.046 (MB)
	Size of irrep 2 of <Ab|Cd> integrals:      0.007 (MW) /      0.055 (MB)
	Size of irrep 3 of <Ab|Cd> integrals:      0.013 (MW) /      0.108 (MB)
	Total:                                     0.041 (MW) /      0.332 (MB)

	Size of irrep 0 of <IA|BC> integrals:      0.003 (MW) /      0.023 (MB)
	Size of irrep 1 of <IA|BC> integrals:      0.001 (MW) /      0.007 (MB)
	Size of irrep 2 of <IA|BC> integrals:      0.001 (MW) /      0.009 (MB)
	Size of irrep 3 of <IA|BC> integrals:      0.002 (MW) /      0.019 (MB)
	Total:                                     0.007 (MW) /      0.058 (MB)

	Size of irrep 0 of <ia|bc> integrals:      0.002 (MW) /      0.016 (MB)
	Size of irrep 1 of <ia|bc> integrals:      0.001 (MW) /      0.004 (MB)
	Size of irrep 2 of <ia|bc> integrals:      0.001 (MW) /      0.005 (MB)
	Size of irrep 3 of <ia|bc> integrals:      0.002 (MW) /      0.015 (MB)
	Total:                                     0.005 (MW) /      0.040 (MB)

	Size of irrep 0 of <Ia|Bc> integrals:      0.003 (MW) /      0.028 (MB)
	Size of irrep 1 of <Ia|Bc> integrals:      0.001 (MW) /      0.009 (MB)
	Size of irrep 2 of <Ia|Bc> integrals:      0.002 (MW) /      0.013 (MB)
	Size of irrep 3 of <Ia|Bc> integrals:      0.003 (MW) /      0.021 (MB)
	Total:                                     0.009 (MW) /      0.070 (MB)

	Size of irrep 0 of <iA|bC> integrals:      0.002 (MW) /      0.014 (MB)
	Size of irrep 1 of <iA|bC> integrals:      0.000 (MW) /      0.003 (MB)
	Size of irrep 2 of <iA|bC> integrals:      0.000 (MW) /      0.003 (MB)
	Size of irrep 3 of <iA|bC> integrals:      0.002 (MW) /      0.013 (MB)
	Total:                                     0.004 (MW) /      0.033 (MB)

	Size of irrep 0 of tIjAb amplitudes:       0.000 (MW) /      0.003 (MB)
	Size of irrep 1 of tIjAb amplitudes:       0.000 (MW) /      0.001 (MB)
	Size of irrep 2 of tIjAb amplitudes:       0.000 (MW) /      0.001 (MB)
	Size of irrep 3 of tIjAb amplitudes:       0.000 (MW) /      0.003 (MB)
	Total:                                     0.001 (MW) /      0.007 (MB)


	Sorting File: A <IJ|KL> nbuckets = 1
	Sorting File: B <AB|CD> nbuckets = 1
	Sorting File: C <IA|JB> nbuckets = 1
	Sorting File: D <IJ|AB> nbuckets = 1
	Sorting File: E <AI|JK> nbuckets = 1
	Sorting File: F <IA|BC> nbuckets = 1
	Sorting File: F <AI|BC> nbuckets = 1
	Sorting File: A <ij|kl> nbuckets = 1
	Sorting File: B <ab|cd> nbuckets = 1
	Sorting File: C <ia|jb> nbuckets = 1
	Sorting File: D <ij|ab> nbuckets = 1
	Sorting File: E <ai|jk> nbuckets = 1
	Sorting File: F <ia|bc> nbuckets = 1
	Sorting File: F <ai|bc> nbuckets = 1
	Sorting File: A <Ij|Kl> nbuckets = 1
	Sorting File: B <Ab|Cd> nbuckets = 1
	Sorting File: C <Ia|Jb> nbuckets = 1
	Sorting File: C <Ai|Bj> nbuckets = 1
	Sorting File: D <Ij|Ab> nbuckets = 1
	Sorting File: E <Ai|Jk> nbuckets = 1
	Sorting File: E <Ij|Ka> nbuckets = 1
	Sorting File: F <Ia|Bc> nbuckets = 1
	Sorting File: F <aI|bC> nbuckets = 1
	Sorting File: F <Ab|Ci> nbuckets = 1
	Sorting File: F <Ai|Bc> nbuckets = 1
	One-electron energy          =    -17.65765447083140
	Two-electron (AA) energy     =      2.57509466426360
	Two-electron (BB) energy     =      0.37129588774654
	Two-electron (AB) energy     =      4.00851712319945
	Two-electron energy          =      6.95490767520959
	Frozen-core energy (transqt) =    -34.28292990219846
	Reference energy             =    -38.91737869225204

*** tstop() called on QuickSilver.local at Mon Jan 23 15:03:28 2012
Module time:
	user time   =       0.05 seconds =       0.00 minutes
	system time =       0.08 seconds =       0.00 minutes
	total time  =          1 seconds =       0.02 minutes
Total time:
	user time   =       0.16 seconds =       0.00 minutes
	system time =       0.11 seconds =       0.00 minutes
	total time  =          2 seconds =       0.03 minutes

*** tstart() called on QuickSilver.local
*** at Mon Jan 23 15:03:28 2012

			**************************
			*                        *
			*        CCENERGY        *
			*                        *
			**************************

	Nuclear Rep. energy (chkpt)   =    6.068298005568227
	SCF energy          (chkpt)   =  -38.917378692252043
	Reference energy    (file100) =  -38.917378692252043

	Input parameters:
	-----------------
	Wave function   =   BCCD_T
	Reference wfn   =     UHF
	Brueckner conv. =     1.0e-05
	Memory (Mbytes) =     250.0
	Maxiter         =     50
	Convergence     =     1.0e-07
	Restart         =     No
	DIIS            =     Yes
	AO Basis        =     NONE
	ABCD            =     NEW
	Cache Level     =     2
	Cache Type      =     LRU
	Print Level     =     1
	Num. of threads =     1
	# Amps to Print =     10
	Print MP2 Amps? =     No
	Analyze T2 Amps =     No
	Print Pair Ener =     No
	Local CC        =     No
	SCS-MP2         =     False
	SCSN-MP2        =     False
	SCS-CCSD        =     False

	            Solving CC Amplitude Equations
	            ------------------------------
  Iter             Energy              RMS        T1Diag      D1Diag    New D1Diag
  ----     ---------------------    ---------   ----------  ----------  ----------
     0        -0.093374174155239    0.000e+00    0.000000    0.000000    0.000000
     1        -0.108367774448098    3.751e-02    0.005754    0.000000    0.000000
     2        -0.113018777021301    1.456e-02    0.010163    0.000000    0.000000
     3        -0.113459333152591    5.372e-03    0.012606    0.000000    0.000000
     4        -0.113499511980497    1.599e-03    0.013206    0.000000    0.000000
     5        -0.113497625128338    4.167e-04    0.013208    0.000000    0.000000
     6        -0.113502746486373    1.492e-04    0.013181    0.000000    0.000000
     7        -0.113503232902207    5.440e-05    0.013163    0.000000    0.000000
     8        -0.113502998863738    1.454e-05    0.013158    0.000000    0.000000
     9        -0.113503202778480    3.837e-06    0.013157    0.000000    0.000000
    10        -0.113503207792336    1.239e-06    0.013157    0.000000    0.000000
    11        -0.113503188431447    2.954e-07    0.013157    0.000000    0.000000
    12        -0.113503191249021    7.378e-08    0.013157    0.000000    0.000000

	Iterations converged.


	Largest TIA Amplitudes:
	          0   0        -0.0059636551
	          3  13        -0.0056516121
	          0   2        -0.0053935967
	          2  10        -0.0044561271
	          0   1         0.0044350181
	          3  17         0.0042852707
	          2  11        -0.0042448453
	          3  14         0.0042101757
	          1   1        -0.0034173534
	          1   4        -0.0033686506

	Largest Tia Amplitudes:
	          0   0         0.0201452234
	          0   2         0.0107988731
	          1  17         0.0098852881
	          1  15         0.0065406830
	          1  19         0.0061024998
	          0   6        -0.0055552749
	          0   4        -0.0049635058
	          0   5        -0.0037496403
	          1  20         0.0032845292
	          0   1         0.0032433649

	Largest TIJAB Amplitudes:
	  2   1  10   1        -0.0308557386
	  3   2   8   2         0.0236639440
	  2   1  11   4        -0.0219938273
	  3   2  15  10        -0.0209441348
	  3   2  13  10        -0.0206888757
	  3   1  13   1        -0.0197544676
	  3   1  15   1        -0.0197110359
	  2   1  10   2        -0.0174364587
	  3   1  14   4         0.0154956103
	  3   1  14   2        -0.0154785733

	Largest Tijab Amplitudes:
	  1   0  11   9        -0.0103470598
	  1   0  16   1        -0.0077445036
	  1   0  16   0         0.0077432792
	  1   0  16   3        -0.0073290800
	  1   0  15   0        -0.0068380363
	  1   0  17   0        -0.0067539265
	  1   0  15   1        -0.0065839734
	  1   0  17   4         0.0062753803
	  1   0  15   4         0.0060796696
	  1   0  12   9        -0.0046160238

	Largest TIjAb Amplitudes:
	  3   1  15  17        -0.0339535080
	  3   1  13  15        -0.0325218245
	  2   0   2  11        -0.0318513744
	  3   1  13  17        -0.0297956090
	  3   1   2   2        -0.0291344808
	  3   1  14  16        -0.0279571659
	  2   1  10  17        -0.0258519224
	  1   0   4   0        -0.0257907977
	  3   1  15  15        -0.0257324462
	  2   1  10  15        -0.0255403268

	SCF energy       (chkpt)              =  -38.917378692252043
	Reference energy (file100)            =  -38.917378692252043

	Opposite-spin MP2 correlation energy  =    0.000000000000000
	Same-spin MP2 correlation energy      =    0.000000000000000
	MP2 correlation energy                =   -0.093374174155239
      * MP2 total energy                      =  -39.010752866407280

	Opposite-spin CCSD correlation energy =    0.000000000000000
	Same-spin CCSD correlation energy     =    0.000000000000000
	CCSD correlation energy               =   -0.113503191249021
      * CCSD total energy                     =  -39.030881883501067

	Rotating orbitals.  Maximum T1 =  0.020145223442

*** tstop() called on QuickSilver.local at Mon Jan 23 15:03:29 2012
Module time:
	user time   =       0.36 seconds =       0.01 minutes
	system time =       0.38 seconds =       0.01 minutes
	total time  =          1 seconds =       0.02 minutes
Total time:
	user time   =       0.53 seconds =       0.01 minutes
	system time =       0.49 seconds =       0.01 minutes
	total time  =          3 seconds =       0.05 minutes
Brueckner convergence check: 0

*** tstart() called on QuickSilver.local
*** at Mon Jan 23 15:03:29 2012


	**************************************************
	* TRANSQT2: Program to transform integrals from  *
	*           the SO basis to the MO basis.        *
	*                                                *
	*            Daniel, David, & Justin             *
	**************************************************


	Input parameters:
	-----------------
	Wave function   =	BCCD_T
	Backtransform   =	No
	Print Level     =	1
	Print TEIs      =	No
	Reference wfn   =	UHF
	Derivative      =	None
	Delete TEI File =	No
	Memory (Mbytes) =	250.0
	Cache Level     =	2
	Cache Type      =	LRU
	Chkpt Parameters:
	--------------------
	Number of irreps     = 4
	Number of SOs        = 24
	Number of MOs        = 24
	Number of active MOs = 23

	Label	# SOs	# FZDC	# DOCC	# SOCC	# VIRT	# FZVR
	-----	-----	------	------	------	------	------
	 A1	   11	    1	    1	    1	    8	    0
	 A2	   2	    0	    0	    0	    2	    0
	 B1	   4	    0	    0	    1	    3	    0
	 B2	   7	    0	    1	    0	    6	    0

	Nuclear Rep. energy (chkpt) =      6.06829800556823
	SCF energy          (chkpt) =    -38.91737869225204

	Presorting SO-basis two-electron integrals.
	Sorting File: SO Ints (pq,rs) nbuckets = 1
	Frozen-core energy =  -34.282929902198504
	Starting AA/AB first half-transformation.
	Sorting AA/AB half-transformed integrals.
	Starting AA second half-transformation.
	Starting AB second half-transformation.
	Starting BB first half-transformation.
	Sorting BB half-transformed integrals.
	Starting BB second half-transformation.
	Two-electron integral transformation complete.

*** tstop() called on QuickSilver.local at Mon Jan 23 15:03:29 2012
Module time:
	user time   =       0.02 seconds =       0.00 minutes
	system time =       0.02 seconds =       0.00 minutes
	total time  =          0 seconds =       0.00 minutes
Total time:
	user time   =       0.55 seconds =       0.01 minutes
	system time =       0.51 seconds =       0.01 minutes
	total time  =          3 seconds =       0.05 minutes

*** tstart() called on QuickSilver.local
*** at Mon Jan 23 15:03:29 2012


			**************************
			*                        *
			*         CCSORT         *
			*                        *
			**************************


	Input parameters:
	-----------------
	Wave function   =	BCCD_T
	Reference wfn   =	UHF
	Derivative      =	None
	Memory (Mbytes) =	250.0
	AO Basis        =	NONE
	Make (ab|cd)    =	True
	Make unpacked (ab|cd) =	True
	Cache Level     =	2
	Cache Type      =	LRU
	Local CC        =     No


	Chkpt Parameters:
	--------------------
	Number of irreps     = 4
	Number of MOs        = 24
	Number of active MOs = 23

	Label	# MOs	# FZDC	# DOCC	# SOCC	# VIRT	# FZVR
	-----	-----	------	------	------	------	------
	 A1	   11	    1	    1	    1	    8	    0
	 A2	   2	    0	    0	    0	    2	    0
	 B1	   4	    0	    0	    1	    3	    0
	 B2	   7	    0	    1	    0	    6	    0

	Nuclear Rep. energy (chkpt) =      6.06829800556823
	SCF energy          (chkpt) =    -38.91737869225204

	Size of irrep 0 of <AB|CD> integrals:      0.002 (MW) /      0.018 (MB)
	Size of irrep 1 of <AB|CD> integrals:      0.001 (MW) /      0.009 (MB)
	Size of irrep 2 of <AB|CD> integrals:      0.001 (MW) /      0.010 (MB)
	Size of irrep 3 of <AB|CD> integrals:      0.003 (MW) /      0.023 (MB)
	Total:                                     0.008 (MW) /      0.061 (MB)

	Size of irrep 0 of <ab|cd> integrals:      0.003 (MW) /      0.027 (MB)
	Size of irrep 1 of <ab|cd> integrals:      0.002 (MW) /      0.014 (MB)
	Size of irrep 2 of <ab|cd> integrals:      0.002 (MW) /      0.018 (MB)
	Size of irrep 3 of <ab|cd> integrals:      0.004 (MW) /      0.031 (MB)
	Total:                                     0.011 (MW) /      0.090 (MB)

	Size of irrep 0 of <Ab|Cd> integrals:      0.015 (MW) /      0.123 (MB)
	Size of irrep 1 of <Ab|Cd> integrals:      0.006 (MW) /      0.046 (MB)
	Size of irrep 2 of <Ab|Cd> integrals:      0.007 (MW) /      0.055 (MB)
	Size of irrep 3 of <Ab|Cd> integrals:      0.013 (MW) /      0.108 (MB)
	Total:                                     0.041 (MW) /      0.332 (MB)

	Size of irrep 0 of <IA|BC> integrals:      0.003 (MW) /      0.023 (MB)
	Size of irrep 1 of <IA|BC> integrals:      0.001 (MW) /      0.007 (MB)
	Size of irrep 2 of <IA|BC> integrals:      0.001 (MW) /      0.009 (MB)
	Size of irrep 3 of <IA|BC> integrals:      0.002 (MW) /      0.019 (MB)
	Total:                                     0.007 (MW) /      0.058 (MB)

	Size of irrep 0 of <ia|bc> integrals:      0.002 (MW) /      0.016 (MB)
	Size of irrep 1 of <ia|bc> integrals:      0.001 (MW) /      0.004 (MB)
	Size of irrep 2 of <ia|bc> integrals:      0.001 (MW) /      0.005 (MB)
	Size of irrep 3 of <ia|bc> integrals:      0.002 (MW) /      0.015 (MB)
	Total:                                     0.005 (MW) /      0.040 (MB)

	Size of irrep 0 of <Ia|Bc> integrals:      0.003 (MW) /      0.028 (MB)
	Size of irrep 1 of <Ia|Bc> integrals:      0.001 (MW) /      0.009 (MB)
	Size of irrep 2 of <Ia|Bc> integrals:      0.002 (MW) /      0.013 (MB)
	Size of irrep 3 of <Ia|Bc> integrals:      0.003 (MW) /      0.021 (MB)
	Total:                                     0.009 (MW) /      0.070 (MB)

	Size of irrep 0 of <iA|bC> integrals:      0.002 (MW) /      0.014 (MB)
	Size of irrep 1 of <iA|bC> integrals:      0.000 (MW) /      0.003 (MB)
	Size of irrep 2 of <iA|bC> integrals:      0.000 (MW) /      0.003 (MB)
	Size of irrep 3 of <iA|bC> integrals:      0.002 (MW) /      0.013 (MB)
	Total:                                     0.004 (MW) /      0.033 (MB)

	Size of irrep 0 of tIjAb amplitudes:       0.000 (MW) /      0.003 (MB)
	Size of irrep 1 of tIjAb amplitudes:       0.000 (MW) /      0.001 (MB)
	Size of irrep 2 of tIjAb amplitudes:       0.000 (MW) /      0.001 (MB)
	Size of irrep 3 of tIjAb amplitudes:       0.000 (MW) /      0.003 (MB)
	Total:                                     0.001 (MW) /      0.007 (MB)


	Sorting File: A <IJ|KL> nbuckets = 1
	Sorting File: B <AB|CD> nbuckets = 1
	Sorting File: C <IA|JB> nbuckets = 1
	Sorting File: D <IJ|AB> nbuckets = 1
	Sorting File: E <AI|JK> nbuckets = 1
	Sorting File: F <IA|BC> nbuckets = 1
	Sorting File: F <AI|BC> nbuckets = 1
	Sorting File: A <ij|kl> nbuckets = 1
	Sorting File: B <ab|cd> nbuckets = 1
	Sorting File: C <ia|jb> nbuckets = 1
	Sorting File: D <ij|ab> nbuckets = 1
	Sorting File: E <ai|jk> nbuckets = 1
	Sorting File: F <ia|bc> nbuckets = 1
	Sorting File: F <ai|bc> nbuckets = 1
	Sorting File: A <Ij|Kl> nbuckets = 1
	Sorting File: B <Ab|Cd> nbuckets = 1
	Sorting File: C <Ia|Jb> nbuckets = 1
	Sorting File: C <Ai|Bj> nbuckets = 1
	Sorting File: D <Ij|Ab> nbuckets = 1
	Sorting File: E <Ai|Jk> nbuckets = 1
	Sorting File: E <Ij|Ka> nbuckets = 1
	Sorting File: F <Ia|Bc> nbuckets = 1
	Sorting File: F <aI|bC> nbuckets = 1
	Sorting File: F <Ab|Ci> nbuckets = 1
	Sorting File: F <Ai|Bc> nbuckets = 1
	One-electron energy          =    -17.66345423905187
	Two-electron (AA) energy     =      2.56587646600866
	Two-electron (BB) energy     =      0.37475988415841
	Two-electron (AB) energy     =      4.02085536195183
	Two-electron energy          =      6.96149171211890
	Frozen-core energy (transqt) =    -34.28292990219850
	Reference energy             =    -38.91659442356325

*** tstop() called on QuickSilver.local at Mon Jan 23 15:03:30 2012
Module time:
	user time   =       0.06 seconds =       0.00 minutes
	system time =       0.07 seconds =       0.00 minutes
	total time  =          1 seconds =       0.02 minutes
Total time:
	user time   =       0.61 seconds =       0.01 minutes
	system time =       0.58 seconds =       0.01 minutes
	total time  =          4 seconds =       0.07 minutes

*** tstart() called on QuickSilver.local
*** at Mon Jan 23 15:03:30 2012

			**************************
			*                        *
			*        CCENERGY        *
			*                        *
			**************************

	Nuclear Rep. energy (chkpt)   =    6.068298005568227
	SCF energy          (chkpt)   =  -38.917378692252043
	Reference energy    (file100) =  -38.916594423563247

	Input parameters:
	-----------------
	Wave function   =   BCCD_T
	Reference wfn   =     UHF
	Brueckner conv. =     1.0e-05
	Memory (Mbytes) =     250.0
	Maxiter         =     50
	Convergence     =     1.0e-07
	Restart         =     Yes
	DIIS            =     Yes
	AO Basis        =     NONE
	ABCD            =     NEW
	Cache Level     =     2
	Cache Type      =     LRU
	Print Level     =     1
	Num. of threads =     1
	# Amps to Print =     10
	Print MP2 Amps? =     No
	Analyze T2 Amps =     No
	Print Pair Ener =     No
	Local CC        =     No
	SCS-MP2         =     False
	SCSN-MP2        =     False
	SCS-CCSD        =     False

	Using old T1 amplitudes.
	Using old T2 amplitudes.
	            Solving CC Amplitude Equations
	            ------------------------------
  Iter             Energy              RMS        T1Diag      D1Diag    New D1Diag
  ----     ---------------------    ---------   ----------  ----------  ----------
     0        -0.113562360352562    7.378e-08    0.013157    0.000000    0.000000
     1        -0.114585689362414    1.985e-02    0.005873    0.000000    0.000000
     2        -0.114368769126674    6.090e-03    0.002933    0.000000    0.000000
     3        -0.114254311630605    2.409e-03    0.001312    0.000000    0.000000
     4        -0.114237022582160    6.306e-04    0.000950    0.000000    0.000000
     5        -0.114237684593952    1.380e-04    0.000934    0.000000    0.000000
     6        -0.114237169475013    4.048e-05    0.000938    0.000000    0.000000
     7        -0.114237082702476    1.122e-05    0.000939    0.000000    0.000000
     8        -0.114237059036204    2.913e-06    0.000939    0.000000    0.000000
     9        -0.114237066047979    9.165e-07    0.000939    0.000000    0.000000
    10        -0.114237077146122    3.237e-07    0.000939    0.000000    0.000000
    11        -0.114237083306360    1.206e-07    0.000939    0.000000    0.000000
    12        -0.114237083381711    3.663e-08    0.000939    0.000000    0.000000

	Iterations converged.


	Largest TIA Amplitudes:
	          3  15        -0.0009686983
	          3  13        -0.0008728362
	          3  14         0.0007240041
	          2  10        -0.0006413093
	          2  11        -0.0005851696
	          1   2        -0.0005566335
	          1   4        -0.0005065550
	          1   1        -0.0004555390
	          0   3         0.0003912217
	          0   1         0.0003398165

	Largest Tia Amplitudes:
	          1  17         0.0005019621
	          1  15         0.0004129627
	          0   0         0.0004073794
	          0   1         0.0003385635
	          0   4        -0.0003113330
	          0   2         0.0002937252
	          0   3         0.0001945971
	          1  20         0.0000905177
	          0   8        -0.0000749940
	          1  18         0.0000746107

	Largest TIJAB Amplitudes:
	  2   1  10   1        -0.0304573935
	  3   2   8   2         0.0234177803
	  2   1  11   4        -0.0218971098
	  3   2  15  10        -0.0209209839
	  3   2  13  10        -0.0206142494
	  3   1  13   1        -0.0197567046
	  3   1  15   1        -0.0196544017
	  2   1  10   2        -0.0180768832
	  3   1  14   2        -0.0155374164
	  3   1  14   4         0.0154400782

	Largest Tijab Amplitudes:
	  1   0  11   9        -0.0103617445
	  1   0  16   1        -0.0078209754
	  1   0  16   0         0.0076952187
	  1   0  16   3        -0.0073251235
	  1   0  15   0        -0.0069212298
	  1   0  17   0        -0.0068140150
	  1   0  15   1        -0.0064970215
	  1   0  17   4         0.0062507361
	  1   0  15   4         0.0060700733
	  1   0  12   9        -0.0046175427

	Largest TIjAb Amplitudes:
	  3   1  15  17        -0.0338659994
	  3   1  13  15        -0.0325208949
	  2   0   2  11        -0.0314995902
	  3   1  13  17        -0.0296790368
	  3   1   2   2        -0.0289509895
	  3   1  14  16        -0.0279443622
	  3   1  15  15        -0.0258102173
	  2   1  10  17        -0.0257471645
	  1   0   4   0        -0.0256659707
	  2   1  10  15        -0.0255803047

	SCF energy       (chkpt)              =  -38.917378692252043
	Reference energy (file100)            =  -38.916594423563247

	Opposite-spin MP2 correlation energy  =    0.000000000000000
	Same-spin MP2 correlation energy      =    0.000000000000000
	MP2 correlation energy                =   -0.095213134746865
      * MP2 total energy                      =  -39.011807558310110

	Opposite-spin CCSD correlation energy =    0.000000000000000
	Same-spin CCSD correlation energy     =    0.000000000000000
	CCSD correlation energy               =   -0.114237083381711
      * CCSD total energy                     =  -39.030831506944956

	Rotating orbitals.  Maximum T1 =  0.000968698307

*** tstop() called on QuickSilver.local at Mon Jan 23 15:03:31 2012
Module time:
	user time   =       0.37 seconds =       0.01 minutes
	system time =       0.37 seconds =       0.01 minutes
	total time  =          1 seconds =       0.02 minutes
Total time:
	user time   =       0.98 seconds =       0.02 minutes
	system time =       0.95 seconds =       0.02 minutes
	total time  =          5 seconds =       0.08 minutes
Brueckner convergence check: 0

*** tstart() called on QuickSilver.local
*** at Mon Jan 23 15:03:31 2012


	**************************************************
	* TRANSQT2: Program to transform integrals from  *
	*           the SO basis to the MO basis.        *
	*                                                *
	*            Daniel, David, & Justin             *
	**************************************************


	Input parameters:
	-----------------
	Wave function   =	BCCD_T
	Backtransform   =	No
	Print Level     =	1
	Print TEIs      =	No
	Reference wfn   =	UHF
	Derivative      =	None
	Delete TEI File =	No
	Memory (Mbytes) =	250.0
	Cache Level     =	2
	Cache Type      =	LRU
	Chkpt Parameters:
	--------------------
	Number of irreps     = 4
	Number of SOs        = 24
	Number of MOs        = 24
	Number of active MOs = 23

	Label	# SOs	# FZDC	# DOCC	# SOCC	# VIRT	# FZVR
	-----	-----	------	------	------	------	------
	 A1	   11	    1	    1	    1	    8	    0
	 A2	   2	    0	    0	    0	    2	    0
	 B1	   4	    0	    0	    1	    3	    0
	 B2	   7	    0	    1	    0	    6	    0

	Nuclear Rep. energy (chkpt) =      6.06829800556823
	SCF energy          (chkpt) =    -38.91737869225204

	Presorting SO-basis two-electron integrals.
	Sorting File: SO Ints (pq,rs) nbuckets = 1
	Frozen-core energy =  -34.282929902198511
	Starting AA/AB first half-transformation.
	Sorting AA/AB half-transformed integrals.
	Starting AA second half-transformation.
	Starting AB second half-transformation.
	Starting BB first half-transformation.
	Sorting BB half-transformed integrals.
	Starting BB second half-transformation.
	Two-electron integral transformation complete.

*** tstop() called on QuickSilver.local at Mon Jan 23 15:03:31 2012
Module time:
	user time   =       0.02 seconds =       0.00 minutes
	system time =       0.02 seconds =       0.00 minutes
	total time  =          0 seconds =       0.00 minutes
Total time:
	user time   =       1.00 seconds =       0.02 minutes
	system time =       0.97 seconds =       0.02 minutes
	total time  =          5 seconds =       0.08 minutes

*** tstart() called on QuickSilver.local
*** at Mon Jan 23 15:03:31 2012


			**************************
			*                        *
			*         CCSORT         *
			*                        *
			**************************


	Input parameters:
	-----------------
	Wave function   =	BCCD_T
	Reference wfn   =	UHF
	Derivative      =	None
	Memory (Mbytes) =	250.0
	AO Basis        =	NONE
	Make (ab|cd)    =	True
	Make unpacked (ab|cd) =	True
	Cache Level     =	2
	Cache Type      =	LRU
	Local CC        =     No


	Chkpt Parameters:
	--------------------
	Number of irreps     = 4
	Number of MOs        = 24
	Number of active MOs = 23

	Label	# MOs	# FZDC	# DOCC	# SOCC	# VIRT	# FZVR
	-----	-----	------	------	------	------	------
	 A1	   11	    1	    1	    1	    8	    0
	 A2	   2	    0	    0	    0	    2	    0
	 B1	   4	    0	    0	    1	    3	    0
	 B2	   7	    0	    1	    0	    6	    0

	Nuclear Rep. energy (chkpt) =      6.06829800556823
	SCF energy          (chkpt) =    -38.91737869225204

	Size of irrep 0 of <AB|CD> integrals:      0.002 (MW) /      0.018 (MB)
	Size of irrep 1 of <AB|CD> integrals:      0.001 (MW) /      0.009 (MB)
	Size of irrep 2 of <AB|CD> integrals:      0.001 (MW) /      0.010 (MB)
	Size of irrep 3 of <AB|CD> integrals:      0.003 (MW) /      0.023 (MB)
	Total:                                     0.008 (MW) /      0.061 (MB)

	Size of irrep 0 of <ab|cd> integrals:      0.003 (MW) /      0.027 (MB)
	Size of irrep 1 of <ab|cd> integrals:      0.002 (MW) /      0.014 (MB)
	Size of irrep 2 of <ab|cd> integrals:      0.002 (MW) /      0.018 (MB)
	Size of irrep 3 of <ab|cd> integrals:      0.004 (MW) /      0.031 (MB)
	Total:                                     0.011 (MW) /      0.090 (MB)

	Size of irrep 0 of <Ab|Cd> integrals:      0.015 (MW) /      0.123 (MB)
	Size of irrep 1 of <Ab|Cd> integrals:      0.006 (MW) /      0.046 (MB)
	Size of irrep 2 of <Ab|Cd> integrals:      0.007 (MW) /      0.055 (MB)
	Size of irrep 3 of <Ab|Cd> integrals:      0.013 (MW) /      0.108 (MB)
	Total:                                     0.041 (MW) /      0.332 (MB)

	Size of irrep 0 of <IA|BC> integrals:      0.003 (MW) /      0.023 (MB)
	Size of irrep 1 of <IA|BC> integrals:      0.001 (MW) /      0.007 (MB)
	Size of irrep 2 of <IA|BC> integrals:      0.001 (MW) /      0.009 (MB)
	Size of irrep 3 of <IA|BC> integrals:      0.002 (MW) /      0.019 (MB)
	Total:                                     0.007 (MW) /      0.058 (MB)

	Size of irrep 0 of <ia|bc> integrals:      0.002 (MW) /      0.016 (MB)
	Size of irrep 1 of <ia|bc> integrals:      0.001 (MW) /      0.004 (MB)
	Size of irrep 2 of <ia|bc> integrals:      0.001 (MW) /      0.005 (MB)
	Size of irrep 3 of <ia|bc> integrals:      0.002 (MW) /      0.015 (MB)
	Total:                                     0.005 (MW) /      0.040 (MB)

	Size of irrep 0 of <Ia|Bc> integrals:      0.003 (MW) /      0.028 (MB)
	Size of irrep 1 of <Ia|Bc> integrals:      0.001 (MW) /      0.009 (MB)
	Size of irrep 2 of <Ia|Bc> integrals:      0.002 (MW) /      0.013 (MB)
	Size of irrep 3 of <Ia|Bc> integrals:      0.003 (MW) /      0.021 (MB)
	Total:                                     0.009 (MW) /      0.070 (MB)

	Size of irrep 0 of <iA|bC> integrals:      0.002 (MW) /      0.014 (MB)
	Size of irrep 1 of <iA|bC> integrals:      0.000 (MW) /      0.003 (MB)
	Size of irrep 2 of <iA|bC> integrals:      0.000 (MW) /      0.003 (MB)
	Size of irrep 3 of <iA|bC> integrals:      0.002 (MW) /      0.013 (MB)
	Total:                                     0.004 (MW) /      0.033 (MB)

	Size of irrep 0 of tIjAb amplitudes:       0.000 (MW) /      0.003 (MB)
	Size of irrep 1 of tIjAb amplitudes:       0.000 (MW) /      0.001 (MB)
	Size of irrep 2 of tIjAb amplitudes:       0.000 (MW) /      0.001 (MB)
	Size of irrep 3 of tIjAb amplitudes:       0.000 (MW) /      0.003 (MB)
	Total:                                     0.001 (MW) /      0.007 (MB)


	Sorting File: A <IJ|KL> nbuckets = 1
	Sorting File: B <AB|CD> nbuckets = 1
	Sorting File: C <IA|JB> nbuckets = 1
	Sorting File: D <IJ|AB> nbuckets = 1
	Sorting File: E <AI|JK> nbuckets = 1
	Sorting File: F <IA|BC> nbuckets = 1
	Sorting File: F <AI|BC> nbuckets = 1
	Sorting File: A <ij|kl> nbuckets = 1
	Sorting File: B <ab|cd> nbuckets = 1
	Sorting File: C <ia|jb> nbuckets = 1
	Sorting File: D <ij|ab> nbuckets = 1
	Sorting File: E <ai|jk> nbuckets = 1
	Sorting File: F <ia|bc> nbuckets = 1
	Sorting File: F <ai|bc> nbuckets = 1
	Sorting File: A <Ij|Kl> nbuckets = 1
	Sorting File: B <Ab|Cd> nbuckets = 1
	Sorting File: C <Ia|Jb> nbuckets = 1
	Sorting File: C <Ai|Bj> nbuckets = 1
	Sorting File: D <Ij|Ab> nbuckets = 1
	Sorting File: E <Ai|Jk> nbuckets = 1
	Sorting File: E <Ij|Ka> nbuckets = 1
	Sorting File: F <Ia|Bc> nbuckets = 1
	Sorting File: F <aI|bC> nbuckets = 1
	Sorting File: F <Ab|Ci> nbuckets = 1
	Sorting File: F <Ai|Bc> nbuckets = 1
	One-electron energy          =    -17.66229277050207
	Two-electron (AA) energy     =      2.56414461765954
	Two-electron (BB) energy     =      0.37496240656901
	Two-electron (AB) energy     =      4.02125075882697
	Two-electron energy          =      6.96035778305552
	Frozen-core energy (transqt) =    -34.28292990219851
	Reference energy             =    -38.91656688407684

*** tstop() called on QuickSilver.local at Mon Jan 23 15:03:31 2012
Module time:
	user time   =       0.05 seconds =       0.00 minutes
	system time =       0.06 seconds =       0.00 minutes
	total time  =          0 seconds =       0.00 minutes
Total time:
	user time   =       1.05 seconds =       0.02 minutes
	system time =       1.03 seconds =       0.02 minutes
	total time  =          5 seconds =       0.08 minutes

*** tstart() called on QuickSilver.local
*** at Mon Jan 23 15:03:31 2012

			**************************
			*                        *
			*        CCENERGY        *
			*                        *
			**************************

	Nuclear Rep. energy (chkpt)   =    6.068298005568227
	SCF energy          (chkpt)   =  -38.917378692252043
	Reference energy    (file100) =  -38.916566884076836

	Input parameters:
	-----------------
	Wave function   =   BCCD_T
	Reference wfn   =     UHF
	Brueckner conv. =     1.0e-05
	Memory (Mbytes) =     250.0
	Maxiter         =     50
	Convergence     =     1.0e-07
	Restart         =     Yes
	DIIS            =     Yes
	AO Basis        =     NONE
	ABCD            =     NEW
	Cache Level     =     2
	Cache Type      =     LRU
	Print Level     =     1
	Num. of threads =     1
	# Amps to Print =     10
	Print MP2 Amps? =     No
	Analyze T2 Amps =     No
	Print Pair Ener =     No
	Local CC        =     No
	SCS-MP2         =     False
	SCSN-MP2        =     False
	SCS-CCSD        =     False

	Using old T1 amplitudes.
	Using old T2 amplitudes.
	            Solving CC Amplitude Equations
	            ------------------------------
  Iter             Energy              RMS        T1Diag      D1Diag    New D1Diag
  ----     ---------------------    ---------   ----------  ----------  ----------
     0        -0.114254476004537    3.663e-08    0.000939    0.000000    0.000000
     1        -0.114268823833146    1.515e-03    0.000444    0.000000    0.000000
     2        -0.114272916725948    4.471e-04    0.000245    0.000000    0.000000
     3        -0.114269452560262    1.748e-04    0.000133    0.000000    0.000000
     4        -0.114267611725245    4.115e-05    0.000107    0.000000    0.000000
     5        -0.114267412090337    9.228e-06    0.000105    0.000000    0.000000
     6        -0.114267325599527    2.707e-06    0.000105    0.000000    0.000000
     7        -0.114267291370703    8.359e-07    0.000104    0.000000    0.000000
     8        -0.114267284736362    2.245e-07    0.000104    0.000000    0.000000
     9        -0.114267284128123    6.584e-08    0.000104    0.000000    0.000000

	Iterations converged.


	Largest TIA Amplitudes:
	          1   4         0.0000338137
	          1   1         0.0000329674
	          2  11         0.0000258701
	          2  10         0.0000249323
	          3  14         0.0000243115
	          1   2        -0.0000236985
	          0   2        -0.0000178078
	          3  15        -0.0000139184
	          3  13        -0.0000123418
	          0   5        -0.0000109031

	Largest Tia Amplitudes:
	          1  17         0.0001342846
	          0   0         0.0001179860
	          1  15         0.0001127117
	          0   4        -0.0000742589
	          0   1         0.0000528249
	          0   2         0.0000523621
	          1  16        -0.0000430633
	          1  20         0.0000274721
	          0   8        -0.0000271482
	          0   5         0.0000170328

	Largest TIJAB Amplitudes:
	  2   1  10   1        -0.0304624689
	  3   2   8   2         0.0234206276
	  2   1  11   4        -0.0218953864
	  3   2  15  10        -0.0209187928
	  3   2  13  10        -0.0206108952
	  3   1  13   1        -0.0197547759
	  3   1  15   1        -0.0196519367
	  2   1  10   2        -0.0180692256
	  3   1  14   2        -0.0155338996
	  3   1  14   4         0.0154403825

	Largest Tijab Amplitudes:
	  1   0  11   9        -0.0103673867
	  1   0  16   1        -0.0078202123
	  1   0  16   0         0.0077015580
	  1   0  16   3        -0.0073294361
	  1   0  15   0        -0.0069233807
	  1   0  17   0        -0.0068203719
	  1   0  15   1        -0.0065008723
	  1   0  17   4         0.0062489206
	  1   0  15   4         0.0060738022
	  1   0  12   9        -0.0046150992

	Largest TIjAb Amplitudes:
	  3   1  15  17        -0.0338633236
	  3   1  13  15        -0.0325332390
	  2   0   2  11        -0.0315106072
	  3   1  13  17        -0.0296749733
	  3   1   2   2        -0.0288691869
	  3   1  14  16        -0.0279354643
	  3   1  15  15        -0.0258260889
	  2   1  10  17        -0.0257350367
	  1   0   4   0        -0.0256824768
	  2   1  10  15        -0.0255925427

	SCF energy       (chkpt)              =  -38.917378692252043
	Reference energy (file100)            =  -38.916566884076836

	Opposite-spin MP2 correlation energy  =    0.000000000000000
	Same-spin MP2 correlation energy      =    0.000000000000000
	MP2 correlation energy                =   -0.095239045254566
      * MP2 total energy                      =  -39.011805929331402

	Opposite-spin CCSD correlation energy =    0.000000000000000
	Same-spin CCSD correlation energy     =    0.000000000000000
	CCSD correlation energy               =   -0.114267284128123
      * CCSD total energy                     =  -39.030834168204962

	Rotating orbitals.  Maximum T1 =  0.000134284632

*** tstop() called on QuickSilver.local at Mon Jan 23 15:03:33 2012
Module time:
	user time   =       0.28 seconds =       0.00 minutes
	system time =       0.29 seconds =       0.00 minutes
	total time  =          2 seconds =       0.03 minutes
Total time:
	user time   =       1.34 seconds =       0.02 minutes
	system time =       1.33 seconds =       0.02 minutes
	total time  =          7 seconds =       0.12 minutes
Brueckner convergence check: 0

*** tstart() called on QuickSilver.local
*** at Mon Jan 23 15:03:33 2012


	**************************************************
	* TRANSQT2: Program to transform integrals from  *
	*           the SO basis to the MO basis.        *
	*                                                *
	*            Daniel, David, & Justin             *
	**************************************************


	Input parameters:
	-----------------
	Wave function   =	BCCD_T
	Backtransform   =	No
	Print Level     =	1
	Print TEIs      =	No
	Reference wfn   =	UHF
	Derivative      =	None
	Delete TEI File =	No
	Memory (Mbytes) =	250.0
	Cache Level     =	2
	Cache Type      =	LRU
	Chkpt Parameters:
	--------------------
	Number of irreps     = 4
	Number of SOs        = 24
	Number of MOs        = 24
	Number of active MOs = 23

	Label	# SOs	# FZDC	# DOCC	# SOCC	# VIRT	# FZVR
	-----	-----	------	------	------	------	------
	 A1	   11	    1	    1	    1	    8	    0
	 A2	   2	    0	    0	    0	    2	    0
	 B1	   4	    0	    0	    1	    3	    0
	 B2	   7	    0	    1	    0	    6	    0

	Nuclear Rep. energy (chkpt) =      6.06829800556823
	SCF energy          (chkpt) =    -38.91737869225204

	Presorting SO-basis two-electron integrals.
	Sorting File: SO Ints (pq,rs) nbuckets = 1
	Frozen-core energy =  -34.282929902198489
	Starting AA/AB first half-transformation.
	Sorting AA/AB half-transformed integrals.
	Starting AA second half-transformation.
	Starting AB second half-transformation.
	Starting BB first half-transformation.
	Sorting BB half-transformed integrals.
	Starting BB second half-transformation.
	Two-electron integral transformation complete.

*** tstop() called on QuickSilver.local at Mon Jan 23 15:03:33 2012
Module time:
	user time   =       0.02 seconds =       0.00 minutes
	system time =       0.02 seconds =       0.00 minutes
	total time  =          0 seconds =       0.00 minutes
Total time:
	user time   =       1.36 seconds =       0.02 minutes
	system time =       1.35 seconds =       0.02 minutes
	total time  =          7 seconds =       0.12 minutes

*** tstart() called on QuickSilver.local
*** at Mon Jan 23 15:03:33 2012


			**************************
			*                        *
			*         CCSORT         *
			*                        *
			**************************


	Input parameters:
	-----------------
	Wave function   =	BCCD_T
	Reference wfn   =	UHF
	Derivative      =	None
	Memory (Mbytes) =	250.0
	AO Basis        =	NONE
	Make (ab|cd)    =	True
	Make unpacked (ab|cd) =	True
	Cache Level     =	2
	Cache Type      =	LRU
	Local CC        =     No


	Chkpt Parameters:
	--------------------
	Number of irreps     = 4
	Number of MOs        = 24
	Number of active MOs = 23

	Label	# MOs	# FZDC	# DOCC	# SOCC	# VIRT	# FZVR
	-----	-----	------	------	------	------	------
	 A1	   11	    1	    1	    1	    8	    0
	 A2	   2	    0	    0	    0	    2	    0
	 B1	   4	    0	    0	    1	    3	    0
	 B2	   7	    0	    1	    0	    6	    0

	Nuclear Rep. energy (chkpt) =      6.06829800556823
	SCF energy          (chkpt) =    -38.91737869225204

	Size of irrep 0 of <AB|CD> integrals:      0.002 (MW) /      0.018 (MB)
	Size of irrep 1 of <AB|CD> integrals:      0.001 (MW) /      0.009 (MB)
	Size of irrep 2 of <AB|CD> integrals:      0.001 (MW) /      0.010 (MB)
	Size of irrep 3 of <AB|CD> integrals:      0.003 (MW) /      0.023 (MB)
	Total:                                     0.008 (MW) /      0.061 (MB)

	Size of irrep 0 of <ab|cd> integrals:      0.003 (MW) /      0.027 (MB)
	Size of irrep 1 of <ab|cd> integrals:      0.002 (MW) /      0.014 (MB)
	Size of irrep 2 of <ab|cd> integrals:      0.002 (MW) /      0.018 (MB)
	Size of irrep 3 of <ab|cd> integrals:      0.004 (MW) /      0.031 (MB)
	Total:                                     0.011 (MW) /      0.090 (MB)

	Size of irrep 0 of <Ab|Cd> integrals:      0.015 (MW) /      0.123 (MB)
	Size of irrep 1 of <Ab|Cd> integrals:      0.006 (MW) /      0.046 (MB)
	Size of irrep 2 of <Ab|Cd> integrals:      0.007 (MW) /      0.055 (MB)
	Size of irrep 3 of <Ab|Cd> integrals:      0.013 (MW) /      0.108 (MB)
	Total:                                     0.041 (MW) /      0.332 (MB)

	Size of irrep 0 of <IA|BC> integrals:      0.003 (MW) /      0.023 (MB)
	Size of irrep 1 of <IA|BC> integrals:      0.001 (MW) /      0.007 (MB)
	Size of irrep 2 of <IA|BC> integrals:      0.001 (MW) /      0.009 (MB)
	Size of irrep 3 of <IA|BC> integrals:      0.002 (MW) /      0.019 (MB)
	Total:                                     0.007 (MW) /      0.058 (MB)

	Size of irrep 0 of <ia|bc> integrals:      0.002 (MW) /      0.016 (MB)
	Size of irrep 1 of <ia|bc> integrals:      0.001 (MW) /      0.004 (MB)
	Size of irrep 2 of <ia|bc> integrals:      0.001 (MW) /      0.005 (MB)
	Size of irrep 3 of <ia|bc> integrals:      0.002 (MW) /      0.015 (MB)
	Total:                                     0.005 (MW) /      0.040 (MB)

	Size of irrep 0 of <Ia|Bc> integrals:      0.003 (MW) /      0.028 (MB)
	Size of irrep 1 of <Ia|Bc> integrals:      0.001 (MW) /      0.009 (MB)
	Size of irrep 2 of <Ia|Bc> integrals:      0.002 (MW) /      0.013 (MB)
	Size of irrep 3 of <Ia|Bc> integrals:      0.003 (MW) /      0.021 (MB)
	Total:                                     0.009 (MW) /      0.070 (MB)

	Size of irrep 0 of <iA|bC> integrals:      0.002 (MW) /      0.014 (MB)
	Size of irrep 1 of <iA|bC> integrals:      0.000 (MW) /      0.003 (MB)
	Size of irrep 2 of <iA|bC> integrals:      0.000 (MW) /      0.003 (MB)
	Size of irrep 3 of <iA|bC> integrals:      0.002 (MW) /      0.013 (MB)
	Total:                                     0.004 (MW) /      0.033 (MB)

	Size of irrep 0 of tIjAb amplitudes:       0.000 (MW) /      0.003 (MB)
	Size of irrep 1 of tIjAb amplitudes:       0.000 (MW) /      0.001 (MB)
	Size of irrep 2 of tIjAb amplitudes:       0.000 (MW) /      0.001 (MB)
	Size of irrep 3 of tIjAb amplitudes:       0.000 (MW) /      0.003 (MB)
	Total:                                     0.001 (MW) /      0.007 (MB)


	Sorting File: A <IJ|KL> nbuckets = 1
	Sorting File: B <AB|CD> nbuckets = 1
	Sorting File: C <IA|JB> nbuckets = 1
	Sorting File: D <IJ|AB> nbuckets = 1
	Sorting File: E <AI|JK> nbuckets = 1
	Sorting File: F <IA|BC> nbuckets = 1
	Sorting File: F <AI|BC> nbuckets = 1
	Sorting File: A <ij|kl> nbuckets = 1
	Sorting File: B <ab|cd> nbuckets = 1
	Sorting File: C <ia|jb> nbuckets = 1
	Sorting File: D <ij|ab> nbuckets = 1
	Sorting File: E <ai|jk> nbuckets = 1
	Sorting File: F <ia|bc> nbuckets = 1
	Sorting File: F <ai|bc> nbuckets = 1
	Sorting File: A <Ij|Kl> nbuckets = 1
	Sorting File: B <Ab|Cd> nbuckets = 1
	Sorting File: C <Ia|Jb> nbuckets = 1
	Sorting File: C <Ai|Bj> nbuckets = 1
	Sorting File: D <Ij|Ab> nbuckets = 1
	Sorting File: E <Ai|Jk> nbuckets = 1
	Sorting File: E <Ij|Ka> nbuckets = 1
	Sorting File: F <Ia|Bc> nbuckets = 1
	Sorting File: F <aI|bC> nbuckets = 1
	Sorting File: F <Ab|Ci> nbuckets = 1
	Sorting File: F <Ai|Bc> nbuckets = 1
	One-electron energy          =    -17.66256204978003
	Two-electron (AA) energy     =      2.56415668299192
	Two-electron (BB) energy     =      0.37500214008387
	Two-electron (AB) energy     =      4.02147463767960
	Two-electron energy          =      6.96063346075539
	Frozen-core energy (transqt) =    -34.28292990219849
	Reference energy             =    -38.91656048565491

*** tstop() called on QuickSilver.local at Mon Jan 23 15:03:33 2012
Module time:
	user time   =       0.05 seconds =       0.00 minutes
	system time =       0.05 seconds =       0.00 minutes
	total time  =          0 seconds =       0.00 minutes
Total time:
	user time   =       1.41 seconds =       0.02 minutes
	system time =       1.40 seconds =       0.02 minutes
	total time  =          7 seconds =       0.12 minutes

*** tstart() called on QuickSilver.local
*** at Mon Jan 23 15:03:33 2012

			**************************
			*                        *
			*        CCENERGY        *
			*                        *
			**************************

	Nuclear Rep. energy (chkpt)   =    6.068298005568227
	SCF energy          (chkpt)   =  -38.917378692252043
	Reference energy    (file100) =  -38.916560485654912

	Input parameters:
	-----------------
	Wave function   =   BCCD_T
	Reference wfn   =     UHF
	Brueckner conv. =     1.0e-05
	Memory (Mbytes) =     250.0
	Maxiter         =     50
	Convergence     =     1.0e-07
	Restart         =     Yes
	DIIS            =     Yes
	AO Basis        =     NONE
	ABCD            =     NEW
	Cache Level     =     2
	Cache Type      =     LRU
	Print Level     =     1
	Num. of threads =     1
	# Amps to Print =     10
	Print MP2 Amps? =     No
	Analyze T2 Amps =     No
	Print Pair Ener =     No
	Local CC        =     No
	SCS-MP2         =     False
	SCSN-MP2        =     False
	SCS-CCSD        =     False

	Using old T1 amplitudes.
	Using old T2 amplitudes.
	            Solving CC Amplitude Equations
	            ------------------------------
  Iter             Energy              RMS        T1Diag      D1Diag    New D1Diag
  ----     ---------------------    ---------   ----------  ----------  ----------
     0        -0.114269799713336    6.584e-08    0.000104    0.000000    0.000000
     1        -0.114274403765260    1.984e-04    0.000045    0.000000    0.000000
     2        -0.114273885629290    4.580e-05    0.000027    0.000000    0.000000
     3        -0.114273586528863    2.090e-05    0.000016    0.000000    0.000000
     4        -0.114273427466346    4.427e-06    0.000014    0.000000    0.000000
     5        -0.114273365411837    1.048e-06    0.000014    0.000000    0.000000
     6        -0.114273353358363    3.278e-07    0.000014    0.000000    0.000000
     7        -0.114273350698353    1.037e-07    0.000014    0.000000    0.000000
     8        -0.114273350013113    3.022e-08    0.000014    0.000000    0.000000

	Iterations converged.


	Largest TIA Amplitudes:
	          3  13        -0.0000165775
	          3  15        -0.0000162281
	          2  10        -0.0000117685
	          1   2        -0.0000092312
	          1   1        -0.0000086119
	          0   3         0.0000079076
	          0   0        -0.0000067978
	          3  14         0.0000066498
	          1   0        -0.0000055147
	          1   4        -0.0000054815

	Largest Tia Amplitudes:
	          0   0        -0.0000040168
	          1  15        -0.0000025473
	          0   4         0.0000018686
	          1  17        -0.0000015497
	          0   3         0.0000015475
	          0   6         0.0000010735
	          1  16        -0.0000008707
	          0   1        -0.0000006474
	          1  19        -0.0000006150
	          1  18         0.0000004638

	Largest TIJAB Amplitudes:
	  2   1  10   1        -0.0304559908
	  3   2   8   2         0.0234168139
	  2   1  11   4        -0.0218943173
	  3   2  15  10        -0.0209198191
	  3   2  13  10        -0.0206101139
	  3   1  13   1        -0.0197548087
	  3   1  15   1        -0.0196521029
	  2   1  10   2        -0.0180801189
	  3   1  14   2        -0.0155346376
	  3   1  14   4         0.0154407613

	Largest Tijab Amplitudes:
	  1   0  11   9        -0.0103672378
	  1   0  16   1        -0.0078210308
	  1   0  16   0         0.0077006631
	  1   0  16   3        -0.0073294896
	  1   0  15   0        -0.0069239985
	  1   0  17   0        -0.0068210061
	  1   0  15   1        -0.0065000692
	  1   0  17   4         0.0062490393
	  1   0  15   4         0.0060737747
	  1   0  12   9        -0.0046156433

	Largest TIjAb Amplitudes:
	  3   1  15  17        -0.0338636767
	  3   1  13  15        -0.0325316699
	  2   0   2  11        -0.0315049091
	  3   1  13  17        -0.0296732983
	  3   1   2   2        -0.0288706529
	  3   1  14  16        -0.0279362335
	  3   1  15  15        -0.0258268020
	  2   1  10  17        -0.0257352304
	  1   0   4   0        -0.0256799008
	  2   1  10  15        -0.0255928325

	SCF energy       (chkpt)              =  -38.917378692252043
	Reference energy (file100)            =  -38.916560485654912

	Opposite-spin MP2 correlation energy  =    0.000000000000000
	Same-spin MP2 correlation energy      =    0.000000000000000
	MP2 correlation energy                =   -0.095247986639498
      * MP2 total energy                      =  -39.011808472294412

	Opposite-spin CCSD correlation energy =    0.000000000000000
	Same-spin CCSD correlation energy     =    0.000000000000000
	CCSD correlation energy               =   -0.114273350013113
      * CCSD total energy                     =  -39.030833835668027

	Rotating orbitals.  Maximum T1 =  0.000016577525

*** tstop() called on QuickSilver.local at Mon Jan 23 15:03:34 2012
Module time:
	user time   =       0.26 seconds =       0.00 minutes
	system time =       0.27 seconds =       0.00 minutes
	total time  =          1 seconds =       0.02 minutes
Total time:
	user time   =       1.68 seconds =       0.03 minutes
	system time =       1.67 seconds =       0.03 minutes
	total time  =          8 seconds =       0.13 minutes
Brueckner convergence check: 0

*** tstart() called on QuickSilver.local
*** at Mon Jan 23 15:03:34 2012


	**************************************************
	* TRANSQT2: Program to transform integrals from  *
	*           the SO basis to the MO basis.        *
	*                                                *
	*            Daniel, David, & Justin             *
	**************************************************


	Input parameters:
	-----------------
	Wave function   =	BCCD_T
	Backtransform   =	No
	Print Level     =	1
	Print TEIs      =	No
	Reference wfn   =	UHF
	Derivative      =	None
	Delete TEI File =	No
	Memory (Mbytes) =	250.0
	Cache Level     =	2
	Cache Type      =	LRU
	Chkpt Parameters:
	--------------------
	Number of irreps     = 4
	Number of SOs        = 24
	Number of MOs        = 24
	Number of active MOs = 23

	Label	# SOs	# FZDC	# DOCC	# SOCC	# VIRT	# FZVR
	-----	-----	------	------	------	------	------
	 A1	   11	    1	    1	    1	    8	    0
	 A2	   2	    0	    0	    0	    2	    0
	 B1	   4	    0	    0	    1	    3	    0
	 B2	   7	    0	    1	    0	    6	    0

	Nuclear Rep. energy (chkpt) =      6.06829800556823
	SCF energy          (chkpt) =    -38.91737869225204

	Presorting SO-basis two-electron integrals.
	Sorting File: SO Ints (pq,rs) nbuckets = 1
	Frozen-core energy =  -34.282929902198468
	Starting AA/AB first half-transformation.
	Sorting AA/AB half-transformed integrals.
	Starting AA second half-transformation.
	Starting AB second half-transformation.
	Starting BB first half-transformation.
	Sorting BB half-transformed integrals.
	Starting BB second half-transformation.
	Two-electron integral transformation complete.

*** tstop() called on QuickSilver.local at Mon Jan 23 15:03:34 2012
Module time:
	user time   =       0.02 seconds =       0.00 minutes
	system time =       0.02 seconds =       0.00 minutes
	total time  =          0 seconds =       0.00 minutes
Total time:
	user time   =       1.70 seconds =       0.03 minutes
	system time =       1.69 seconds =       0.03 minutes
	total time  =          8 seconds =       0.13 minutes

*** tstart() called on QuickSilver.local
*** at Mon Jan 23 15:03:34 2012


			**************************
			*                        *
			*         CCSORT         *
			*                        *
			**************************


	Input parameters:
	-----------------
	Wave function   =	BCCD_T
	Reference wfn   =	UHF
	Derivative      =	None
	Memory (Mbytes) =	250.0
	AO Basis        =	NONE
	Make (ab|cd)    =	True
	Make unpacked (ab|cd) =	True
	Cache Level     =	2
	Cache Type      =	LRU
	Local CC        =     No


	Chkpt Parameters:
	--------------------
	Number of irreps     = 4
	Number of MOs        = 24
	Number of active MOs = 23

	Label	# MOs	# FZDC	# DOCC	# SOCC	# VIRT	# FZVR
	-----	-----	------	------	------	------	------
	 A1	   11	    1	    1	    1	    8	    0
	 A2	   2	    0	    0	    0	    2	    0
	 B1	   4	    0	    0	    1	    3	    0
	 B2	   7	    0	    1	    0	    6	    0

	Nuclear Rep. energy (chkpt) =      6.06829800556823
	SCF energy          (chkpt) =    -38.91737869225204

	Size of irrep 0 of <AB|CD> integrals:      0.002 (MW) /      0.018 (MB)
	Size of irrep 1 of <AB|CD> integrals:      0.001 (MW) /      0.009 (MB)
	Size of irrep 2 of <AB|CD> integrals:      0.001 (MW) /      0.010 (MB)
	Size of irrep 3 of <AB|CD> integrals:      0.003 (MW) /      0.023 (MB)
	Total:                                     0.008 (MW) /      0.061 (MB)

	Size of irrep 0 of <ab|cd> integrals:      0.003 (MW) /      0.027 (MB)
	Size of irrep 1 of <ab|cd> integrals:      0.002 (MW) /      0.014 (MB)
	Size of irrep 2 of <ab|cd> integrals:      0.002 (MW) /      0.018 (MB)
	Size of irrep 3 of <ab|cd> integrals:      0.004 (MW) /      0.031 (MB)
	Total:                                     0.011 (MW) /      0.090 (MB)

	Size of irrep 0 of <Ab|Cd> integrals:      0.015 (MW) /      0.123 (MB)
	Size of irrep 1 of <Ab|Cd> integrals:      0.006 (MW) /      0.046 (MB)
	Size of irrep 2 of <Ab|Cd> integrals:      0.007 (MW) /      0.055 (MB)
	Size of irrep 3 of <Ab|Cd> integrals:      0.013 (MW) /      0.108 (MB)
	Total:                                     0.041 (MW) /      0.332 (MB)

	Size of irrep 0 of <IA|BC> integrals:      0.003 (MW) /      0.023 (MB)
	Size of irrep 1 of <IA|BC> integrals:      0.001 (MW) /      0.007 (MB)
	Size of irrep 2 of <IA|BC> integrals:      0.001 (MW) /      0.009 (MB)
	Size of irrep 3 of <IA|BC> integrals:      0.002 (MW) /      0.019 (MB)
	Total:                                     0.007 (MW) /      0.058 (MB)

	Size of irrep 0 of <ia|bc> integrals:      0.002 (MW) /      0.016 (MB)
	Size of irrep 1 of <ia|bc> integrals:      0.001 (MW) /      0.004 (MB)
	Size of irrep 2 of <ia|bc> integrals:      0.001 (MW) /      0.005 (MB)
	Size of irrep 3 of <ia|bc> integrals:      0.002 (MW) /      0.015 (MB)
	Total:                                     0.005 (MW) /      0.040 (MB)

	Size of irrep 0 of <Ia|Bc> integrals:      0.003 (MW) /      0.028 (MB)
	Size of irrep 1 of <Ia|Bc> integrals:      0.001 (MW) /      0.009 (MB)
	Size of irrep 2 of <Ia|Bc> integrals:      0.002 (MW) /      0.013 (MB)
	Size of irrep 3 of <Ia|Bc> integrals:      0.003 (MW) /      0.021 (MB)
	Total:                                     0.009 (MW) /      0.070 (MB)

	Size of irrep 0 of <iA|bC> integrals:      0.002 (MW) /      0.014 (MB)
	Size of irrep 1 of <iA|bC> integrals:      0.000 (MW) /      0.003 (MB)
	Size of irrep 2 of <iA|bC> integrals:      0.000 (MW) /      0.003 (MB)
	Size of irrep 3 of <iA|bC> integrals:      0.002 (MW) /      0.013 (MB)
	Total:                                     0.004 (MW) /      0.033 (MB)

	Size of irrep 0 of tIjAb amplitudes:       0.000 (MW) /      0.003 (MB)
	Size of irrep 1 of tIjAb amplitudes:       0.000 (MW) /      0.001 (MB)
	Size of irrep 2 of tIjAb amplitudes:       0.000 (MW) /      0.001 (MB)
	Size of irrep 3 of tIjAb amplitudes:       0.000 (MW) /      0.003 (MB)
	Total:                                     0.001 (MW) /      0.007 (MB)


	Sorting File: A <IJ|KL> nbuckets = 1
	Sorting File: B <AB|CD> nbuckets = 1
	Sorting File: C <IA|JB> nbuckets = 1
	Sorting File: D <IJ|AB> nbuckets = 1
	Sorting File: E <AI|JK> nbuckets = 1
	Sorting File: F <IA|BC> nbuckets = 1
	Sorting File: F <AI|BC> nbuckets = 1
	Sorting File: A <ij|kl> nbuckets = 1
	Sorting File: B <ab|cd> nbuckets = 1
	Sorting File: C <ia|jb> nbuckets = 1
	Sorting File: D <ij|ab> nbuckets = 1
	Sorting File: E <ai|jk> nbuckets = 1
	Sorting File: F <ia|bc> nbuckets = 1
	Sorting File: F <ai|bc> nbuckets = 1
	Sorting File: A <Ij|Kl> nbuckets = 1
	Sorting File: B <Ab|Cd> nbuckets = 1
	Sorting File: C <Ia|Jb> nbuckets = 1
	Sorting File: C <Ai|Bj> nbuckets = 1
	Sorting File: D <Ij|Ab> nbuckets = 1
	Sorting File: E <Ai|Jk> nbuckets = 1
	Sorting File: E <Ij|Ka> nbuckets = 1
	Sorting File: F <Ia|Bc> nbuckets = 1
	Sorting File: F <aI|bC> nbuckets = 1
	Sorting File: F <Ab|Ci> nbuckets = 1
	Sorting File: F <Ai|Bc> nbuckets = 1
	One-electron energy          =    -17.66250767254185
	Two-electron (AA) energy     =      2.56412277130717
	Two-electron (BB) energy     =      0.37500159762868
	Two-electron (AB) energy     =      4.02145462691823
	Two-electron energy          =      6.96057899585407
	Frozen-core energy (transqt) =    -34.28292990219847
	Reference energy             =    -38.91656057331802

*** tstop() called on QuickSilver.local at Mon Jan 23 15:03:34 2012
Module time:
	user time   =       0.05 seconds =       0.00 minutes
	system time =       0.07 seconds =       0.00 minutes
	total time  =          0 seconds =       0.00 minutes
Total time:
	user time   =       1.75 seconds =       0.03 minutes
	system time =       1.76 seconds =       0.03 minutes
	total time  =          8 seconds =       0.13 minutes

*** tstart() called on QuickSilver.local
*** at Mon Jan 23 15:03:34 2012

			**************************
			*                        *
			*        CCENERGY        *
			*                        *
			**************************

	Nuclear Rep. energy (chkpt)   =    6.068298005568227
	SCF energy          (chkpt)   =  -38.917378692252043
	Reference energy    (file100) =  -38.916560573318023

	Input parameters:
	-----------------
	Wave function   =   BCCD_T
	Reference wfn   =     UHF
	Brueckner conv. =     1.0e-05
	Memory (Mbytes) =     250.0
	Maxiter         =     50
	Convergence     =     1.0e-07
	Restart         =     Yes
	DIIS            =     Yes
	AO Basis        =     NONE
	ABCD            =     NEW
	Cache Level     =     2
	Cache Type      =     LRU
	Print Level     =     1
	Num. of threads =     1
	# Amps to Print =     10
	Print MP2 Amps? =     No
	Analyze T2 Amps =     No
	Print Pair Ener =     No
	Local CC        =     No
	SCS-MP2         =     False
	SCSN-MP2        =     False
	SCS-CCSD        =     False

	Using old T1 amplitudes.
	Using old T2 amplitudes.
	            Solving CC Amplitude Equations
	            ------------------------------
  Iter             Energy              RMS        T1Diag      D1Diag    New D1Diag
  ----     ---------------------    ---------   ----------  ----------  ----------
     0        -0.114273475097628    3.022e-08    0.000014    0.000000    0.000000
     1        -0.114273241721893    3.239e-05    0.000004    0.000000    0.000000
     2        -0.114273351448405    5.040e-06    0.000003    0.000000    0.000000
     3        -0.114273343106295    2.038e-06    0.000002    0.000000    0.000000
     4        -0.114273325833694    5.318e-07    0.000002    0.000000    0.000000
     5        -0.114273323419985    1.181e-07    0.000002    0.000000    0.000000
     6        -0.114273322863007    3.090e-08    0.000002    0.000000    0.000000

	Iterations converged.


	Largest TIA Amplitudes:
	          2  10         0.0000016860
	          1   1         0.0000014776
	          3  13         0.0000010220
	          3  15         0.0000009513
	          1   4         0.0000007597
	          0   3        -0.0000007229
	          2  11         0.0000006893
	          0   0         0.0000006084
	          0   1        -0.0000003521
	          1   2         0.0000003480

	Largest Tia Amplitudes:
	          1  17         0.0000024535
	          1  15         0.0000023056
	          0   0         0.0000018374
	          0   4        -0.0000015253
	          0   1         0.0000013404
	          0   2         0.0000007715
	          0   3         0.0000005192
	          1  20         0.0000004815
	          0   8        -0.0000004621
	          1  16        -0.0000003844

	Largest TIJAB Amplitudes:
	  2   1  10   1        -0.0304564598
	  3   2   8   2         0.0234171023
	  2   1  11   4        -0.0218943752
	  3   2  15  10        -0.0209197111
	  3   2  13  10        -0.0206101441
	  3   1  13   1        -0.0197548127
	  3   1  15   1        -0.0196520398
	  2   1  10   2        -0.0180793016
	  3   1  14   2        -0.0155345226
	  3   1  14   4         0.0154407579

	Largest Tijab Amplitudes:
	  1   0  11   9        -0.0103673542
	  1   0  16   1        -0.0078209514
	  1   0  16   0         0.0077008562
	  1   0  16   3        -0.0073295477
	  1   0  15   0        -0.0069239601
	  1   0  17   0        -0.0068210408
	  1   0  15   1        -0.0065002149
	  1   0  17   4         0.0062489962
	  1   0  15   4         0.0060738281
	  1   0  12   9        -0.0046155543

	Largest TIjAb Amplitudes:
	  3   1  15  17        -0.0338635250
	  3   1  13  15        -0.0325320523
	  2   0   2  11        -0.0315054537
	  3   1  13  17        -0.0296733638
	  3   1   2   2        -0.0288692984
	  3   1  14  16        -0.0279360414
	  3   1  15  15        -0.0258270089
	  2   1  10  17        -0.0257350153
	  1   0   4   0        -0.0256803552
	  2   1  10  15        -0.0255930346

	SCF energy       (chkpt)              =  -38.917378692252043
	Reference energy (file100)            =  -38.916560573318023

	Opposite-spin MP2 correlation energy  =    0.000000000000000
	Same-spin MP2 correlation energy      =    0.000000000000000
	MP2 correlation energy                =   -0.095247609158651
      * MP2 total energy                      =  -39.011808182476678

	Opposite-spin CCSD correlation energy =    0.000000000000000
	Same-spin CCSD correlation energy     =    0.000000000000000
	CCSD correlation energy               =   -0.114273322863007
      * CCSD total energy                     =  -39.030833896181029

	Brueckner orbitals converged.  Maximum T1 =  0.000002453521

*** tstop() called on QuickSilver.local at Mon Jan 23 15:03:35 2012
Module time:
	user time   =       0.19 seconds =       0.00 minutes
	system time =       0.19 seconds =       0.00 minutes
	total time  =          1 seconds =       0.02 minutes
Total time:
	user time   =       1.95 seconds =       0.03 minutes
	system time =       1.95 seconds =       0.03 minutes
	total time  =          9 seconds =       0.15 minutes
Brueckner convergence check: 1

*** tstart() called on QuickSilver.local
*** at Mon Jan 23 15:03:35 2012

			**************************
			*                        *
			*        CCTRIPLES       *
			*                        *
			**************************


	Wave function   =    BCCD_T
	Reference wfn   =      UHF

	Nuclear Rep. energy (chkpt)   =    6.068298005568227
	SCF energy          (chkpt)   =  -38.917378692252043
	Reference energy    (file100) =  -38.916560573318023
	CCSD energy         (file100) =   -0.114273322863007
	Total CCSD energy   (file100) =  -39.030833896181029

	Number of ijk index combinations:
	Spin Case AAA: 4
	Spin Case BBB: 0
	Spin Case AAB: 12
	Spin Case ABB: 4

	AAA (T) energy                =   -0.000061272024504
	BBB (T) energy                =    0.000000000000000
	AAB (T) energy                =   -0.001407455160470
	ABB (T) energy                =   -0.000389205559689
	(T) energy                    =   -0.001857932744664
      * CCSD(T) total energy          =  -39.032691828925692


*** tstop() called on QuickSilver.local at Mon Jan 23 15:03:35 2012
Module time:
	user time   =       0.03 seconds =       0.00 minutes
	system time =       0.05 seconds =       0.00 minutes
	total time  =          0 seconds =       0.00 minutes
Total time:
	user time   =       1.98 seconds =       0.03 minutes
	system time =       2.00 seconds =       0.03 minutes
	total time  =          9 seconds =       0.15 minutes

*** PSI4 exiting successfully. Buy a developer a beer!
