    -----------------------------------------------------------------------
          PSI4: An Open-Source Ab Initio Electronic Structure Package
                              PSI 4.0.0-beta4+ Driver

               Git: Rev {c4} 2584febb4244f3b3e578ee379b6fce16da611610

    J. M. Turney, A. C. Simmonett, R. M. Parrish, E. G. Hohenstein,
    F. A. Evangelista, J. T. Fermann, B. J. Mintz, L. A. Burns, J. J. Wilke,
    M. L. Abrams, N. J. Russ, M. L. Leininger, C. L. Janssen, E. T. Seidl,
    W. D. Allen, H. F. Schaefer, R. A. King, E. F. Valeev, C. D. Sherrill,
    and T. D. Crawford, WIREs Comput. Mol. Sci., (2011) (doi: 10.1002/wcms.93)

                         Additional Contributions by
    A. E. DePrince, M. Saitow, U. Bozkaya, A. Yu. Sokolov
    -----------------------------------------------------------------------

    Process ID:   8674
    PSI4DATADIR: /theoryfs2/ds/loriab/chem/psi4_trials/c4/psi4/lib

    Using LocalCommunicator (Number of processes = 1)

    Memory level set to 256.000 MB

  ==> Input File <==

--------------------------------------------------------------------------
store = {}
test_psivars = ['nuclear repulsion energy', 'scf total energy', 'mp2 singles energy', 'mp2 correlation energy', 'mp2 total energy', 'mp3 correlation energy', 'mp3 total energy', 'current energy', 'current correlation energy', 'current reference energy']

print '    <<<  UHF  >>>'

cfour {
ROHF-MP3 energy calculation 
N
H 1 R
H 1 R 2 A

R=1.008
A=105.0

*ACES2(CALC=MP3,BASIS=AUG-PVDZ
MULT=2,REF=UHF
OCCUPATION=3-1-1-0/3-0-1-0
SCF_CONV=12
CC_CONV=12
MEMORY=20000000)
}

energy('cfour')

for vari in test_psivars:
    store[vari] = get_variable(vari)
    set_variable(vari, 0.0)

clean()
clean_variables()
cfour {}

molecule nh2 {
N
H 1 R
H 1 R 2 A

R=1.008
A=105.0
}

set basis aug-cc-pvdz
set reference uhf
set docc [3, 0, 0, 1]
set socc [0, 0, 1, 0]  #OCCUPATION=3-1-1-0/3-0-1-0

energy('mp3')

print test_psivars
print_variables()
for vari in test_psivars:
    if vari == 'nuclear repulsion energy':
        compare_values(store[vari], get_variable(vari), 4, vari.upper())
    else:
        compare_values(store[vari], get_variable(vari), 6, vari.upper())


--------------------------------------------------------------------------

  GENBAS loaded from /theoryfs2/ds/loriab/bin/GENBAS
  CFOUR to be run from /scratch/loriab//psi.8674..cfour.91740

====== Begin ZMAT input for CFOUR ======

ROHF-MP3 energy calculation 
N
H 1 R
H 1 R 2 A

R=1.008
A=105.0

*ACES2(CALC=MP3,BASIS=AUG-PVDZ
MULT=2,REF=UHF
OCCUPATION=3-1-1-0/3-0-1-0
SCF_CONV=12
CC_CONV=12
MEMORY=20000000)

======= End ZMAT input for CFOUR =======

 --invoking executable xjoda


   *************************************************************************
         <<<     CCCCCC     CCCCCC   |||     CCCCCC     CCCCCC   >>>
       <<<      CCC        CCC       |||    CCC        CCC         >>>
      <<<      CCC        CCC        |||   CCC        CCC            >>>
    <<<        CCC        CCC        |||   CCC        CCC              >>>
      <<<      CCC        CCC        |||   CCC        CCC            >>>
       <<<      CCC        CCC       |||    CCC        CCC         >>>
         <<<     CCCCCC     CCCCCC   |||     CCCCCC     CCCCCC   >>>
   *************************************************************************

     ****************************************************************
     * CFOUR Coupled-Cluster techniques for Computational Chemistry *
     ****************************************************************
 

   Department of Chemistry                Institut fuer Physikalische Chemie
   University of Texas at Austin          Universitaet Mainz
   Austin, TX  48792, USA                 D-55099 Mainz, Germany
 
                       version 1.2
 
                     john2                                             
                     Sun Aug 25 14:56:02 EDT 2013                      
                     integer*8 version is running
 
    -------------------------------------------------------------------
                    Input from ZMAT file
    -------------------------------------------------------------------
 
                                                                                
 ROHF-MP3 energy calculation                                                    
 N                                                                              
 H 1 R                                                                          
 H 1 R 2 A                                                                      
                                                                                
 R=1.008                                                                        
 A=105.0                                                                        
                                                                                
 *ACES2(CALC=MP3,BASIS=AUG-PVDZ                                                 
 MULT=2,REF=UHF                                                                 
 OCCUPATION=3-1-1-0/3-0-1-0                                                     
 SCF_CONV=12                                                                    
 CC_CONV=12                                                                     
 MEMORY=20000000)                                                               
                                                                                
 
    -------------------------------------------------------------------
                    CFOUR Control Parameters 
    -------------------------------------------------------------------
        External           Internal           Value            Units
          Name               Name
    -------------------------------------------------------------------
       PRINT                IPRNT               0               ***   
       CALCLEVEL            ICLLVL           MBPT(3)    [  2]   ***   
       DERIV_LEV            IDRLVL            ZERO      [  0]   ***   
       CC_CONV              ICCCNV          10D- 12             ***   
       SCF_CONV             ISCFCV          10D- 12             ***   
       XFORM_TOL            IXFTOL          10D- 11             ***   
       CC_MAXCYC            ICCCYC              0              cycles 
       LINDEP_TOL           ILINDP              8               ***   
       RDO                  IRDOFM             OFF      [  0]   ***   
  
       SCF_EXTRAPO          IRPP                ON      [  1]   ***   
       REFERENCE            IREFNC             UHF      [  1]   ***   
       CC_EXPORDER          ICCEOR              0               ***   
       TAMP_SUM             IEVERY              0               ***   
       NTOP_TAMP            ITOPT2             15               ***   
       CCORBOPT             ICCORB             OFF      [  0] x 0.01  
       SCF_MAXCYC           ISCFCY            150              cycles 
       OCCUPATION           IOCCU  A   3,  1,  1,  0,
                                   B   3,  0,  1,  0,
       PROPS                IPROPS             OFF      [  0]   ***   
       RELAX_DENS           IRDENS             OFF      [  0]   ***   
  
       SCF_EXPORDE          IRPPOR              6               ***   
       CC_EXTRAPOL          ICCEXT             DIIS     [  1]   ***   
       BRUECKNER            IBRKNR             OFF      [  0]   ***   
       XFIELD               IXEFLD              0             x 10-6  
       YFIELD               IYEFLD              0             x 10-6  
       ZFIELD               IZEFLD              0             x 10-6  
       SAVE_INTS            ISVINT             OFF      [  0]   ***   
       DROPMO               IDRPMO      NONE         
       CHARGE               ICHRGE              0               ***   
       MULTIPLICTY          IMULTP              2               ***   
  
       CPHF_CONVER          ICPHFT          10D- 16             ***   
       CPHF_MAXCYC          ICPHFC             64              cycles 
       INCORE               INCORE             OFF      [  0]   ***   
       MEMORY_SIZE          IMEMSZ          20000000           words  
       FILE_RECSIZ          IFLREC              4096           words  
       NON-HF               INONHF             OFF      [  0]   ***   
       ORBITALS             IORBTP           STANDARD   [  0]   ***   
  
       SCF_EXPSTAR          IRPPLS              8               ***   
       LOCK_ORBOCC          ILOCOC             OFF      [  0]   ***   
       HBAR                 IHBAR              OFF      [  0]   ***   
       CACHE_RECS           ICHREC             10               ***   
       GUESS                IGUESS            MOREAD    [  0]   ***   
       JODA_PRINT           IJPRNT              0               ***   
       GEO_METHOD           INR            SINGLE_POINT [  5]   ***   
       GEO_CONV             ICONTL              5              H/bohr 
       EIGENVECTOR          IVEC                1               ***   
  
       NEGEVAL              IDIE             ABORT      [  0]   ***   
       CURVILINEAR          ICURVY            OFF       [  0]   ***   
       SCALE_ON             ISTCRT              0               ***   
       GEO_MAXSTEP          IMXSTP            300            millibohr
       VIBRATION            IVIB              NO        [  0]   ***   
       EVAL_HESS            IRECAL              0            # of cyc.
       INTEGRALS            INTTYP             VMOL     [  1]   ***   
       FD_STEPSIZE          IDISFD              0            10-4 bohr
       POINTS               IGRDFD              0               ***   
       CONTRACTION          ICNTYP          GENERAL     [  1]   ***   
  
       SYMMETRY             ISYM             ON         [  0]   ***   
       BASIS                IBASIS         AUG-PVDZ     [ 33]   ***   
       SPHERICAL            IDFGHI             ON       [  1]   ***   
       RESET_FLAGS          IRESET             OFF      [  0]   ***   
       PERT_ORB             IPTORB         STANDARD     [  0]   ***   
       GENBAS_1             IGNBS1              0               ***   
       GENBAS_2             IGNBS2              0               ***   
       GENBAS_3             IGNBS3              0               ***   
       COORDINATES          ICOORD         INTERNAL     [  0]   ***   
       SYM_CHECK            ISYMCK         OVERRIDE     [  1]   ***   
  
       SCF_PRINT            ISCFPR              0               ***   
       ECP                  IECP           OFF          [  0]   ***   
       RESTART_CC           ICCRES         OFF          [  0]   ***   
       TRANS_INV            ITRAIN         USE          [  0]   ***   
       HFSTABILITY          ISTABL         OFF          [  0]   ***   
       ROT_EVEC             ROTVEC              0               ***   
       BRUCK_CONV           IBRTOL          10D-  4             ***   
       UNITS                IUNITS         ANGSTROM     [  0]   ***   
       FD_USEGROUP          IFDGRP         FULL         [  0]   ***   
  
       FD_PROJECT           IFDPRJ         ON           [  0]   ***   
       FD_CALTYPE           IFDCAL         GRADONLY     [  0]   ***   
       VTRAN                IVTRAN         FULL/PARTIAL [  0]   ***   
       HF2_FILE             IHF2Fl         USE          [  1]   ***   
       SUBGROUP             ISUBGP         DEFAULT      [  0]   ***   
       SUBGRPAXIS           ISBXYZ         X            [  0]   ***   
       EXCITE               IEXCIT         NONE         [  0]   ***   
       LINEQ_CONV           IZTACN          10D-  7           cycles  
  
       TREAT_PERT           ITREAT         SIMULTANEOUS [  0]   ***   
       ESTATE_PROP          IEXPRP         OFF          [  0]   ***   
       GEO_MAXCYC           IOPTCY             50               ***   
       ABCDTYPE             IABCDT         STANDARD     [  0]   ***   
       AO_LADDERS           IAOLAD         SINGLEPASS   [  1]   ***   
       FOCK                 IFOCK          AO           [  1]   ***   
       ESTATE_MAXC          IEXMXC             20               ***   
       ESTATE_CONV          IEXTOL          10D-  5             ***   
       DIRECT               IDIRCT         OFF          [  0]   ***   
  
       GAMMA_ABCD           IGABCD         STORE        [  0]   ***   
       LINEQ_TYPE           ILTYPE         DIIS         [  1]   ***   
       LINEQ_MAXCY          ILMAXC             50               ***   
       TRANGRAD             IRESRM         OFF          [  0]   ***   
       PSI                  IPSI           OFF          [  0]   ***   
       GAMMA_ABCI           IGABCI         STORE        [  0]   ***   
       ESTATE_DIAG          IEXDIG         ITERATIVE    [  0]   ***   
       FC_FIELD             IFINFC              0             x 10-6  
       SD_FIELD             IFINSD              0             x 10-6  
       DIFF_TYPE            IDIFTY         RELAXED      [  0]   ***   
  
       LINEQ_EXPOR          ILMAXD              5               ***   
       FINITE_PERT          IFIPER              0             x 10-6  
       ANHARMONIC           IANHAR         OFF          [  0]   ***   
       CC_PROGRAM           ICCPRO         VCC          [  0]   ***   
       OPEN-SHELL           IOPEN          SPIN-ORBITAL [  0]   ***   
       UIJ_THRESHO          IUIJTH             25               ***   
       SCF_DAMPING          IDAMP               0             x 10-3  
       PROP_INTEGR          IINTYP         INTERNAL     [  0]   ***   
       ANH_SYMMETR          IANHSM         ABELIAN      [  0]   ***   
       ANH_ALGORIT          IANALG         STANDARD     [  0]   ***   
  
       EOM_NONIT            EOMNON         OFF          [  0]   ***   
       VIB_ALGORIT          IGEALG         STANDARD     [  0]   ***   
       ANH_DERIVAT          IANDER         SECOND       [  1]   ***   
       SPINROTATIO          ISRCON         OFF          [  0]   ***   
       CIS_CONV             ICISTL              5               ***   
       ANH_STEPSIZ          ICUBST             50000          x 10-6  
       SPIN_FLIP            ISPFLP         OFF          [  0]   ***   
       GRID                 IGRID          OFF          [  0]   ***   
  
       DBOC                 IDBOC          OFF          [  0]   ***   
       EOMFOLLOW            IEOMSR         ENERGY       [  0]   ***   
       T3_EXTRAPOL          IT3EXT         OFF          [  0]   ***   
       ESTATE_LOCK          IESLOC         OFF          [  0]   ***   
       UNOS                 IUNOS          OFF          [  0]   ***   
       FREQ_ALGORI          IVIALG         STANDARD     [  0]   ***   
       RELATIVIST           IRELAT         OFF          [  0]   ***   
       FROZEN_CORE          IFROCO         OFF          [  0]   ***   
       EXCITATION           IEXCIT              0               ***   
       INPUT_MRCC           IMRCC          ON           [  1]   ***   
  
       GIAO                 IGIAO          OFF          [  1]   ***   
       EOM_NSING            IEOMSI          10D-  0             ***   
       EOM_NTRIP            IEOMTR          10D-  0             ***   
       EOM_NSTATES          IMRCCD         DAVIDSON     [  0]   ***   
       DIAG_MRCC            IEOMST          10D-  0             ***   
       NEWNORM              INEWNO         OFF          [  0]   ***   
       TESTSUITE            ITESTS         OFF          [  0]   ***   
       BUFFERSIZE           IBUFFS            600               ***   
       SPINORBIT            ISOCAL         OFF          [  0]   ***   
       DCT                  IDCT           OFF          [  0]   ***   
  
       PARALLEL             IPARAL         ON           [  1]   ***   
       PARA_PRINT           IPPRIN              0               ***   
       COMM_SIZE            IPSIZE            ***               ***   
       PARA_INT             IPINTS         ON           [  1]   ***   
       RAMAN_INT            IRAMIN         OFF          [  0]   ***   
       RAMAN_ORB            IRAMRE         UNRELAXED    [  0]   ***   
       BREIT                IBREIT         OFF          [  0]   ***   
       MEM_UNIT             IMEMU          INTEGERWORDS [  0]   ***   
       SPIN_ORBIT           ISPORB         OFF          [  0]   ***   
       GENBAS_4             IGNBS4              0               ***   
  
       SPIN_SCAL            ISCSMP         OFF          [  0]   ***   
       GRID_ALGO            IGALGO         SERIAL       [  0]   ***   
       VIBPHASE             ISETPH         STANDARD     [  0]   ***   
       SEQUENCE             ISEQUE         OFF          [  0]   ***   
       HESS_TYPE            IHESTP         SCF          [  0]   ***   
       CONTINUUM            ICONTU         NONE         [  0]   ***   
       SCF_NOSTOP           ISCFST         OFF          [  0]   ***   
       CONSTANT             ICONST         OLD          [  1]   ***   
  
       EOM_MRCC             IMRCCE         OLD          [  0]   ***   
       EOM_ORDER            IEXORD         ENERGY       [  0]   ***   
       GIMIC                IGIMIC         OFF          [  0]   ***   
    -------------------------------------------------------------------
   3 entries found in Z-matrix 
   Job Title : ROHF-MP3 energy calculation                                                     
   There are  2 unique internal coordinates.
   Of these,  0 will be optimized.
   User supplied Z-matrix: 
--------------------------------------------------------------------------------
       SYMBOL    BOND      LENGTH    ANGLE     ANGLE     DIHED     ANGLE
                  TO      (ANGST)    WRT      (DEG)      WRT      (DEG)
--------------------------------------------------------------------------------
        N    
        H          1         R    
        H          1         R          2        A    
                  *Initial values for internal coordinates* 
                      Name             Value
                        R               1.0080000000
                        A             105.0000000000
--------------------------------------------------------------------------------
  1  N          7    14.00307
  2  H          1     1.00783
  3  H          1     1.00783
   Rotational constants (in cm-1): 
          8.6337537305            13.0775697116            25.4080089639
   Rotational constants (in MHz): 
     258833.4615238860        392055.7317765497        761713.0527317039
********************************************************************************
   The full molecular point group is C2v .
   The largest Abelian subgroup of the full molecular point group is C2v .
   The computational point group is C2v .
********************************************************************************
--------------------------------------------------------------------------------
   Analysis of internal coordinates specified by Z-matrix 
--------------------------------------------------------------------------------
   *The nuclear repulsion energy is    7.68054 a.u.
   *There are   2 degrees of freedom within the tot. symm. molecular subspace.
   *Z-matrix requests optimization of   0 coordinates.
   *The optimization is constrained.
   *The following   2 parameters can have non-zero 
    derivatives within the totally symmetric subspace:
             A    [ 3]  R    [ 2]
   *The following   0 parameters are to be optimized:

   *The following coordinates must be varied in an  unconstrained optimization.
             A    [ 3]  R    [ 2]
--------------------------------------------------------------------------------
 ----------------------------------------------------------------
 Z-matrix   Atomic            Coordinates (in bohr)
  Symbol    Number           X              Y              Z
 ----------------------------------------------------------------
     N         7         0.00000000     0.00000000     0.14591295
     H         1         0.00000000    -1.51121461    -1.01368281
     H         1         0.00000000     1.51121461    -1.01368281
 ----------------------------------------------------------------
   Interatomic distance matrix (Angstroms) 
 
                 N             H             H    
                [ 1]        [ 2]        [ 3]
  N    [ 1]     0.00000
  H    [ 2]     1.00800     0.00000
  H    [ 3]     1.00800     1.59940     0.00000
   Rotational constants (in cm-1): 
          8.6337537305            25.4080089639            13.0775697116
   Rotational constants (in MHz): 
     258833.4615238862        761713.0527317049        392055.7317765501
  There are   41 basis functions.
 @GEOPT-W, Archive file not created for single-point calculation.
                0.00 seconds walltime passed
 --executable xjoda finished with status            0
  flag is                      5
 --invoking executable xvmol
 Serial version of molecule started
 
    -------------------------------------------------------------------
                    Input from MOL file
    -------------------------------------------------------------------
 INTGRL        1    0    1    0    0    0    0    0    0                        
          *** CFOUR Program System (Release V0.1) ***                           
 ROHF-MP3 energy calculation                                                    
     2    2 X  Y       0.10E-08              0    0                             
    9999.00      3.00                                                           
           7.00000000    1    3    1    1    1                                  
 N #1      0.000000000000      0.000000000000      0.145912949151               
    10    4                                                                     
    9046.00000000000       7.000000000000000E-004 -1.530000000000000E-004       
   0.000000000000000E+000  0.000000000000000E+000                               
    1357.00000000000       5.389000000000000E-003 -1.208000000000000E-003       
   0.000000000000000E+000  0.000000000000000E+000                               
    309.300000000000       2.740600000000000E-002 -5.992000000000000E-003       
   0.000000000000000E+000  0.000000000000000E+000                               
    87.7300000000000       0.103207000000000      -2.454400000000000E-002       
   0.000000000000000E+000  0.000000000000000E+000                               
    28.5600000000000       0.278723000000000      -6.745900000000001E-002       
   0.000000000000000E+000  0.000000000000000E+000                               
    10.2100000000000       0.448540000000000      -0.158078000000000            
   0.000000000000000E+000  0.000000000000000E+000                               
    3.83800000000000       0.278238000000000      -0.121831000000000            
   0.000000000000000E+000  0.000000000000000E+000                               
   0.746600000000000       1.544000000000000E-002  0.549003000000000            
   0.000000000000000E+000  0.000000000000000E+000                               
   0.224800000000000      -2.864000000000000E-003  0.578815000000000            
    1.00000000000000       0.000000000000000E+000                               
   6.124000000000000E-002  0.000000000000000E+000  0.000000000000000E+000       
   0.000000000000000E+000   1.00000000000000                                    
     5    3                                                                     
    13.5500000000000       3.991900000000000E-002  0.000000000000000E+000       
   0.000000000000000E+000                                                       
    2.91700000000000       0.217169000000000       0.000000000000000E+000       
   0.000000000000000E+000                                                       
   0.797300000000000       0.510319000000000       0.000000000000000E+000       
   0.000000000000000E+000                                                       
   0.218500000000000       0.462214000000000        1.00000000000000            
   0.000000000000000E+000                                                       
   5.611000000000000E-002  0.000000000000000E+000  0.000000000000000E+000       
    1.00000000000000                                                            
     2    2                                                                     
   0.817000000000000        1.00000000000000       0.000000000000000E+000       
   0.230000000000000       0.000000000000000E+000   1.00000000000000            
           1.00000000    1    2    1    1                                       
 H #2      0.000000000000     -1.511214614188     -1.013682808944               
     5    3                                                                     
    13.0100000000000       1.968500000000000E-002  0.000000000000000E+000       
   0.000000000000000E+000                                                       
    1.96200000000000       0.137977000000000       0.000000000000000E+000       
   0.000000000000000E+000                                                       
   0.444600000000000       0.478148000000000       0.000000000000000E+000       
   0.000000000000000E+000                                                       
   0.122000000000000       0.501240000000000        1.00000000000000            
   0.000000000000000E+000                                                       
   2.974000000000000E-002  0.000000000000000E+000  0.000000000000000E+000       
    1.00000000000000                                                            
     2    2                                                                     
   0.727000000000000        1.00000000000000       0.000000000000000E+000       
   0.141000000000000       0.000000000000000E+000   1.00000000000000            
 FINISH                                                                         
 
    -------------------------------------------------------------------
 
 One- and two-electron integrals over symmetry-adapted AOs are calculated.

  Spherical harmonics are used.
  
  Integrals less than  0.10E-13 are neglected.

  Nuclear repulsion energy :    7.6805416353 a.u.
  required memory for a1 array                3020257  words 
  required memory for a2 array                2070308  words 
 basis number:   7    25
 basis number:   1     9
  @MOLECU-I, One electron integrals required         0.00000 seconds.
  @TWOEL-I,      16224 integrals of symmetry type  I I I I
  @TWOEL-I,      36629 integrals of symmetry type  I J I J
  @TWOEL-I,      21412 integrals of symmetry type  I I J J
  @TWOEL-I,      17042 integrals of symmetry type  I J K L
  @TWOEL-I, Total number of 2-e integrals      91307.
  @MOLECU-I, Two electron integrals required         0.11000 seconds.
  @CHECKOUT-I, Total execution time :       0.1100 seconds.
                0.00 seconds walltime passed
 --executable xvmol finished with status            0
 --invoking executable xvmol2ja
  @CHECKOUT-I, Total execution time :       0.0000 seconds.
                0.00 seconds walltime passed
 --executable xvmol2ja finished with status            0
 --invoking executable xvscf
 NSOSCF                     0
  There are   41 functions in the AO basis.

  There are 4 irreducible representations.

       Irrep        # of functions
         1                 18
         2                  7
         3                 12
         4                  4


  Parameters for SCF calculation: 
        SCF reference function:  UHF  
  Maximum number of iterations:  150
     Full symmetry point group: C2v 
     Computational point group: C2v 
        Initial density matrix: MOREAD                 
     SCF convergence tolerance: 10**(-12)
  DIIS convergence acceleration:  ON
          Latest start for DIIS:   8
                     DIIS order:   6

     Alpha population by irrep:   3    1    1    0
      Beta population by irrep:   3    0    1    0


  Memory information:     106244 words required.
  Fock matrices are constructed from AO integral file.
  Initialization and symmetry analysis required      0.000 seconds.

 total no. of electrons in initial guess :  0.000000000000000E+000
 total no. of electrons in initial guess :  0.000000000000000E+000
  --------------------------------------------------------------------
  Iteration         Total Energy            Largest Density Difference
  --------------------------------------------------------------------
       0             7.680541635254568              0.0000000000D+00
   current occupation vector 
     3  1  1  0
     3  0  1  0
       1           -49.889012059415627              0.5766239665D+01
   current occupation vector 
     3  1  1  0
     3  0  1  0
       2           -50.211037022676031              0.5642503349D+01
   current occupation vector 
     3  1  1  0
     3  0  1  0
       3           -53.700290678121412              0.4520119533D+01
   current occupation vector 
     3  1  1  0
     3  0  1  0
       4           -53.407812834173392              0.3226814600D+01
   current occupation vector 
     3  1  1  0
     3  0  1  0
       5           -54.757338893075222              0.3227959255D+01
   current occupation vector 
     3  1  1  0
     3  0  1  0
       6           -55.326062584914517              0.1218343281D+01
   current occupation vector 
     3  1  1  0
     3  0  1  0
       7           -55.518250321485191              0.5743753310D+00
   current occupation vector 
     3  1  1  0
     3  0  1  0
       8           -55.563648665856519              0.3361320064D+00
   current occupation vector 
     3  1  1  0
     3  0  1  0
       9           -55.575056656781747              0.9220271654D-01
   current occupation vector 
     3  1  1  0
     3  0  1  0
      10           -55.575126107922046              0.7959015629D-02
   current occupation vector 
     3  1  1  0
     3  0  1  0
      11           -55.575135500716264              0.2886293900D-02
   current occupation vector 
     3  1  1  0
     3  0  1  0
      12           -55.575137235283407              0.9163084617D-03
   current occupation vector 
     3  1  1  0
     3  0  1  0
      13           -55.575137890641173              0.6774993840D-03
   current occupation vector 
     3  1  1  0
     3  0  1  0
      14           -55.575138032111319              0.3442156026D-03
   current occupation vector 
     3  1  1  0
     3  0  1  0
      15           -55.575138051096005              0.1083340449D-03
   current occupation vector 
     3  1  1  0
     3  0  1  0
      16           -55.575138056989132              0.8079758934D-04
   current occupation vector 
     3  1  1  0
     3  0  1  0
      17           -55.575138057383953              0.2409692226D-04
   current occupation vector 
     3  1  1  0
     3  0  1  0
      18           -55.575138057392351              0.4172996057D-05
   current occupation vector 
     3  1  1  0
     3  0  1  0
      19           -55.575138057392309              0.1485938950D-06
   current occupation vector 
     3  1  1  0
     3  0  1  0
      20           -55.575138057392564              0.1008971428D-06
   current occupation vector 
     3  1  1  0
     3  0  1  0
      21           -55.575138057392486              0.3753521538D-07
   current occupation vector 
     3  1  1  0
     3  0  1  0
      22           -55.575138057392451              0.1749566469D-07
   current occupation vector 
     3  1  1  0
     3  0  1  0
      23           -55.575138057392422              0.2999686444D-08
   current occupation vector 
     3  1  1  0
     3  0  1  0
      24           -55.575138057392401              0.1075880607D-08
   current occupation vector 
     3  1  1  0
     3  0  1  0
      25           -55.575138057392429              0.1403137606D-09
   current occupation vector 
     3  1  1  0
     3  0  1  0
      26           -55.575138057392387              0.1123892091D-09
   current occupation vector 
     3  1  1  0
     3  0  1  0
      27           -55.575138057392472              0.5301870054D-10
   current occupation vector 
     3  1  1  0
     3  0  1  0
      28           -55.575138057392373              0.1578903674D-10
   current occupation vector 
     3  1  1  0
     3  0  1  0
      29           -55.575138057392536              0.7186473638D-11
   current occupation vector 
     3  1  1  0
     3  0  1  0

  SCF has converged.

 save density matrix on hard disk
 total alpha spin electron number:   5.00000000000000     
 total  beta spin electron number:   4.00000000000000     
     E(SCF)=       -55.575138057392522              0.9304779169D-12

  Eigenvector printing suppressed.


       The average multiplicity is    2.0087723
  The expectation value of S**2 is    0.7587915

 @PUTMOS-I, Writing converged MOs to NEWMOS. 
 @PUTMOS-I, Symmetry   1 Full   4 Partial   2
 @PUTMOS-I, Symmetry   2 Full   1 Partial   3
 @PUTMOS-I, Symmetry   3 Full   3 Partial   0
 @PUTMOS-I, Symmetry   4 Full   1 Partial   0


 
  ORBITAL EIGENVALUES (ALPHA)  (1H = 27.2113838 eV)

       MO #        E(hartree)               E(eV)           FULLSYM    COMPSYM
       ----   --------------------   --------------------   -------   ---------
    1     1         -15.6022541490        -424.5589260996      A1        A1 (1)
    2     2          -1.1730620891         -31.9206427500      A1        A1 (1)
    3    26          -0.6577830832         -17.8991879467      B2        B2 (3)
    4    19          -0.5140518533         -13.9880622839      B1        B1 (2)
    5     3          -0.5061146172         -13.7720791043      A1        A1 (1)
  +++++++++++++++++++++++++++++++++++++++++++++++++++++++++++++++++++++++++++++
    6     4           0.0350972134           0.9550437443      A1        A1 (1)
    7    27           0.0577891578           1.5725229526      B2        B2 (3)
    8    20           0.1527593237           4.1567925897      B1        B1 (2)
    9     5           0.1534903178           4.1766839507      A1        A1 (1)
   10     6           0.1990369088           5.4160697199      A1        A1 (1)
   11    28           0.2051853759           5.5833780182      B2        B2 (3)
   12    29           0.2898893601           7.8882906418      B2        B2 (3)
   13     7           0.3077931290           8.3754769708      A1        A1 (1)
   14    38           0.3650806245           9.9343489995      A2        A2 (4)
   15     8           0.3787356965          10.3059224041      A1        A1 (1)
   16    21           0.4062502378          11.0546311465      B1        B1 (2)
   17    30           0.5280394822          14.3686850216      B2        B2 (3)
   18     9           0.5961644905          16.2224607712      A1        A1 (1)
   19    31           0.6120404178          16.6544667214      B2        B2 (3)
   20    32           0.7076410051          19.2558909954      B2        B2 (3)
   21    10           0.7222842940          19.6543551519      A1        A1 (1)
   22    22           0.7854047848          21.3719510540      B1        B1 (2)
   23    39           0.8621766178          23.4610188673      A2        A2 (4)
   24    11           0.8662718397          23.5724555219      A1        A1 (1)
   25    12           1.1311355630          30.7797639571      A1        A1 (1)
   26    23           1.2053807904          32.8000793376      B1        B1 (2)
   27    33           1.2101721744          32.9304595267      B2        B2 (3)
   28    13           1.2855978650          34.9828969430      A1        A1 (1)
   29    34           1.8204328214          49.5364962200      B2        B2 (3)
   30    40           1.8378900281          50.0115309739      A2        A2 (4)
   31    24           1.9454535650          52.9384836594      B1        B1 (2)
   32    14           2.0845762583          56.7242046670      A1        A1 (1)
   33    35           2.1365289962          58.1379105576      B2        B2 (3)
   34    15           2.2533472216          61.3166961256      A1        A1 (1)
   35    36           2.3964915514          65.2118514266      B2        B2 (3)
   36    16           2.4388283747          66.3638949747      A1        A1 (1)
   37    25           2.6357300013          71.7218607094      B1        B1 (2)
   38    41           2.7172527608          73.9402078097      A2        A2 (4)
   39    17           2.8267304907          76.9192483377      A1        A1 (1)
   40    18           3.1993026803          87.0574531888      A1        A1 (1)
   41    37           3.5081384759          95.4613025605      B2        B2 (3)


 
  ORBITAL EIGENVALUES ( BETA)  (1H = 27.2113838 eV)

       MO #        E(hartree)               E(eV)           FULLSYM    COMPSYM
       ----   --------------------   --------------------   -------   ---------
    1     1         -15.5704637065        -423.6938641659      A1        A1 (1)
    2     2          -1.0522799988         -28.6339949332      A1        A1 (1)
    3    26          -0.6332170566         -17.2307123670      B2        B2 (3)
    4     3          -0.4605640509         -12.5325851632      A1        A1 (1)
  +++++++++++++++++++++++++++++++++++++++++++++++++++++++++++++++++++++++++++++
    5     4           0.0366975287           0.9985905374      A1        A1 (1)
    6    27           0.0582874141           1.5860811981      B2        B2 (3)
    7    19           0.0712062654           1.9376210174      B1        B1 (2)
    8     5           0.1564406407           4.2569663190      A1        A1 (1)
    9    28           0.2058536068           5.6015615062      B2        B2 (3)
   10     6           0.2065100493           5.6194242155      A1        A1 (1)
   11    20           0.2263426884           6.1590977689      B1        B1 (2)
   12    29           0.2941049658           8.0030031074      B2        B2 (3)
   13     7           0.3123984690           8.5007946441      A1        A1 (1)
   14    38           0.3736516390          10.1675781650      A2        A2 (4)
   15     8           0.3856174645          10.4931848336      A1        A1 (1)
   16    21           0.4457354941          12.1290796133      B1        B1 (2)
   17    30           0.5280822388          14.3698484876      B2        B2 (3)
   18     9           0.6122108573          16.6591046172      A1        A1 (1)
   19    31           0.6173225130          16.7981998421      B2        B2 (3)
   20    32           0.7104008824          19.3309910769      B2        B2 (3)
   21    10           0.7671033770          20.8739444199      A1        A1 (1)
   22    22           0.8276818501          22.5223685046      B1        B1 (2)
   23    11           0.8688473695          23.6425392515      A1        A1 (1)
   24    39           0.8953427831          24.3635161214      A2        A2 (4)
   25    12           1.1393404639          31.0030306655      A1        A1 (1)
   26    33           1.2197389273          33.1907841092      B2        B2 (3)
   27    13           1.3056459938          35.5284342690      A1        A1 (1)
   28    23           1.3394468059          36.4482011402      B1        B1 (2)
   29    34           1.8242145960          49.6394035415      B2        B2 (3)
   30    40           1.8548830078          50.4739334663      A2        A2 (4)
   31    24           1.9650376152          53.4713927683      B1        B1 (2)
   32    14           2.0916238232          56.9159786582      A1        A1 (1)
   33    35           2.1393127174          58.2136594628      B2        B2 (3)
   34    15           2.2881026526          62.2624394982      A1        A1 (1)
   35    36           2.4088265079          65.5475026609      B2        B2 (3)
   36    16           2.5032816392          68.1177574927      A1        A1 (1)
   37    25           2.7102941054          73.7508531650      B1        B1 (2)
   38    41           2.7894185723          75.9039394041      A2        A2 (4)
   39    17           2.8452279987          77.4225911265      A1        A1 (1)
   40    18           3.2264504921          87.7961827155      A1        A1 (1)
   41    37           3.5203477844          95.7935347399      B2        B2 (3)


  VSCF finished.

  @CHECKOUT-I, Total execution time :       0.0700 seconds.
                0.25 seconds walltime passed
 --executable xvscf finished with status            0
 --invoking executable xvtran
  Full UHF integral transformation
  Transformation of IIII integrals :
  2 passes through the AO integral file were required.
       16224 AO integrals were read.
       18248 MO integrals (Spin case AAAA) were written to HF2AA.
       18248 MO integrals (Spin case BBBB) were written to HF2BB.
       36209 MO integrals (Spin case AABB) were written to HF2AB.
  Transformation of IIJJ integrals :
  2 passes through the AO integral file were required.
       21412 AO integrals were read.
       23080 MO integrals (Spin case AAAA) were written to HF2AA.
       23080 MO integrals (Spin case BBBB) were written to HF2BB.
       46160 MO integrals (Spin case AABB) were written to HF2AB.
  Transformation of IJIJ integrals :
  2 passes through the AO integral file were required.
       36629 AO integrals were read.
       39217 MO integrals (Spin case AAAA) were written to HF2AA.
       39217 MO integrals (Spin case BBBB) were written to HF2BB.
       77860 MO integrals (Spin case AABB) were written to HF2AB.
  Transformation of IJKL integrals :
  2 passes through the AO integral file were required.
       17042 AO integrals were read.
       18144 MO integrals (Spin case AAAA) were written to HF2AA.
       18144 MO integrals (Spin case BBBB) were written to HF2BB.
       36288 MO integrals (Spin case AABB) were written to HF2AB.
  Summary of active molecular orbitals: 
------------------------------------------------------------------------
                         * Spin case alpha *
 
  Index      Eigenvalue    Symmetry    Index      Eigenvalue    Symmetry
------------------------------------------------------------------------
     1       -15.6022541        1        22         0.4062502        2
     2        -1.1730621        1        23         0.7854048        2
     3        -0.5061146        1        24         1.2053808        2
     4        -0.5140519        2        25         1.9454536        2
     5        -0.6577831        3        26         2.6357300        2
     6         0.0350972        1        27         0.0577892        3
     7         0.1534903        1        28         0.2051854        3
     8         0.1990369        1        29         0.2898894        3
     9         0.3077931        1        30         0.5280395        3
    10         0.3787357        1        31         0.6120404        3
    11         0.5961645        1        32         0.7076410        3
    12         0.7222843        1        33         1.2101722        3
    13         0.8662718        1        34         1.8204328        3
    14         1.1311356        1        35         2.1365290        3
    15         1.2855979        1        36         2.3964916        3
    16         2.0845763        1        37         3.5081385        3
    17         2.2533472        1        38         0.3650806        4
    18         2.4388284        1        39         0.8621766        4
    19         2.8267305        1        40         1.8378900        4
    20         3.1993027        1        41         2.7172528        4
    21         0.1527593        2
------------------------------------------------------------------------
------------------------------------------------------------------------
                         * Spin case beta *
 
  Index      Eigenvalue    Symmetry    Index      Eigenvalue    Symmetry
------------------------------------------------------------------------
     1       -15.5704637        1        22         0.4457355        2
     2        -1.0522800        1        23         0.8276819        2
     3        -0.4605641        1        24         1.3394468        2
     4        -0.6332171        3        25         1.9650376        2
     5         0.0366975        1        26         2.7102941        2
     6         0.1564406        1        27         0.0582874        3
     7         0.2065100        1        28         0.2058536        3
     8         0.3123985        1        29         0.2941050        3
     9         0.3856175        1        30         0.5280822        3
    10         0.6122109        1        31         0.6173225        3
    11         0.7671034        1        32         0.7104009        3
    12         0.8688474        1        33         1.2197389        3
    13         1.1393405        1        34         1.8242146        3
    14         1.3056460        1        35         2.1393127        3
    15         2.0916238        1        36         2.4088265        3
    16         2.2881027        1        37         3.5203478        3
    17         2.5032816        1        38         0.3736516        4
    18         2.8452280        1        39         0.8953428        4
    19         3.2264505        1        40         1.8548830        4
    20         0.0712063        2        41         2.7894186        4
    21         0.2263427        2
------------------------------------------------------------------------
  @CHECKOUT-I, Total execution time :       0.1200 seconds.
                0.25 seconds walltime passed
 --executable xvtran finished with status            0
 --invoking executable xintprc
  Processing integrals for MBPT(3) calculation.
  @GMOIAA-I, Processing MO integrals for spin case AA.
  @GMOIAA-I, Generation of integral list completed.
                      TYPE                NUMBER
                      ----               --------
                      PPPP                 58654
                      PPPH                 31894
                      PPHH                  4469
                      PHPH                  2831
                      PHHH                   792
                      HHHH                    49

                     TOTAL                 98689
  @GMOIAA-I, Processing MO integrals for spin case BB.
  @GMOIAA-I, Generation of integral list completed.
                      TYPE                NUMBER
                      ----               --------
                      PPPP                 64549
                      PPPH                 28136
                      PPHH                  3287
                      PHPH                  2147
                      PHHH                   536
                      HHHH                    34

                     TOTAL                 98689
  @GMOIAB-I, Processing MO integrals for spin case AB.
                      TYPE                NUMBER
                      ----               --------
                      PPPP                122313
                      PPPH1H               33410
                      PPPH2H               26968
                      PPHH                  7444
                      PHPH1P                2086
                      PHPH2P                2955
                      PHHH1P                 590
                      PHHH2P                 686
                      HHHH                    65

                     TOTAL                196517

  @FORMT2-I, Second-order MP correlation energies:
              ----------------------------------------------
              E(SCF)                =  -55.575138057393 a.u.
              E2(AA)                =   -0.024465419217 a.u.
              E2(BB)                =   -0.010736207716 a.u.
              E2(AB)                =   -0.119658316120 a.u.
              E2(TOT)               =   -0.154859943053 a.u.
              Total MP2 energy      =  -55.729998000446 a.u.
              ----------------------------------------------
            ----------------------------------------------
                     Projected spin multiplicities: 
            ----------------------------------------------
             <0|S^2|0>                  =    0.7587914991.
             <0|S^2 T2|0>               =   -0.0033950073.
             Projected <0|S^2 exp(T)|0> =    0.7553964917.
             Approximate spin mult.     =    2.0053892308.
            ----------------------------------------------
   Largest T2 amplitudes for spin case AA:
   i   j   a   b             i   j   a   b             i   j   a   b
-----------------------------------------------------------------------------
[  4   3  24  15]-0.01523 [  5   3  29  10] 0.01258 [  5   4  29  24]-0.01255
[  5   4  33  24]-0.01223 [  4   3  24  10] 0.01210 [  4   3  22  10] 0.01180
[  5   4  39  12] 0.01159 [  5   3  32  13]-0.01123 [  4   3  23  12]-0.01106
[  5   3  29  15]-0.01101 [  4   3  24  14] 0.01060 [  5   4  29  22]-0.01043
[  5   3  32  10] 0.01036 [  5   3  33  15]-0.00997 [  5   4  32  24]-0.00954
-----------------------------------------------------------------------------
   Norm of T2AA vector (     1638 symmetry allowed elements):  0.0870848101.
-----------------------------------------------------------------------------
   Largest T2 amplitudes for spin case BB:
   i   j   a   b             i   j   a   b             i   j   a   b
-----------------------------------------------------------------------------
[  4   3  29   9]-0.01312 [  4   3  29  14] 0.01126 [  4   3  32  12] 0.01107
[  4   3  32   9]-0.01068 [  4   3  33  14] 0.01003 [  4   3  29   6]-0.00974
[  4   3  32  14] 0.00927 [  4   3  33   9]-0.00728 [  4   3  32   8]-0.00649
[  4   3  33   6]-0.00646 [  3   2  14  10] 0.00632 [  3   2  23  20] 0.00609
[  4   3  34  12]-0.00606 [  4   2  29  10]-0.00584 [  4   3  29  12] 0.00576
-----------------------------------------------------------------------------
   Norm of T2BB vector (     1140 symmetry allowed elements):  0.0582418701.
-----------------------------------------------------------------------------
   Largest T2 amplitudes for spin case AB:
       _       _                 _       _                 _       _
   i   j   a   b             i   j   a   b             i   j   a   b
-----------------------------------------------------------------------------
[  3   3  15  14] 0.02369 [  5   4  29  29]-0.02154 [  5   4  32  32]-0.02043
[  4   3  24  14] 0.01960 [  3   3  32  32] 0.01952 [  3   3  10   9] 0.01887
[  5   4  29  32]-0.01683 [  5   4  32  29]-0.01614 [  5   4  33  33]-0.01533
[  3   4  10  29] 0.01529 [  5   3  29   9]-0.01522 [  3   3  13  12] 0.01480
[  4   2  12  20] 0.01469 [  3   3  32  29] 0.01399 [  4   4  24  29]-0.01391
-----------------------------------------------------------------------------
   Norm of T2AB vector (     7444 symmetry allowed elements):  0.1900105669.
-----------------------------------------------------------------------------
  @CHECKOUT-I, Total execution time :       0.0400 seconds.
                0.00 seconds walltime passed
 --executable xintprc finished with status            0
 --invoking executable xvcc
   MBPT(3) energy will be calculated.
  -----------------------------------------------------------
       Correction         Increment           Cumulative
  -----------------------------------------------------------
        D-MBPT(2)       -0.154859943053   -55.729998000446
        D-MBPT(3)       -0.016056964161   -55.746054964607
  -----------------------------------------------------------
  Total MBPT(3)       energy:   -55.746054964607 a.u.
  @CHECKOUT-I, Total execution time :       0.0200 seconds.
 --executable xvcc finished with status            0


  Variable Map:
  ----------------------------------------------------------------------------
  "CURRENT CORRELATION ENERGY" =>      -0.170916907214
  "CURRENT ENERGY"             =>     -55.746054964607
  "CURRENT REFERENCE ENERGY"   =>     -55.575138057393
  "MP2 CORRELATION ENERGY"     =>      -0.154859943053
  "MP2 OPPOSITE-SPIN ENERGY"   =>      -0.119658316120
  "MP2 SAME-SPIN ENERGY"       =>      -0.035201626933
  "MP2 TOTAL ENERGY"           =>     -55.729998000446
  "MP2.5 CORRELATION ENERGY"   =>      -0.162888425133
  "MP2.5 TOTAL ENERGY"         =>     -55.738026482526
  "MP3 CORRELATION ENERGY"     =>      -0.170916907214
  "MP3 TOTAL ENERGY"           =>     -55.746054964607
  "NUCLEAR REPULSION ENERGY"   =>       7.680541635300
  "SCF TOTAL ENERGY"           =>     -55.575138057393



*** tstart() called on john2
*** at Sun Aug 25 14:56:04 2013

	There are an odd number of electrons - assuming doublet.
	Specify the multiplicity with the MULTP option in the
	input if this is incorrect


         ---------------------------------------------------------
                                   SCF
            by Justin Turney, Rob Parrish, and Andy Simmonett
                              UHF Reference
                        2 Threads,    256 MiB Core
         ---------------------------------------------------------

  ==> Geometry <==

    Molecular point group: c2v
    Full point group: C2v

    Geometry (in Angstrom), charge = 0, multiplicity = 2:

       Center              X                  Y                   Z       
    ------------   -----------------  -----------------  -----------------
           N          0.000000000000     0.000000000000    -0.077213791074
           H          0.000000000000    -0.799700167014     0.536417729366
           H          0.000000000000     0.799700167014     0.536417729366

  Running in c2v symmetry.

  Nuclear repulsion =    7.680543211344570

  Charge       = 0
  Multiplicity = 2
  Electrons    = 9
  Nalpha       = 5
  Nbeta        = 4

  ==> Algorithm <==

  SCF Algorithm Type is PK.
  DIIS enabled.
  MOM disabled.
  Fractional occupation disabled.
  Guess Type is CORE.
  Energy threshold   = 1.00e-08
  Density threshold  = 1.00e-08
  Integral threshold = 0.00e+00

  ==> Primary Basis <==

  Basis Set: AUG-CC-PVDZ
    Number of shells: 19
    Number of basis function: 41
    Number of Cartesian functions: 43
    Spherical Harmonics?: true
    Max angular momentum: 2

  ==> Pre-Iterations <==

   -------------------------------------------------------
    Irrep   Nso     Nmo     Nalpha   Nbeta   Ndocc  Nsocc
   -------------------------------------------------------
     A1        18      18       3       3       3       0
     A2         4       4       0       0       0       0
     B1         7       7       1       0       0       1
     B2        12      12       1       1       1       0
   -------------------------------------------------------
    Total      41      41       5       4       4       1
   -------------------------------------------------------

  Starting with a DF guess...

 OEINTS: Wrapper to libmints.
   by Justin Turney

   Calculation information:
      Number of atoms:                   3
      Number of AO shells:              19
      Number of SO shells:              14
      Number of primitives:             39
      Number of atomic orbitals:        43
      Number of basis functions:        41

      Number of irreps:                  4
      Number of functions per irrep: [  18    4    7   12 ]

      Overlap, kinetic, potential, dipole, and quadrupole integrals
        stored in file 35.

  ==> Integral Setup <==

  ==> DFJK: Density-Fitted J/K Matrices <==

    J tasked:                  Yes
    K tasked:                  Yes
    wK tasked:                  No
    OpenMP threads:              2
    Integrals threads:           2
    Memory (MB):               183
    Algorithm:                Core
    Integral Cache:           NONE
    Schwarz Cutoff:          1E-12
    Fitting Condition:       1E-12

   => Auxiliary Basis Set <=

  Basis Set: CC-PVDZ-JKFIT
    Number of shells: 42
    Number of basis function: 116
    Number of Cartesian functions: 131
    Spherical Harmonics?: true
    Max angular momentum: 3

  Minimum eigenvalue in the overlap matrix is 2.3228562868E-03.
  Using Symmetric Orthogonalization.
  SCF Guess: Core (One-Electron) Hamiltonian.

  ==> Iterations <==

                           Total Energy        Delta E     RMS |[F,P]|

   @DF-UHF iter   1:   -49.88897795601189   -4.98890e+01   1.19873e-01 
   @DF-UHF iter   2:   -50.27334534083494   -3.84367e-01   8.13118e-02 DIIS
   @DF-UHF iter   3:   -55.12933290022050   -4.85599e+00   4.16345e-02 DIIS
   @DF-UHF iter   4:   -55.51914877958411   -3.89816e-01   1.37204e-02 DIIS
   @DF-UHF iter   5:   -55.57468961823731   -5.55408e-02   8.97260e-04 DIIS
   @DF-UHF iter   6:   -55.57505345653640   -3.63838e-04   4.37073e-04 DIIS
   @DF-UHF iter   7:   -55.57512207020095   -6.86137e-05   8.68860e-05 DIIS
   @DF-UHF iter   8:   -55.57512887834813   -6.80815e-06   3.15874e-05 DIIS
   @DF-UHF iter   9:   -55.57512991760581   -1.03926e-06   1.34969e-05 DIIS
   @DF-UHF iter  10:   -55.57513013598604   -2.18380e-07   3.01170e-06 DIIS
   @DF-UHF iter  11:   -55.57513014607196   -1.00859e-08   8.20205e-07 DIIS
   @DF-UHF iter  12:   -55.57513014666534   -5.93374e-10   1.81648e-07 DIIS
   @DF-UHF iter  13:   -55.57513014669320   -2.78604e-11   3.92140e-08 DIIS
   @DF-UHF iter  14:   -55.57513014669479   -1.59162e-12   9.26544e-09 DIIS

  DF guess converged.

  ==> Integral Setup <==

 MINTS: Wrapper to libmints.
   by Justin Turney

   Calculation information:
      Number of atoms:                   3
      Number of AO shells:              19
      Number of SO shells:              14
      Number of primitives:             39
      Number of atomic orbitals:        43
      Number of basis functions:        41

      Number of irreps:                  4
      Integral cutoff                 0.00e+00
      Number of functions per irrep: [  18    4    7   12 ]

      Overlap, kinetic, potential, dipole, and quadrupole integrals
        stored in file 35.

      Computing two-electron integrals...done
      Computed 92213 non-zero two-electron integrals.
        Stored in file 33.

	Batch   1 pq = [       0,     287] index = [             0,41328]
  ==> DiskJK: Disk-Based J/K Matrices <==

    J tasked:                  Yes
    K tasked:                  Yes
    wK tasked:                  No
    Memory (MB):               183
    Schwarz Cutoff:          1E-12

   @UHF iter  15:   -55.57513803310088   -7.88641e-06   7.15218e-06 DIIS
   @UHF iter  16:   -55.57513805150684   -1.84060e-08   1.36275e-06 DIIS
   @UHF iter  17:   -55.57513805252896   -1.02212e-09   2.38072e-07 DIIS
   @UHF iter  18:   -55.57513805256382   -3.48663e-11   7.88811e-08 DIIS
   @UHF iter  19:   -55.57513805256741   -3.58824e-12   2.85476e-08 DIIS
   @UHF iter  20:   -55.57513805256794   -5.25802e-13   7.29720e-09 DIIS

  ==> Post-Iterations <==

   @Spin Contamination Metric:   8.791483648E-03
   @S^2 Expected:                7.500000000E-01
   @S^2 Observed:                7.587914836E-01
   @S   Expected:                5.000000000E-01
   @S   Observed:                5.000000000E-01

	Orbital Energies (a.u.)
	-----------------------

	Alpha Occupied:                                                       

	   1A1   -15.602254     2A1    -1.173062     1B2    -0.657783  
	   1B1    -0.514052     3A1    -0.506115  

	Alpha Virtual:                                                        

	   4A1     0.035097     2B2     0.057789     2B1     0.152759  
	   5A1     0.153490     6A1     0.199037     3B2     0.205185  
	   4B2     0.289889     7A1     0.307793     1A2     0.365081  
	   8A1     0.378736     3B1     0.406250     5B2     0.528040  
	   9A1     0.596165     6B2     0.612040     7B2     0.707641  
	  10A1     0.722284     4B1     0.785405     2A2     0.862177  
	  11A1     0.866272    12A1     1.131136     5B1     1.205381  
	   8B2     1.210172    13A1     1.285598     9B2     1.820433  
	   3A2     1.837890     6B1     1.945454    14A1     2.084576  
	  10B2     2.136529    15A1     2.253347    11B2     2.396492  
	  16A1     2.438829     7B1     2.635730     4A2     2.717253  
	  17A1     2.826731    18A1     3.199303    12B2     3.508139  

	Beta Occupied:                                                        

	   1A1   -15.570464     2A1    -1.052280     1B2    -0.633217  
	   3A1    -0.460564  

	Beta Virtual:                                                         

	   4A1     0.036698     2B2     0.058287     1B1     0.071206  
	   5A1     0.156441     3B2     0.205854     6A1     0.206510  
	   2B1     0.226343     4B2     0.294105     7A1     0.312399  
	   1A2     0.373652     8A1     0.385617     3B1     0.445736  
	   5B2     0.528082     9A1     0.612211     6B2     0.617322  
	   7B2     0.710401    10A1     0.767103     4B1     0.827682  
	  11A1     0.868847     2A2     0.895343    12A1     1.139341  
	   8B2     1.219739    13A1     1.305646     5B1     1.339447  
	   9B2     1.824215     3A2     1.854883     6B1     1.965038  
	  14A1     2.091624    10B2     2.139313    15A1     2.288103  
	  11B2     2.408827    16A1     2.503282     7B1     2.710294  
	   4A2     2.789419    17A1     2.845228    18A1     3.226451  
	  12B2     3.520348  

	Final Occupation by Irrep:
	         A1    A2    B1    B2 
	DOCC [     3,    0,    0,    1 ]
	SOCC [     0,    0,    1,    0 ]

  Energy converged.

  @UHF Final Energy:   -55.57513805256794

   => Energetics <=

    Nuclear Repulsion Energy =              7.6805432113445695
    One-Electron Energy =                 -90.3415714641240726
    Two-Electron Energy =                  27.0858902002115620
    DFT Exchange-Correlation Energy =       0.0000000000000000
    Empirical Dispersion Energy =           0.0000000000000000
    Total Energy =                        -55.5751380525679366



Properties will be evaluated at   0.000000,   0.000000,   0.000000 Bohr
  ==> Properties <==


Properties computed using the SCF density density matrix
  Nuclear Dipole Moment: (a.u.)
     X:     0.0000      Y:     0.0000      Z:     1.0060

  Electronic Dipole Moment: (a.u.)
     X:     0.0000      Y:     0.0000      Z:    -0.2642

  Dipole Moment: (a.u.)
     X:     0.0000      Y:     0.0000      Z:     0.7417     Total:     0.7417

  Dipole Moment: (Debye)
     X:     0.0000      Y:     0.0000      Z:     1.8853     Total:     1.8853


  Saving occupied orbitals to File 180.

*** tstop() called on john2 at Sun Aug 25 14:56:04 2013
Module time:
	user time   =       0.57 seconds =       0.01 minutes
	system time =       0.02 seconds =       0.00 minutes
	total time  =          0 seconds =       0.00 minutes
Total time:
	user time   =       0.57 seconds =       0.01 minutes
	system time =       0.02 seconds =       0.00 minutes
	total time  =          0 seconds =       0.00 minutes

*** tstart() called on john2
*** at Sun Aug 25 14:56:04 2013



  Options:
  ----------------------------------------------------------------------------
  BENCH                  => 0                
  CACHELEVEL             => 2                
  CCL_ENERGY             => FALSE            
  CC_DIIS_MAX_VECS       => 6                
  CC_DIIS_MIN_VECS       => 2                
  CC_MAXITER             => 50               
  CEPA_OS_SCALE          => 1.27             
  CEPA_SOS_SCALE         => 1.3              
  CEPA_SS_SCALE          => 1.13             
  CEPA_TYPE              => CEPA0            
  CUTOFF                 => 14               
  DEBUG                  => 0                
  DERTYPE                => NONE             
  DIE_IF_NOT_CONVERGED   => TRUE             
  DOCC                   => [ 3, 0, 0, 1 ]  !
  DO_DIIS                => TRUE             
  DO_LEVEL_SHIFT         => TRUE             
  DO_SCS                 => FALSE            
  DO_SOS                 => FALSE            
  E3_SCALE               => 0.25             
  EA_POLES               => FALSE            
  EKT_EA                 => FALSE            
  EKT_IP                 => FALSE            
  EP_EA_POLES            => FALSE            
  EP_IP_POLES            => FALSE            
  EP_MAXITER             => 30               
  E_CONVERGENCE          => 1e-06           !
  FREEZE_CORE            => FALSE            
  FROZEN_DOCC            => [  ]             
  FROZEN_UOCC            => [  ]             
  IP_POLES               => FALSE            
  LEVEL_SHIFT            => 0.02             
  LINEQ_SOLVER           => CDGESV           
  LITERAL_CFOUR          => 
               !
  MAT_NUM_COLUMN_PRINT   => 5                
  MAX_MOGRAD_CONVERGENCE => 0.001            
  MOGRAD_DAMPING         => 1                
  MO_DIIS_NUM_VECS       => 6                
  MO_MAXITER             => 50               
  MO_READ                => FALSE            
  MO_STEP_MAX            => 0.5              
  MO_WRITE               => FALSE            
  MP2_OS_SCALE           => 1.2              
  MP2_SOS_SCALE          => 1.3              
  MP2_SOS_SCALE2         => 1.2              
  MP2_SS_SCALE           => 0.333333         
  MP2_TYPE               => DF               
  NAT_ORBS               => FALSE            
  NUM_FROZEN_DOCC        => 0                
  NUM_FROZEN_UOCC        => 0                
  OCC_ORBS_PRINT         => FALSE            
  OPT_METHOD             => ORB_RESP         
  ORB_OPT                => FALSE           !
  ORB_RESP_SOLVER        => PCG              
  ORTH_TYPE              => MGS              
  PCG_BETA_TYPE          => FLETCHER_REEVES  
  PCG_CONVERGENCE        => 1e-06            
  PCG_MAXITER            => 30               
  PRINT                  => 1                
  PROPERTIES             => [  ]             
  PROPERTIES_ORIGIN      => [  ]             
  PUREAM                 => TRUE             
  RMS_MOGRAD_CONVERGENCE => 1e-06            
  R_CONVERGENCE          => 1e-05            
  SCS_TYPE               => SCS              
  SOCC                   => [ 0, 0, 1, 0 ]  !
  SOS_TYPE               => SOS              
  TPDM_ABCD_TYPE         => DIRECT           
  UNITS                  => ANGSTROMS        
  WFN                    => SCF              
  WFN_TYPE               => OMP3            !
  WRITER_FILE_LABEL      => (empty)          


 ============================================================================== 
 ============================================================================== 
 ============================================================================== 

                       MP3   
              Program Written by Ugur Bozkaya,
              Latest Revision Jun 09, 2013.

 ============================================================================== 
 ============================================================================== 
 ============================================================================== 

	RMS orbital gradient is changed to :     1.00e-05
	MAX orbital gradient is changed to :     3.16e-04
	MO spaces per irreps... 

	IRREP   FC   AOCC  BOCC  AVIR    BVIR  FV 
	==========================================
	  A1     0     3     3    15     15     0
	  A2     0     0     0     4      4     0
	  B1     0     1     0     6      7     0
	  B2     0     1     1    11     11     0
	==========================================

	Computing MP2 energy using SCF MOs (Canonical MP2)... 
	============================================================================== 
	Nuclear Repulsion Energy (a.u.)    :     7.68054321134457
	SCF Energy (a.u.)                  :   -55.57513805256794
	REF Energy (a.u.)                  :   -55.57513805256794
	Alpha-Alpha Contribution (a.u.)    :    -0.02446541787600
	Alpha-Beta Contribution (a.u.)     :    -0.11965830903119
	Beta-Beta Contribution (a.u.)      :    -0.01073620758440
	Scaled_SS Correlation Energy (a.u.):    -0.01173387515347
	Scaled_OS Correlation Energy (a.u.):    -0.14358997083743
	SCS-MP2 Total Energy (a.u.)        :   -55.73046189855884
	SOS-MP2 Total Energy (a.u.)        :   -55.73069385430849
	SCSN-MP2 Total Energy (a.u.)       :   -55.63709291337824
	SCS-MP2-VDW Total Energy (a.u.)    :   -55.74590150085807
	SOS-PI-MP2 Total Energy (a.u.)     :   -55.74265968521161
	MP2 Correlation Energy (a.u.)      :    -0.15485993449160
	MP2 Total Energy (a.u.)            :   -55.72999798705953
	============================================================================== 


	Computing MP3 energy using SCF MOs (Canonical MP3)... 
	============================================================================== 
	Nuclear Repulsion Energy (a.u.)    :     7.68054321134457
	SCF Energy (a.u.)                  :   -55.57513805256794
	REF Energy (a.u.)                  :   -55.57513805256794
	Alpha-Alpha Contribution (a.u.)    :    -0.02475751008351
	Alpha-Beta Contribution (a.u.)     :    -0.13558340855026
	Beta-Beta Contribution (a.u.)      :    -0.01057597907080
	MP2.5 Correlation Energy (a.u.)    :    -0.16288841609808
	MP2.5 Total Energy (a.u.)          :   -55.73802646866602
	SCS-MP3 Total Energy (a.u.)        :   -55.73447613936208
	SOS-MP3 Total Energy (a.u.)        :   -55.73470809511173
	SCSN-MP3 Total Energy (a.u.)       :   -55.64110715418148
	SCS-MP3-VDW Total Energy (a.u.)    :   -55.74991574166131
	SOS-PI-MP3 Total Energy (a.u.)     :   -55.74667392601485
	3rd Order Energy (a.u.)            :    -0.01605696321297
	MP3 Correlation Energy (a.u.)      :    -0.17091689770457
	MP3 Total Energy (a.u.)            :   -55.74605495027250
	============================================================================== 


*** tstop() called on john2 at Sun Aug 25 14:56:05 2013
Module time:
	user time   =       0.41 seconds =       0.01 minutes
	system time =       0.16 seconds =       0.00 minutes
	total time  =          1 seconds =       0.02 minutes
Total time:
	user time   =       0.98 seconds =       0.02 minutes
	system time =       0.18 seconds =       0.00 minutes
	total time  =          1 seconds =       0.02 minutes


  Variable Map:
  ----------------------------------------------------------------------------
  "CURRENT CORRELATION ENERGY"     =>      -0.170916897705
  "CURRENT ENERGY"                 =>     -55.746054950273
  "CURRENT REFERENCE ENERGY"       =>     -55.575138052568
  "HF TOTAL ENERGY"                =>     -55.575138052568
  "MP2 CORRELATION ENERGY"         =>      -0.154859934492
  "MP2 OPPOSITE-SPIN ENERGY"       =>      -0.119658309031
  "MP2 SAME-SPIN ENERGY"           =>      -0.035201625460
  "MP2 TOTAL ENERGY"               =>     -55.729997987060
  "MP2.5 CORRELATION ENERGY"       =>      -0.162888416098
  "MP2.5 TOTAL ENERGY"             =>     -55.738026468666
  "MP3 CORRELATION ENERGY"         =>      -0.170916897705
  "MP3 TOTAL ENERGY"               =>     -55.746054950273
  "NUCLEAR REPULSION ENERGY"       =>       7.680543211345
  "ONE-ELECTRON ENERGY"            =>     -90.341571464124
  "SCF DIPOLE X"                   =>       0.000000000000
  "SCF DIPOLE Y"                   =>       0.000000000000
  "SCF DIPOLE Z"                   =>       1.885295871238
  "SCF ITERATION ENERGY"           =>     -55.575138052568
  "SCF TOTAL ENERGY"               =>     -55.575138052568
  "SCS-MP2 CORRELATION ENERGY"     =>      -0.155323845991
  "SCS-MP2 TOTAL ENERGY"           =>     -55.730461898559
  "SCS-MP2-VDW CORRELATION ENERGY" =>      -0.170763448290
  "SCS-MP2-VDW TOTAL ENERGY"       =>     -55.745901500858
  "SCS-MP3 CORRELATION ENERGY"     =>      -0.159338086794
  "SCS-MP3 TOTAL ENERGY"           =>     -55.734476139362
  "SCS-MP3-VDW CORRELATION ENERGY" =>      -0.174777689093
  "SCS-MP3-VDW TOTAL ENERGY"       =>     -55.749915741661
  "SCSN-MP2 CORRELATION ENERGY"    =>      -0.061954860810
  "SCSN-MP2 TOTAL ENERGY"          =>     -55.637092913378
  "SCSN-MP3 CORRELATION ENERGY"    =>      -0.065969101614
  "SCSN-MP3 TOTAL ENERGY"          =>     -55.641107154181
  "SOS-MP2 CORRELATION ENERGY"     =>      -0.155555801741
  "SOS-MP2 TOTAL ENERGY"           =>     -55.730693854308
  "SOS-MP3 CORRELATION ENERGY"     =>      -0.159570042544
  "SOS-MP3 TOTAL ENERGY"           =>     -55.734708095112
  "SOS-PI-MP2 CORRELATION ENERGY"  =>      -0.167521632644
  "SOS-PI-MP2 TOTAL ENERGY"        =>     -55.742659685212
  "SOS-PI-MP3 CORRELATION ENERGY"  =>      -0.171535873447
  "SOS-PI-MP3 TOTAL ENERGY"        =>     -55.746673926015
  "TWO-ELECTRON ENERGY"            =>      27.085890200212



*** PSI4 exiting successfully. Buy a developer a beer!
