
    -----------------------------------------------------------------------
          Psi4: An Open-Source Ab Initio Electronic Structure Package
                               Psi4 1.11a1.dev16 

                         Git: Rev {dlpno_ccsd_t_pr_branch} 3e5375e dirty


    D. G. A. Smith, L. A. Burns, A. C. Simmonett, R. M. Parrish,
    M. C. Schieber, R. Galvelis, P. Kraus, H. Kruse, R. Di Remigio,
    A. Alenaizan, A. M. James, S. Lehtola, J. P. Misiewicz, M. Scheurer,
    R. A. Shaw, J. B. Schriber, Y. Xie, Z. L. Glick, D. A. Sirianni,
    J. S. O'Brien, J. M. Waldrop, A. Kumar, E. G. Hohenstein,
    B. P. Pritchard, B. R. Brooks, H. F. Schaefer III, A. Yu. Sokolov,
    K. Patkowski, A. E. DePrince III, U. Bozkaya, R. A. King,
    F. A. Evangelista, J. M. Turney, T. D. Crawford, C. D. Sherrill,
    J. Chem. Phys. 152(18) 184108 (2020). https://doi.org/10.1063/5.0006002

                            Additional Code Authors
    E. T. Seidl, C. L. Janssen, E. F. Valeev, M. L. Leininger,
    J. F. Gonthier, R. M. Richard, H. R. McAlexander, M. Saitow, X. Wang,
    P. Verma, M. H. Lechner, A. Jiang, S. Behnle, A. G. Heide,
    M. F. Herbst, D. L. Poole, T. Győri, E. C. Mitchell, J. P. Pederson,
    and A. M. Wallace

             Previous Authors, Complete List of Code Contributors,
                       and Citations for Specific Modules
    https://github.com/psi4/psi4/blob/master/codemeta.json
    https://github.com/psi4/psi4/graphs/contributors
    https://psicode.org/psi4manual/master/introduction.html#citing-psifour

    -----------------------------------------------------------------------


    Psi4 started on: Wednesday, 03 December 2025 12:22PM

    Process ID: 3450659
    Host:       ra4-3
    PSIDATADIR: /home/aj48384/github/psi4/objdir_p4dev/stage/share/psi4
    Memory:     500.0 MiB
    Threads:    16
    Addons:     adcc, ambit, bse, c̶c̶t̶3̶, c̶f̶o̶u̶r̶, c̶h̶e̶m̶p̶s̶2̶, cppe, ddx, dftd3, dftd4, dkh, ecpint,
                einsums, f̶o̶r̶t̶e̶, g̶a̶u̶x̶c̶, gcp, gdma, geometric, g̶p̶u̶_̶d̶f̶c̶c̶,
                integratorxx, ipi, libefp, mdi, m̶p̶2̶d̶, m̶r̶c̶c̶, o̶o̶o̶,
                o̶p̶e̶n̶f̶e̶r̶m̶i̶o̶n̶p̶s̶i̶4̶, pcmsolver, p̶s̶i̶4̶f̶o̶c̶k̶c̶i̶, p̶s̶i̶x̶a̶s̶,
                r̶e̶s̶p̶, s̶i̶m̶i̶n̶t̶, s̶n̶s̶m̶p̶2̶, v̶2̶r̶d̶m̶_̶c̶a̶s̶s̶c̶f̶

  ==> Input File <==

--------------------------------------------------------------------------
#! comparison of DF-CCSD(T) and DLPNO-CCSD(T) CBS Extrapolation on Ar dimer
#! The reference DF-CCSD(T) values are stored and not rerun

memory 16 GB

df_ccsd_t_e_int          =     -0.000295197433              #TEST
dlpno_ccsd_t_e_int       =     -0.000289829339              #TEST

molecule Ar2 {
0 1
Ar         0.00000000       0.00000000       0.00000000
--
0 1
Ar         0.00000000       0.00000000       3.75000000
units angstrom
symmetry c1
}

set freeze_core True
set scf_type df
set mp2_type df
set cc_type df
set nat_orbs False
set pno_convergence tight
set e_convergence 1.0e-8
set r_convergence 1.0e-8
set local_convergence 1.0e-11
set local_maxiter 10000

print('   Computing DLPNO-CCSD(T)/cc-pV[TQ]Z interaction energy ...')
de_dlpno = energy('dlpno-ccsd(t)/cc-pV[TQ]Z', bsse_type='cp')
compare_values(de_dlpno, dlpno_ccsd_t_e_int, 6, 'canonical DLPNO-CCSD(T)/CBS Eint')                 #TEST
compare_values(de_dlpno, df_ccsd_t_e_int, 5, 'canonical vs DLPNO-CCSD(T) Eint (< 0.006 kcal/mol)')  #TEST
clean()
--------------------------------------------------------------------------

  Memory set to  14.901 GiB by Python driver.

Scratch directory: /tmp/

  //>>>>>>>>>>>>>>>>>>>>>>>>>>>>>>>>>>>//
  //   ManyBody Setup: N-Body Levels 2 //
  //<<<<<<<<<<<<<<<<<<<<<<<<<<<<<<<<<<<//

    Model chemistry "(auto)" (§A):          3
        Number of 1-body computations:      2 (nocp: 0, cp: 2, vmfc_compute: 0)
        Number of 2-body computations:      1 (nocp: 0, cp: 1, vmfc_compute: 0)

  //>>>>>>>>>>>>>>>>>>>>>>>>>>>>>>>>>>>//
  //          CBS Computations         //
  //<<<<<<<<<<<<<<<<<<<<<<<<<<<<<<<<<<<//


    -----------------------------------------------------------------------
          Psi4: An Open-Source Ab Initio Electronic Structure Package
                               Psi4 1.11a1.dev16 

                         Git: Rev {dlpno_ccsd_t_pr_branch} 3e5375e dirty


    D. G. A. Smith, L. A. Burns, A. C. Simmonett, R. M. Parrish,
    M. C. Schieber, R. Galvelis, P. Kraus, H. Kruse, R. Di Remigio,
    A. Alenaizan, A. M. James, S. Lehtola, J. P. Misiewicz, M. Scheurer,
    R. A. Shaw, J. B. Schriber, Y. Xie, Z. L. Glick, D. A. Sirianni,
    J. S. O'Brien, J. M. Waldrop, A. Kumar, E. G. Hohenstein,
    B. P. Pritchard, B. R. Brooks, H. F. Schaefer III, A. Yu. Sokolov,
    K. Patkowski, A. E. DePrince III, U. Bozkaya, R. A. King,
    F. A. Evangelista, J. M. Turney, T. D. Crawford, C. D. Sherrill,
    J. Chem. Phys. 152(18) 184108 (2020). https://doi.org/10.1063/5.0006002

                            Additional Code Authors
    E. T. Seidl, C. L. Janssen, E. F. Valeev, M. L. Leininger,
    J. F. Gonthier, R. M. Richard, H. R. McAlexander, M. Saitow, X. Wang,
    P. Verma, M. H. Lechner, A. Jiang, S. Behnle, A. G. Heide,
    M. F. Herbst, D. L. Poole, T. Győri, E. C. Mitchell, J. P. Pederson,
    and A. M. Wallace

             Previous Authors, Complete List of Code Contributors,
                       and Citations for Specific Modules
    https://github.com/psi4/psi4/blob/master/codemeta.json
    https://github.com/psi4/psi4/graphs/contributors
    https://psicode.org/psi4manual/master/introduction.html#citing-psifour

    -----------------------------------------------------------------------


    Psi4 started on: Wednesday, 03 December 2025 12:22PM

    Process ID: 3450659
    Host:       ra4-3
    PSIDATADIR: /home/aj48384/github/psi4/objdir_p4dev/stage/share/psi4
    Memory:     14.9 GiB
    Threads:    16
    Addons:     adcc, ambit, bse, c̶c̶t̶3̶, c̶f̶o̶u̶r̶, c̶h̶e̶m̶p̶s̶2̶, cppe, ddx, dftd3, dftd4, dkh, ecpint,
                einsums, f̶o̶r̶t̶e̶, g̶a̶u̶x̶c̶, gcp, gdma, geometric, g̶p̶u̶_̶d̶f̶c̶c̶,
                integratorxx, ipi, libefp, mdi, m̶p̶2̶d̶, m̶r̶c̶c̶, o̶o̶o̶,
                o̶p̶e̶n̶f̶e̶r̶m̶i̶o̶n̶p̶s̶i̶4̶, pcmsolver, p̶s̶i̶4̶f̶o̶c̶k̶c̶i̶, p̶s̶i̶x̶a̶s̶,
                r̶e̶s̶p̶, s̶i̶m̶i̶n̶t̶, s̶n̶s̶m̶p̶2̶, v̶2̶r̶d̶m̶_̶c̶a̶s̶s̶c̶f̶

  ==> Input QCSchema <==

--------------------------------------------------------------------------
{'driver': 'energy',
 'extras': {'psiapi': True, 'wfn_qcvars_only': True},
 'id': None,
 'keywords': {'CC_TYPE': 'DF',
              'E_CONVERGENCE': 1e-08,
              'FREEZE_CORE': 'TRUE',
              'LOCAL_CONVERGENCE': 1e-11,
              'LOCAL_MAXITER': 10000,
              'MP2_TYPE': 'DF',
              'NAT_ORBS': 0,
              'PNO_CONVERGENCE': 'TIGHT',
              'R_CONVERGENCE': 1e-08,
              'SCF_TYPE': 'DF',
              'function_kwargs': {}},
 'model': {'basis': 'cc-pvqz', 'method': 'dlpno-ccsd(t)'},
 'molecule': {'atom_labels': ['', ''],
              'atomic_numbers': [18, 18],
              'extras': {},
              'fix_com': True,
              'fix_orientation': True,
              'fix_symmetry': 'c1',
              'fragment_charges': [0.0, 0.0],
              'fragment_multiplicities': [1, 1],
              'fragments': [[0], [1]],
              'geometry': [0.0, 0.0, -3.5432364852334, 0.0, 0.0, 3.5432364852334],
              'mass_numbers': [40, 40],
              'masses': [39.9623831237, 39.9623831237],
              'molecular_charge': 0.0,
              'molecular_multiplicity': 1,
              'name': 'Ar2 ([1],[0])',
              'provenance': {'creator': 'QCElemental',
                             'routine': 'qcelemental.molparse.from_schema',
                             'version': '0.29.0'},
              'real': [False, True],
              'schema_name': 'qcschema_molecule',
              'schema_version': 2,
              'symbols': ['Ar', 'Ar'],
              'validated': True},
 'protocols': {'stdout': True},
 'provenance': {'creator': 'QCElemental', 'routine': 'qcelemental.models.results', 'version': '0.29.0'},
 'schema_name': 'qcschema_input',
 'schema_version': 1}
--------------------------------------------------------------------------

Scratch directory: /tmp/
   => Libint2 <=

    Primary   basis highest AM E, G, H:  6, 6, 3
    Auxiliary basis highest AM E, G, H:  7, 7, 4
    Onebody   basis highest AM E, G, H:  -, -, -
    Solid Harmonics ordering:            Gaussian

*** tstart() called on ra4-3
*** at Wed Dec  3 12:22:56 2025

   => Loading Basis Set <=

    Name: CC-PVQZ
    Role: ORBITAL
    Keyword: BASIS
    atoms 1-2 entry AR         line  1134 file /home/aj48384/github/psi4/objdir_p4dev/stage/share/psi4/basis/cc-pvqz.gbs 


         ---------------------------------------------------------
                                   SCF
               by Justin Turney, Rob Parrish, Andy Simmonett
                          and Daniel G. A. Smith
                              RHF Reference
                       16 Threads,  15258 MiB Core
         ---------------------------------------------------------

  ==> Geometry <==

    Molecular point group: c1
    Full point group: C_inf_v

    Geometry (in Bohr), charge = 0, multiplicity = 1:

       Center              X                  Y                   Z               Mass       
    ------------   -----------------  -----------------  -----------------  -----------------
      Gh(AR)          0.000000000000     0.000000000000    -3.543236485233    39.962383123700
         AR           0.000000000000     0.000000000000     3.543236485233    39.962383123700

  Running in c1 symmetry.

  Rotational constants: A = ************  B =      0.05999  C =      0.05999 [cm^-1]
  Rotational constants: A = ************  B =   1798.59458  C =   1798.59458 [MHz]
  Nuclear repulsion =    0.000000000000000

  Charge       = 0
  Multiplicity = 1
  Electrons    = 18
  Nalpha       = 9
  Nbeta        = 9

  ==> Algorithm <==

  SCF Algorithm Type is DF.
  DIIS enabled.
  MOM disabled.
  Fractional occupation disabled.
  Guess Type is SAD.
  Energy threshold   = 1.00e-08
  Density threshold  = 1.00e-08
  Integral threshold = 1.00e-12

  ==> Primary Basis <==

  Basis Set: CC-PVQZ
    Blend: CC-PVQZ
    Number of shells: 34
    Number of basis functions: 118
    Number of Cartesian functions: 148
    Spherical Harmonics?: true
    Max angular momentum: 4

   => Loading Basis Set <=

    Name: (CC-PVQZ AUX)
    Role: JKFIT
    Keyword: DF_BASIS_SCF
    atoms 1-2 entry AR         line   837 file /home/aj48384/github/psi4/objdir_p4dev/stage/share/psi4/basis/cc-pvqz-jkfit.gbs 

  ==> Integral Setup <==

  DFHelper Memory: AOs need 0.033 GiB; user supplied 11.176 GiB. 
  SCF_SUBTYPE=INCORE selected. In-core MEM_DF algorithm will be used.
  Using in-core AOs.

  ==> MemDFJK: Density-Fitted J/K Matrices <==

    J tasked:                   Yes
    K tasked:                   Yes
    wK tasked:                   No
    OpenMP threads:              16
    Memory [MiB]:             11444
    Algorithm:                 Core
    Schwarz Cutoff:           1E-12
    Mask sparsity (%):      11.2611
    Fitting Condition:        1E-10

   => Auxiliary Basis Set <=

  Basis Set: (CC-PVQZ AUX)
    Blend: CC-PVQZ-JKFIT
    Number of shells: 80
    Number of basis functions: 296
    Number of Cartesian functions: 382
    Spherical Harmonics?: true
    Max angular momentum: 5

  Minimum eigenvalue in the overlap matrix is 6.0368608238E-04.
  Reciprocal condition number of the overlap matrix is 1.6995386892E-04.
    Using symmetric orthogonalization.

  ==> Pre-Iterations <==

  SCF Guess: Superposition of Atomic Densities via on-the-fly atomic UHF (no occupation information).

   -------------------------
    Irrep   Nso     Nmo    
   -------------------------
     A        118     118 
   -------------------------
    Total     118     118
   -------------------------

  ==> Iterations <==

                           Total Energy        Delta E     RMS |[F,P]|

   @DF-RHF iter SAD:  -526.80061749177003   -5.26801e+02   0.00000e+00 
   @DF-RHF iter   1:  -526.81611812642109   -1.55006e-02   5.80857e-04 ADIIS/DIIS
   @DF-RHF iter   2:  -526.81673355793703   -6.15432e-04   1.40737e-04 ADIIS/DIIS
   @DF-RHF iter   3:  -526.81678644106887   -5.28831e-05   4.60125e-06 DIIS
   @DF-RHF iter   4:  -526.81678651898437   -7.79155e-08   2.03921e-07 DIIS
   @DF-RHF iter   5:  -526.81678651917298   -1.88606e-10   1.54923e-08 DIIS
   @DF-RHF iter   6:  -526.81678651917582   -2.84217e-12   1.53912e-09 DIIS
  Energy and wave function converged.


  ==> Post-Iterations <==

    Orbital Energies [Eh]
    ---------------------

    Doubly Occupied:                                                      

       1A   -118.610118     2A    -12.321958     3A     -9.571238  
       4A     -9.571238     5A     -9.571237     6A     -1.277209  
       7A     -0.590877     8A     -0.590877     9A     -0.590872  

    Virtual:                                                              

      10A      0.194794    11A      0.261850    12A      0.265654  
      13A      0.265654    14A      0.392155    15A      0.392155  
      16A      0.423349    17A      0.509343    18A      0.583281  
      19A      0.583281    20A      0.583903    21A      0.583903  
      22A      0.595715    23A      0.975366    24A      0.975366  
      25A      0.977347    26A      0.977347    27A      0.977669  
      28A      1.002942    29A      1.035665    30A      1.035665  
      31A      1.098391    32A      1.801933    33A      1.801933  
      34A      1.803836    35A      1.803836    36A      1.815681  
      37A      1.843838    38A      1.843838    39A      1.887585  
      40A      1.919420    41A      1.919420    42A      1.919422  
      43A      1.919422    44A      1.920067    45A      1.920067  
      46A      1.932395    47A      2.283740    48A      2.283740  
      49A      2.283749    50A      2.283749    51A      2.285027  
      52A      2.285027    53A      2.293218    54A      2.872144  
      55A      2.979964    56A      2.979964    57A      2.996394  
      58A      3.058183    59A      3.220366    60A      3.220366  
      61A      3.222442    62A      3.222442    63A      3.267354  
      64A      4.709885    65A      4.709885    66A      4.709885  
      67A      4.709885    68A      4.709886    69A      4.709886  
      70A      4.709927    71A      4.709927    72A      4.710143  
      73A      4.857569    74A      4.857569    75A      4.859347  
      76A      4.859347    77A      4.883732    78A      5.199599  
      79A      5.199599    80A      5.199602    81A      5.199602  
      82A      5.200059    83A      5.200059    84A      5.204513  
      85A      5.538507    86A      5.538507    87A      5.538511  
      88A      5.538511    89A      5.538513    90A      5.538513  
      91A      5.538537    92A      5.538537    93A      5.538811  
      94A      6.574455    95A      6.574455    96A      6.606652  
      97A      7.189899    98A      7.189899    99A      7.189900  
     100A      7.189900   101A      7.190522   102A      7.190522  
     103A      7.195151   104A      7.972675   105A      7.972675  
     106A      7.999801   107A      9.098701   108A      9.098701  
     109A      9.100095   110A      9.100095   111A      9.118424  
     112A      9.569618   113A     28.272381   114A     36.236000  
     115A     36.236000   116A     36.250063   117A     47.429288  
     118A    180.000914  

    Final Occupation by Irrep:
              A 
    DOCC [     9 ]
    NA   [     9 ]
    NB   [     9 ]

  @DF-RHF Final Energy:  -526.81678651917582

   => Energetics <=

    Nuclear Repulsion Energy =              0.0000000000000000
    One-Electron Energy =                -728.2423285198764233
    Two-Electron Energy =                 201.4255420007006023
    Total Energy =                       -526.8167865191758210

Computation Completed


Properties will be evaluated at   0.000000,   0.000000,   0.000000 [a0]

Properties computed using the SCF density matrix


 Multipole Moments:

 ------------------------------------------------------------------------------------
     Multipole            Electronic (a.u.)      Nuclear  (a.u.)        Total (a.u.)
 ------------------------------------------------------------------------------------

 L = 1.  Multiply by 2.5417464519 to convert [e a0] to [Debye]
 Dipole X            :          0.0000000            0.0000000            0.0000000
 Dipole Y            :         -0.0000000            0.0000000           -0.0000000
 Dipole Z            :        -63.7777809           63.7782567            0.0004758
 Magnitude           :                                                    0.0004758

 ------------------------------------------------------------------------------------

*** tstop() called on ra4-3 at Wed Dec  3 12:22:57 2025
Module time:
	user time   =       9.32 seconds =       0.16 minutes
	system time =       1.32 seconds =       0.02 minutes
	total time  =          1 seconds =       0.02 minutes
Total time:
	user time   =       9.32 seconds =       0.16 minutes
	system time =       1.32 seconds =       0.02 minutes
	total time  =          1 seconds =       0.02 minutes

*** tstart() called on ra4-3
*** at Wed Dec  3 12:22:57 2025


  //>>>>>>>>>>>>>>>>>>>>>>>>>>>>>>>>>>>//
  //           DLPNO-CCSD(T)           //
  //<<<<<<<<<<<<<<<<<<<<<<<<<<<<<<<<<<<//

   => Loading Basis Set <=

    Name: (CC-PVQZ AUX)
    Role: RIFIT
    Keyword: DF_BASIS_CC
    atoms 1-2 entry AR         line  1123 file /home/aj48384/github/psi4/objdir_p4dev/stage/share/psi4/basis/cc-pvqz-ri.gbs 

   --------------------------------------------
                    DLPNO-CCSD                 
                   by Andy Jiang               
              DOI: 10.1063/5.0219963           
   --------------------------------------------

  DLPNO convergence set to TIGHT.

  Detailed DLPNO thresholds and cutoffs:
    T_CUT_PNO        = 1.0000e-07 
    T_DIAG_SCALE     = 3.0000e-02 
    T_CORE_SCALE     = 1.0000e-02 
    T_CUT_TRACE      = 9.9900e-01 
    T_CUT_ENERGY     = 9.9700e-01 
    T_CUT_PAIRS      = 1.0000e-05 
    T_CUT_PAIRS_MP2  = 1.0000e-06 
    T_CUT_PRE        = 1.0000e-07 
    T_CUT_DO_PRE     = 3.0000e-02 
    T_CUT_MKN        = 1.0000e-03 
    T_CUT_PNO_MP2    = 1.0000e-09 
    T_CUT_TRACE_MP2  = 9.9990e-01 
    T_CUT_ENERGY_MP2 = 9.9900e-01 
    T_CUT_DO         = 5.0000e-03 
    T_CUT_DO_ij      = 1.0000e-05 
    T_CUT_DO_uv      = 1.0000e-05 
    T_CUT_CLMO       = 1.0000e-03 
    T_CUT_CPAO       = 1.0000e-03 
    S_CUT            = 1.0000e-08 
    F_CUT            = 1.0000e-05 
    INTS_TOL (AO)    = 1.0000e-10 
    MIN_PNOS         =      5   


  ==> Basis Set Information <==

   ----------------------------------------------
      NBF   NFRZC   NACT   NDOCC   NVIR   NAUX   
   ----------------------------------------------
      118      5      4       9     109    316
   ----------------------------------------------

  ==> Boys Localizer <==

    Convergence =   1.000E-11
    Maxiter     =       10000

    Iteration                   Metric       Residual
    @Boys    0   5.0216411554200747E+01              -
    @Boys    1   5.2168260220197332E+01   3.886874E-02
    @Boys    2   5.2445898068727708E+01   5.321969E-03
    @Boys    3   5.2446947642878186E+01   2.001251E-05
    @Boys    4   5.2446983426047218E+01   6.822736E-07
    @Boys    5   5.2446985599463773E+01   4.144026E-08
    @Boys    6   5.2446985841104741E+01   4.607338E-09
    @Boys    7   5.2446985844314014E+01   6.119080E-11
    @Boys    8   5.2446985846128641E+01   3.459926E-11
    @Boys    9   5.2446985847560498E+01   2.730104E-11
    @Boys   10   5.2446985849748366E+01   4.171579E-11
    @Boys   11   5.2446985851632085E+01   3.591665E-11
    @Boys   12   5.2446985853171746E+01   2.935652E-11
    @Boys   13   5.2446985854844556E+01   3.189524E-11
    @Boys   14   5.2446985857096138E+01   4.293063E-11
    @Boys   15   5.2446985858840904E+01   3.326723E-11
    @Boys   16   5.2446985860640865E+01   3.431963E-11
    @Boys   17   5.2446985862227812E+01   3.025813E-11
    @Boys   18   5.2446985864649271E+01   4.616964E-11
    @Boys   19   5.2446985866516719E+01   3.560640E-11
    @Boys   20   5.2446985868734693E+01   4.228982E-11
    @Boys   21   5.2446985870211975E+01   2.816715E-11
    @Boys   22   5.2446985872360230E+01   4.096050E-11
    @Boys   23   5.2446985874155608E+01   3.423224E-11
    @Boys   24   5.2446985876022822E+01   3.560193E-11
    @Boys   25   5.2446985877546624E+01   2.905413E-11
    @Boys   26   5.2446985880082259E+01   4.834664E-11
    @Boys   27   5.2446985881645325E+01   2.980278E-11
    @Boys   28   5.2446985884015149E+01   4.518512E-11
    @Boys   29   5.2446985886390856E+01   4.529730E-11
    @Boys   30   5.2446985888453952E+01   3.933680E-11
    @Boys   31   5.2446985890143601E+01   3.221633E-11
    @Boys   32   5.2446985892823605E+01   5.109929E-11
    @Boys   33   5.2446985894456255E+01   3.112952E-11
    @Boys   34   5.2446985896397820E+01   3.701958E-11
    @Boys   35   5.2446985899019310E+01   4.998363E-11
    @Boys   36   5.2446985901477291E+01   4.686600E-11
    @Boys   37   5.2446985904570809E+01   5.898372E-11
    @Boys   38   5.2446985907129410E+01   4.878451E-11
    @Boys   39   5.2446985909651232E+01   4.808327E-11
    @Boys   40   5.2446985911364294E+01   3.266273E-11
    @Boys   41   5.2446985913753245E+01   4.554983E-11
    @Boys   42   5.2446985916387519E+01   5.022735E-11
    @Boys   43   5.2446985918643122E+01   4.300731E-11
    @Boys   44   5.2446985920018101E+01   2.621654E-11
    @Boys   45   5.2446985922396223E+01   4.534336E-11
    @Boys   46   5.2446985924128711E+01   3.303313E-11
    @Boys   47   5.2446985925594831E+01   2.795432E-11
    @Boys   48   5.2446985927394664E+01   3.431719E-11
    @Boys   49   5.2446985929128942E+01   3.306727E-11
    @Boys   50   5.2446985930863207E+01   3.306700E-11
    @Boys   51   5.2446985933056588E+01   4.182093E-11
    @Boys   52   5.2446985934681670E+01   3.098524E-11
    @Boys   53   5.2446985936239898E+01   2.971052E-11
    @Boys   54   5.2446985937630089E+01   2.650660E-11
    @Boys   55   5.2446985939843998E+01   4.221232E-11
    @Boys   56   5.2446985942023431E+01   4.155498E-11
    @Boys   57   5.2446985943601028E+01   3.007984E-11
    @Boys   58   5.2446985946100682E+01   4.766058E-11
    @Boys   59   5.2446985948048955E+01   3.714747E-11
    @Boys   60   5.2446985950021130E+01   3.760322E-11
    @Boys   61   5.2446985951785834E+01   3.364739E-11
    @Boys   62   5.2446985954136821E+01   4.482597E-11
    @Boys   63   5.2446985956001697E+01   3.555736E-11
    @Boys   64   5.2446985958532636E+01   4.825709E-11
    @Boys   65   5.2446985960099262E+01   2.987066E-11
    @Boys   66   5.2446985961946105E+01   3.521351E-11
    @Boys   67   5.2446985963524682E+01   3.009853E-11
    @Boys   68   5.2446985965969475E+01   4.661455E-11
    @Boys   69   5.2446985968664286E+01   5.138163E-11
    @Boys   70   5.2446985970003659E+01   2.553766E-11
    @Boys   71   5.2446985972903178E+01   5.528476E-11
    @Boys   72   5.2446985974567234E+01   3.172834E-11
    @Boys   73   5.2446985976128545E+01   2.976932E-11
    @Boys   74   5.2446985977781175E+01   3.151049E-11
    @Boys   75   5.2446985979582159E+01   3.433914E-11
    @Boys   76   5.2446985981294972E+01   3.265799E-11
    @Boys   77   5.2446985983472729E+01   4.152301E-11
    @Boys   78   5.2446985985883003E+01   4.595640E-11
    @Boys   79   5.2446985987420362E+01   2.931262E-11
    @Boys   80   5.2446985989648084E+01   4.247569E-11
    @Boys   81   5.2446985991601466E+01   3.724488E-11
    @Boys   82   5.2446985992943283E+01   2.558426E-11
    @Boys   83   5.2446985995459592E+01   4.797814E-11
    @Boys   84   5.2446985997028754E+01   2.991902E-11
    @Boys   85   5.2446985998785628E+01   3.349809E-11
    @Boys   86   5.2446986000291616E+01   2.871449E-11
    @Boys   87   5.2446986001722735E+01   2.728695E-11
    @Boys   88   5.2446986004214672E+01   4.751345E-11
    @Boys   89   5.2446986006019770E+01   3.441758E-11
    @Boys   90   5.2446986007750283E+01   3.299546E-11
    @Boys   91   5.2446986010262684E+01   4.790363E-11
    @Boys   92   5.2446986012488523E+01   4.243979E-11
    @Boys   93   5.2446986014361059E+01   3.570340E-11
    @Boys   94   5.2446986016721056E+01   4.499776E-11
    @Boys   95   5.2446986018940621E+01   4.232016E-11
    @Boys   96   5.2446986020599148E+01   3.162293E-11
    @Boys   97   5.2446986022797681E+01   4.191915E-11
    @Boys   98   5.2446986025804094E+01   5.732289E-11
    @Boys   99   5.2446986027185417E+01   2.633752E-11
    @Boys  100   5.2446986028803316E+01   3.084827E-11
    @Boys  101   5.2446986030730116E+01   3.673805E-11
    @Boys  102   5.2446986033008031E+01   4.343271E-11
    @Boys  103   5.2446986035803690E+01   5.330447E-11
    @Boys  104   5.2446986037480514E+01   3.197179E-11
    @Boys  105   5.2446986039906527E+01   4.625648E-11
    @Boys  106   5.2446986041804472E+01   3.618787E-11
    @Boys  107   5.2446986043524142E+01   3.278872E-11
    @Boys  108   5.2446986045230034E+01   3.252603E-11
    @Boys  109   5.2446986047726163E+01   4.759338E-11
    @Boys  110   5.2446986050315047E+01   4.936192E-11
    @Boys  111   5.2446986051912823E+01   3.046459E-11
    @Boys  112   5.2446986053892473E+01   3.774574E-11
    @Boys  113   5.2446986055553531E+01   3.167116E-11
    @Boys  114   5.2446986056982482E+01   2.724563E-11
    @Boys  115   5.2446986059277826E+01   4.376504E-11
    @Boys  116   5.2446986061705822E+01   4.629428E-11
    @Boys  117   5.2446986063091792E+01   2.642612E-11
    @Boys  118   5.2446986065936038E+01   5.423087E-11
    @Boys  119   5.2446986068279443E+01   4.468141E-11
    @Boys  120   5.2446986069711194E+01   2.729901E-11
    @Boys  121   5.2446986071741712E+01   3.871563E-11
    @Boys  122   5.2446986073471379E+01   3.297934E-11
    @Boys  123   5.2446986075832164E+01   4.501279E-11
    @Boys  124   5.2446986078647441E+01   5.367853E-11
    @Boys  125   5.2446986080565075E+01   3.656328E-11
    @Boys  126   5.2446986083299969E+01   5.214586E-11
    @Boys  127   5.2446986085377198E+01   3.960626E-11
    @Boys  128   5.2446986087188876E+01   3.454303E-11
    @Boys  129   5.2446986089406494E+01   4.228304E-11
    @Boys  130   5.2446986091868503E+01   4.694282E-11
    @Boys  131   5.2446986094274514E+01   4.587511E-11
    @Boys  132   5.2446986096324729E+01   3.909117E-11
    @Boys  133   5.2446986098342762E+01   3.847759E-11
    @Boys  134   5.2446986100142624E+01   3.431773E-11
    @Boys  135   5.2446986101913794E+01   3.377067E-11
    @Boys  136   5.2446986104205116E+01   4.368836E-11
    @Boys  137   5.2446986105877571E+01   3.188847E-11
    @Boys  138   5.2446986107221470E+01   2.562396E-11
    @Boys  139   5.2446986108557738E+01   2.547845E-11
    @Boys  140   5.2446986110770190E+01   4.218455E-11
    @Boys  141   5.2446986113794843E+01   5.767066E-11
    @Boys  142   5.2446986116103119E+01   4.401161E-11
    @Boys  143   5.2446986117483341E+01   2.631652E-11
    @Boys  144   5.2446986119754797E+01   4.330956E-11
    @Boys  145   5.2446986122375570E+01   4.996994E-11
    @Boys  146   5.2446986124254742E+01   3.582994E-11
    @Boys  147   5.2446986125633600E+01   2.629051E-11
    @Boys  148   5.2446986127532028E+01   3.619709E-11
    @Boys  149   5.2446986129003392E+01   2.805430E-11
    @Boys  150   5.2446986131750890E+01   5.238620E-11
    @Boys  151   5.2446986133706559E+01   3.728850E-11
    @Boys  152   5.2446986136016768E+01   4.404846E-11
    @Boys  153   5.2446986137974029E+01   3.731885E-11
    @Boys  154   5.2446986139715648E+01   3.320722E-11
    @Boys  155   5.2446986142160775E+01   4.662092E-11
    @Boys  156   5.2446986143794248E+01   3.114524E-11
    @Boys  157   5.2446986145713680E+01   3.659756E-11
    @Boys  158   5.2446986148068191E+01   4.489317E-11
    @Boys  159   5.2446986149794029E+01   3.290632E-11
    @Boys  160   5.2446986151445387E+01   3.148624E-11
    @Boys  161   5.2446986153651551E+01   4.206465E-11
    @Boys  162   5.2446986155564780E+01   3.647929E-11
    @Boys  163   5.2446986158235219E+01   5.091694E-11
    @Boys  164   5.2446986160057030E+01   3.473622E-11
    @Boys  165   5.2446986163080759E+01   5.765305E-11
    @Boys  166   5.2446986165597181E+01   4.798031E-11
    @Boys  167   5.2446986167315671E+01   3.276623E-11
    @Boys  168   5.2446986169773496E+01   4.686302E-11
    @Boys  169   5.2446986172019670E+01   4.282753E-11
    @Boys  170   5.2446986173510041E+01   2.841670E-11
    @Boys  171   5.2446986175733940E+01   4.240280E-11
    @Boys  172   5.2446986178308009E+01   4.907944E-11
    @Boys  173   5.2446986180414861E+01   4.017107E-11
    @Boys  174   5.2446986181920806E+01   2.871367E-11
    @Boys  175   5.2446986184491458E+01   4.901428E-11
    @Boys  176   5.2446986186736645E+01   4.280870E-11
    @Boys  177   5.2446986188937970E+01   4.197239E-11
    @Boys  178   5.2446986190544017E+01   3.062229E-11
    @Boys  179   5.2446986192396231E+01   3.531594E-11
    @Boys  180   5.2446986194599376E+01   4.200707E-11
    @Boys  181   5.2446986196826145E+01   4.245754E-11
    @Boys  182   5.2446986198498337E+01   3.188346E-11
    @Boys  183   5.2446986200043767E+01   2.946653E-11
    @Boys  184   5.2446986202332482E+01   4.363864E-11
    @Boys  185   5.2446986205427457E+01   5.901149E-11
    @Boys  186   5.2446986207147404E+01   3.279401E-11
    @Boys  187   5.2446986209038030E+01   3.604833E-11
    @Boys  188   5.2446986210876922E+01   3.506191E-11
    @Boys  189   5.2446986213050472E+01   4.144281E-11
    @Boys  190   5.2446986214995050E+01   3.707702E-11
    @Boys  191   5.2446986216821145E+01   3.481792E-11
    @Boys  192   5.2446986219401211E+01   4.919379E-11
    @Boys  193   5.2446986221491585E+01   3.985690E-11
    @Boys  194   5.2446986223956237E+01   4.699321E-11
    @Boys  195   5.2446986225810200E+01   3.534926E-11
    @Boys  196   5.2446986227429882E+01   3.088227E-11
    @Boys  197   5.2446986229952145E+01   4.809167E-11
    @Boys  198   5.2446986231395869E+01   2.752729E-11
    @Boys  199   5.2446986233258890E+01   3.552200E-11
    @Boys  200   5.2446986235617594E+01   4.497310E-11
    @Boys  201   5.2446986236982561E+01   2.602565E-11
    @Boys  202   5.2446986239194487E+01   4.217452E-11
    @Boys  203   5.2446986240657161E+01   2.788861E-11
    @Boys  204   5.2446986242686556E+01   3.869422E-11
    @Boys  205   5.2446986244142799E+01   2.776600E-11
    @Boys  206   5.2446986246279046E+01   4.073154E-11
    @Boys  207   5.2446986249274417E+01   5.711236E-11
    @Boys  208   5.2446986250816622E+01   2.940502E-11
    @Boys  209   5.2446986252931929E+01   4.033229E-11
    @Boys  210   5.2446986254203466E+01   2.424424E-11
    @Boys  211   5.2446986255710634E+01   2.873697E-11
    @Boys  212   5.2446986257856850E+01   4.092162E-11
    @Boys  213   5.2446986260286096E+01   4.631813E-11
    @Boys  214   5.2446986262118415E+01   3.493660E-11
    @Boys  215   5.2446986264582691E+01   4.698603E-11
    @Boys  216   5.2446986266504787E+01   3.664836E-11
    @Boys  217   5.2446986269339085E+01   5.404120E-11
    @Boys  218   5.2446986271429317E+01   3.985419E-11
    @Boys  219   5.2446986274015920E+01   4.931843E-11
    @Boys  220   5.2446986276368399E+01   4.485442E-11
    @Boys  221   5.2446986278948216E+01   4.918905E-11
    @Boys  222   5.2446986281231716E+01   4.353920E-11
    @Boys  223   5.2446986282887352E+01   3.156779E-11
    @Boys  224   5.2446986284959621E+01   3.951170E-11
    @Boys  225   5.2446986287573438E+01   4.983731E-11
    @Boys  226   5.2446986289406269E+01   3.494635E-11
    @Boys  227   5.2446986291302018E+01   3.614601E-11
    @Boys  228   5.2446986293302750E+01   3.814770E-11
    @Boys  229   5.2446986295755160E+01   4.675979E-11
    @Boys  230   5.2446986298018103E+01   4.314726E-11
    @Boys  231   5.2446986300491183E+01   4.715389E-11
    @Boys  232   5.2446986302216928E+01   3.290456E-11
    @Boys  233   5.2446986304084461E+01   3.560803E-11
    @Boys  234   5.2446986306636482E+01   4.865906E-11
    @Boys  235   5.2446986308361133E+01   3.288369E-11
    @Boys  236   5.2446986310968072E+01   4.970617E-11
    @Boys  237   5.2446986312391587E+01   2.714199E-11
    @Boys  238   5.2446986314201638E+01   3.451201E-11
    @Boys  239   5.2446986315954852E+01   3.342832E-11
    @Boys  240   5.2446986318464340E+01   4.784808E-11
    @Boys  241   5.2446986320934052E+01   4.708968E-11
    @Boys  242   5.2446986322620539E+01   3.215604E-11
    @Boys  243   5.2446986324056617E+01   2.738151E-11
    @Boys  244   5.2446986325913109E+01   3.539749E-11
    @Boys  245   5.2446986328138621E+01   4.243356E-11
    @Boys  246   5.2446986330607075E+01   4.706570E-11
    @Boys  247   5.2446986332176344E+01   2.992105E-11
    @Boys  248   5.2446986334142551E+01   3.748941E-11
    @Boys  249   5.2446986336641245E+01   4.764229E-11
    @Boys  250   5.2446986338123430E+01   2.826063E-11
    @Boys  251   5.2446986339351618E+01   2.341769E-11
    @Boys  252   5.2446986340754179E+01   2.674246E-11
    @Boys  253   5.2446986342824857E+01   3.948135E-11
    @Boys  254   5.2446986345061077E+01   4.263772E-11
    @Boys  255   5.2446986347493137E+01   4.637178E-11
    @Boys  256   5.2446986349265579E+01   3.379492E-11
    @Boys  257   5.2446986351561719E+01   4.378021E-11
    @Boys  258   5.2446986353255113E+01   3.228772E-11
    @Boys  259   5.2446986354940449E+01   3.213409E-11
    @Boys  260   5.2446986356239158E+01   2.476231E-11
    @Boys  261   5.2446986357656158E+01   2.701776E-11
    @Boys  262   5.2446986359989452E+01   4.448863E-11
    @Boys  263   5.2446986362439517E+01   4.671508E-11
    @Boys  264   5.2446986364770439E+01   4.444338E-11
    @Boys  265   5.2446986366585627E+01   3.460996E-11
    @Boys  266   5.2446986368693473E+01   4.019004E-11
    @Boys  267   5.2446986370264625E+01   2.995696E-11
    @Boys  268   5.2446986372567899E+01   4.391623E-11
    @Boys  269   5.2446986374215847E+01   3.142121E-11
    @Boys  270   5.2446986375621236E+01   2.679638E-11
    @Boys  271   5.2446986378238044E+01   4.989435E-11
    @Boys  272   5.2446986379784050E+01   2.947750E-11
    @Boys  273   5.2446986382053502E+01   4.327136E-11
    @Boys  274   5.2446986384945696E+01   5.514508E-11
    @Boys  275   5.2446986387243633E+01   4.381449E-11
    @Boys  276   5.2446986388814501E+01   2.995154E-11
    @Boys  277   5.2446986391318781E+01   4.774878E-11
    @Boys  278   5.2446986392519420E+01   2.289244E-11
    @Boys  279   5.2446986394284920E+01   3.366256E-11
    @Boys  280   5.2446986395583814E+01   2.476584E-11
    @Boys  281   5.2446986397871989E+01   4.362834E-11
    @Boys  282   5.2446986399367823E+01   2.852089E-11
    @Boys  283   5.2446986400832699E+01   2.793061E-11
    @Boys  284   5.2446986403198430E+01   4.510709E-11
    @Boys  285   5.2446986405195887E+01   3.808525E-11
    @Boys  286   5.2446986407374943E+01   4.154780E-11
    @Boys  287   5.2446986408924850E+01   2.955188E-11
    @Boys  288   5.2446986410718843E+01   3.420583E-11
    @Boys  289   5.2446986413450801E+01   5.208991E-11
    @Boys  290   5.2446986414748473E+01   2.474253E-11
    @Boys  291   5.2446986416652450E+01   3.630289E-11
    @Boys  292   5.2446986418565508E+01   3.647604E-11
    @Boys  293   5.2446986421512406E+01   5.618813E-11
    @Boys  294   5.2446986422856014E+01   2.561840E-11
    @Boys  295   5.2446986425197480E+01   4.464443E-11
    @Boys  296   5.2446986427060047E+01   3.551333E-11
    @Boys  297   5.2446986429192648E+01   4.066204E-11
    @Boys  298   5.2446986431386300E+01   4.182607E-11
    @Boys  299   5.2446986433241605E+01   3.537487E-11
    @Boys  300   5.2446986434675274E+01   2.733559E-11
    @Boys  301   5.2446986436863824E+01   4.172880E-11
    @Boys  302   5.2446986439385945E+01   4.808896E-11
    @Boys  303   5.2446986440718717E+01   2.541180E-11
    @Boys  304   5.2446986442004281E+01   2.451168E-11
    @Boys  305   5.2446986444512675E+01   4.782722E-11
    @Boys  306   5.2446986446384500E+01   3.568986E-11
    @Boys  307   5.2446986448854503E+01   4.709523E-11
    @Boys  308   5.2446986450232174E+01   2.626788E-11
    @Boys  309   5.2446986452402832E+01   4.138767E-11
    @Boys  310   5.2446986455011753E+01   4.974397E-11
    @Boys  311   5.2446986456598168E+01   3.024796E-11
    @Boys  312   5.2446986458369679E+01   3.377717E-11
    @Boys  313   5.2446986459961984E+01   3.036028E-11
    @Boys  314   5.2446986461963995E+01   3.817209E-11
    @Boys  315   5.2446986463568372E+01   3.059045E-11
    @Boys  316   5.2446986466196549E+01   5.011111E-11
    @Boys  317   5.2446986468488255E+01   4.369567E-11
    @Boys  318   5.2446986470158109E+01   3.183889E-11
    @Boys  319   5.2446986471599658E+01   2.748583E-11
    @Boys  320   5.2446986474268044E+01   5.087778E-11
    @Boys  321   5.2446986476480284E+01   4.218048E-11
    @Boys  322   5.2446986478143508E+01   3.171248E-11
    @Boys  323   5.2446986480341941E+01   4.191725E-11
    @Boys  324   5.2446986482646011E+01   4.393141E-11
    @Boys  325   5.2446986485049379E+01   4.582471E-11
    @Boys  326   5.2446986486353190E+01   2.485959E-11
    @Boys  327   5.2446986488320100E+01   3.750283E-11
    @Boys  328   5.2446986490329422E+01   3.831150E-11
    @Boys  329   5.2446986492727916E+01   4.573178E-11
    @Boys  330   5.2446986494542458E+01   3.459763E-11
    @Boys  331   5.2446986495924534E+01   2.635188E-11
    @Boys  332   5.2446986498097033E+01   4.142275E-11
    @Boys  333   5.2446986501003636E+01   5.541983E-11
    @Boys  334   5.2446986503189301E+01   4.167380E-11
    @Boys  335   5.2446986504699943E+01   2.880322E-11
    @Boys  336   5.2446986506303084E+01   3.056688E-11
    @Boys  337   5.2446986507862064E+01   2.972488E-11
    @Boys  338   5.2446986509360968E+01   2.857941E-11
    @Boys  339   5.2446986511752712E+01   4.560307E-11
    @Boys  340   5.2446986513661791E+01   3.640017E-11
    @Boys  341   5.2446986515868154E+01   4.206844E-11
    @Boys  342   5.2446986518137244E+01   4.326445E-11
    @Boys  343   5.2446986520550951E+01   4.602184E-11
    @Boys  344   5.2446986522003300E+01   2.769176E-11
    @Boys  345   5.2446986524342066E+01   4.459295E-11
    @Boys  346   5.2446986526631086E+01   4.364446E-11
    @Boys  347   5.2446986528730996E+01   4.003871E-11
    @Boys  348   5.2446986529969237E+01   2.360939E-11
    @Boys  349   5.2446986532287553E+01   4.420304E-11
    @Boys  350   5.2446986535272913E+01   5.692147E-11
    @Boys  351   5.2446986537547325E+01   4.336592E-11
    @Boys  352   5.2446986539172258E+01   3.098239E-11
    @Boys  353   5.2446986540769480E+01   3.045403E-11
    @Boys  354   5.2446986543204865E+01   4.643518E-11
    @Boys  355   5.2446986545266974E+01   3.931796E-11
    @Boys  356   5.2446986547110264E+01   3.514577E-11
    @Boys  357   5.2446986550113806E+01   5.726816E-11
    @Boys  358   5.2446986552605296E+01   4.750492E-11
    @Boys  359   5.2446986554214220E+01   3.067716E-11
    @Boys  360   5.2446986555596006E+01   2.634632E-11
    @Boys  361   5.2446986557664118E+01   3.943244E-11
    @Boys  362   5.2446986559901923E+01   4.266793E-11
    @Boys  363   5.2446986561294096E+01   2.654439E-11
    @Boys  364   5.2446986562919193E+01   3.098551E-11
    @Boys  365   5.2446986565460179E+01   4.844866E-11
    @Boys  366   5.2446986567075378E+01   3.079679E-11
    @Boys  367   5.2446986569189050E+01   4.030113E-11
    @Boys  368   5.2446986571513115E+01   4.431264E-11
    @Boys  369   5.2446986573950873E+01   4.648043E-11
    @Boys  370   5.2446986575302624E+01   2.577366E-11
    @Boys  371   5.2446986577295021E+01   3.798879E-11
    @Boys  372   5.2446986578800065E+01   2.869647E-11
    @Boys  373   5.2446986581278317E+01   4.725252E-11
    @Boys  374   5.2446986583636004E+01   4.495372E-11
    @Boys  375   5.2446986585101783E+01   2.794781E-11
    @Boys  376   5.2446986587386505E+01   4.356250E-11
    @Boys  377   5.2446986589812809E+01   4.626204E-11
    @Boys  378   5.2446986591359369E+01   2.948807E-11
    @Boys  379   5.2446986593137780E+01   3.390872E-11
    @Boys  380   5.2446986595123690E+01   3.786509E-11
    @Boys  381   5.2446986596432765E+01   2.495998E-11
    @Boys  382   5.2446986598551248E+01   4.039285E-11
    @Boys  383   5.2446986600866303E+01   4.414085E-11
    @Boys  384   5.2446986602969865E+01   4.010834E-11
    @Boys  385   5.2446986604439942E+01   2.802978E-11
    @Boys  386   5.2446986605640255E+01   2.288621E-11
    @Boys  387   5.2446986607878742E+01   4.268094E-11
    @Boys  388   5.2446986609696978E+01   3.466808E-11
    @Boys  389   5.2446986611575582E+01   3.581910E-11
    @Boys  390   5.2446986613457256E+01   3.587763E-11
    @Boys  391   5.2446986615530619E+01   3.953256E-11
    @Boys  392   5.2446986617318665E+01   3.409243E-11
    @Boys  393   5.2446986619831620E+01   4.791420E-11
    @Boys  394   5.2446986621317933E+01   2.833935E-11
    @Boys  395   5.2446986623779750E+01   4.693916E-11
    @Boys  396   5.2446986625625335E+01   3.518953E-11
    @Boys  397   5.2446986627752139E+01   4.055149E-11
    @Boys  398   5.2446986629487434E+01   3.308664E-11
    @Boys  399   5.2446986631022298E+01   2.926507E-11
    @Boys  400   5.2446986633079078E+01   3.921635E-11
    @Boys  401   5.2446986634841579E+01   3.360539E-11
    @Boys  402   5.2446986636998020E+01   4.111657E-11
    @Boys  403   5.2446986639376895E+01   4.535772E-11
    @Boys  404   5.2446986640976640E+01   3.050212E-11
    @Boys  405   5.2446986642909955E+01   3.686228E-11
    @Boys  406   5.2446986644745337E+01   3.499499E-11
    @Boys  407   5.2446986647109618E+01   4.507945E-11
    @Boys  408   5.2446986648557811E+01   2.761250E-11
    @Boys  409   5.2446986650168647E+01   3.071360E-11
    @Boys  410   5.2446986651493084E+01   2.525288E-11
    @Boys  411   5.2446986653903195E+01   4.595328E-11
    @Boys  412   5.2446986656345530E+01   4.656768E-11
    @Boys  413   5.2446986658496677E+01   4.101564E-11
    @Boys  414   5.2446986660354533E+01   3.542350E-11
    @Boys  415   5.2446986662709236E+01   4.489682E-11
    @Boys  416   5.2446986664698954E+01   3.793771E-11
    @Boys  417   5.2446986666411391E+01   3.265081E-11
    @Boys  418   5.2446986667900809E+01   2.839855E-11
    @Boys  419   5.2446986670275898E+01   4.528551E-11
    @Boys  420   5.2446986671929182E+01   3.152295E-11
    @Boys  421   5.2446986673738557E+01   3.449914E-11
    @Boys  422   5.2446986676232761E+01   4.755667E-11
    @Boys  423   5.2446986678451644E+01   4.230716E-11
    @Boys  424   5.2446986680742000E+01   4.366993E-11
    @Boys  425   5.2446986682642006E+01   3.622716E-11
    @Boys  426   5.2446986684471177E+01   3.487658E-11
    @Boys  427   5.2446986685938967E+01   2.798615E-11
    @Boys  428   5.2446986688589732E+01   5.054180E-11
    @Boys  429   5.2446986690276624E+01   3.216376E-11
    @Boys  430   5.2446986692456612E+01   4.156555E-11
    @Boys  431   5.2446986694046828E+01   3.032044E-11
    @Boys  432   5.2446986696660417E+01   4.983297E-11
    @Boys  433   5.2446986698901341E+01   4.272741E-11
    @Boys  434   5.2446986700450644E+01   2.954036E-11
    @Boys  435   5.2446986701962416E+01   2.882476E-11
    @Boys  436   5.2446986703348415E+01   2.642666E-11
    @Boys  437   5.2446986705123159E+01   3.383882E-11
    @Boys  438   5.2446986706685891E+01   2.979641E-11
    @Boys  439   5.2446986708802932E+01   4.036535E-11
    @Boys  440   5.2446986711464881E+01   5.075504E-11
    @Boys  441   5.2446986713698266E+01   4.258367E-11
    @Boys  442   5.2446986715529604E+01   3.491790E-11
    @Boys  443   5.2446986717474857E+01   3.708989E-11
    @Boys  444   5.2446986719655726E+01   4.158235E-11
    @Boys  445   5.2446986722135826E+01   4.728774E-11
    @Boys  446   5.2446986723841015E+01   3.251262E-11
    @Boys  447   5.2446986725483114E+01   3.130971E-11
    @Boys  448   5.2446986727638972E+01   4.110546E-11
    @Boys  449   5.2446986729171584E+01   2.922212E-11
    @Boys  450   5.2446986730977891E+01   3.444061E-11
    @Boys  451   5.2446986733263216E+01   4.357401E-11
    @Boys  452   5.2446986735521165E+01   4.305202E-11
    @Boys  453   5.2446986736812484E+01   2.462142E-11
    @Boys  454   5.2446986739414491E+01   4.961214E-11
    @Boys  455   5.2446986741662357E+01   4.285977E-11
    @Boys  456   5.2446986743544414E+01   3.588494E-11
    @Boys  457   5.2446986744967653E+01   2.713671E-11
    @Boys  458   5.2446986746227211E+01   2.401583E-11
    @Boys  459   5.2446986748319325E+01   3.989009E-11
    @Boys  460   5.2446986750377235E+01   3.923790E-11
    @Boys  461   5.2446986752341175E+01   3.744620E-11
    @Boys  462   5.2446986753866938E+01   2.909152E-11
    @Boys  463   5.2446986756250858E+01   4.545391E-11
    @Boys  464   5.2446986758162069E+01   3.644081E-11
    @Boys  465   5.2446986760756957E+01   4.947640E-11
    @Boys  466   5.2446986762187827E+01   2.728221E-11
    @Boys  467   5.2446986764377684E+01   4.175373E-11
    @Boys  468   5.2446986765908520E+01   2.918825E-11
    @Boys  469   5.2446986767681736E+01   3.380969E-11
    @Boys  470   5.2446986770051303E+01   4.518024E-11
    @Boys  471   5.2446986771844408E+01   3.418889E-11
    @Boys  472   5.2446986773443804E+01   3.049548E-11
    @Boys  473   5.2446986774937166E+01   2.847374E-11
    @Boys  474   5.2446986777600330E+01   5.077821E-11
    @Boys  475   5.2446986779466812E+01   3.558798E-11
    @Boys  476   5.2446986781533610E+01   3.940738E-11
    @Boys  477   5.2446986783827981E+01   4.374648E-11
    @Boys  478   5.2446986786722753E+01   5.519426E-11
    @Boys  479   5.2446986787988763E+01   2.413884E-11
    @Boys  480   5.2446986789871886E+01   3.590527E-11
    @Boys  481   5.2446986791751428E+01   3.583698E-11
    @Boys  482   5.2446986793957855E+01   4.206966E-11
    @Boys  483   5.2446986795804968E+01   3.521866E-11
    @Boys  484   5.2446986798324815E+01   4.804561E-11
    @Boys  485   5.2446986800506508E+01   4.159806E-11
    @Boys  486   5.2446986802191937E+01   3.213585E-11
    @Boys  487   5.2446986803431258E+01   2.362999E-11
    @Boys  488   5.2446986805876982E+01   4.663230E-11
    @Boys  489   5.2446986807433419E+01   2.967638E-11
    @Boys  490   5.2446986809768852E+01   4.452941E-11
    @Boys  491   5.2446986812096490E+01   4.438079E-11
    @Boys  492   5.2446986814953227E+01   5.446904E-11
    @Boys  493   5.2446986816266296E+01   2.503611E-11
    @Boys  494   5.2446986818099361E+01   3.495082E-11
    @Boys  495   5.2446986819496608E+01   2.664113E-11
    @Boys  496   5.2446986821721538E+01   4.242245E-11
    @Boys  497   5.2446986823936477E+01   4.223197E-11
    @Boys  498   5.2446986826171219E+01   4.260954E-11
    @Boys  499   5.2446986829058460E+01   5.505065E-11
    @Boys  500   5.2446986830549861E+01   2.843635E-11
    @Boys  501   5.2446986832541477E+01   3.797388E-11
    @Boys  502   5.2446986833941224E+01   2.668881E-11
    @Boys  503   5.2446986835528300E+01   3.026056E-11
    @Boys  504   5.2446986837803955E+01   4.338963E-11
    @Boys  505   5.2446986840847835E+01   5.803727E-11
    @Boys  506   5.2446986842261275E+01   2.694988E-11
    @Boys  507   5.2446986844250247E+01   3.792349E-11
    @Boys  508   5.2446986847101634E+01   5.436703E-11
    @Boys  509   5.2446986848775552E+01   3.191638E-11
    @Boys  510   5.2446986850650255E+01   3.574472E-11
    @Boys  511   5.2446986852670364E+01   3.851715E-11
    @Boys  512   5.2446986855035810E+01   4.510167E-11
    @Boys  513   5.2446986857141688E+01   4.015251E-11
    @Boys  514   5.2446986858514350E+01   2.617237E-11
    @Boys  515   5.2446986860911665E+01   4.570929E-11
    @Boys  516   5.2446986862325225E+01   2.695218E-11
    @Boys  517   5.2446986864018058E+01   3.227702E-11
    @Boys  518   5.2446986865685737E+01   3.179743E-11
    @Boys  519   5.2446986867938143E+01   4.294634E-11
    @Boys  520   5.2446986869468802E+01   2.918487E-11
    @Boys  521   5.2446986871202988E+01   3.306551E-11
    @Boys  522   5.2446986872903359E+01   3.242076E-11
    @Boys  523   5.2446986875328641E+01   4.624253E-11
    @Boys  524   5.2446986877925902E+01   4.952165E-11
    @Boys  525   5.2446986879628419E+01   3.246168E-11
    @Boys  526   5.2446986881083397E+01   2.774189E-11
    @Boys  527   5.2446986883458287E+01   4.528172E-11
    @Boys  528   5.2446986885846222E+01   4.553046E-11
    @Boys  529   5.2446986888112647E+01   4.321364E-11
    @Boys  530   5.2446986890303890E+01   4.178015E-11
    @Boys  531   5.2446986891887931E+01   3.020271E-11
    @Boys  532   5.2446986894145468E+01   4.304416E-11
    @Boys  533   5.2446986896739283E+01   4.945594E-11
    @Boys  534   5.2446986898345905E+01   3.063326E-11
    @Boys  535   5.2446986900232126E+01   3.596433E-11
    @Boys  536   5.2446986902640248E+01   4.591535E-11
    @Boys  537   5.2446986904414146E+01   3.382269E-11
    @Boys  538   5.2446986906572597E+01   4.115491E-11
    @Boys  539   5.2446986908726274E+01   4.106387E-11
    @Boys  540   5.2446986910741629E+01   3.842652E-11
    @Boys  541   5.2446986913460435E+01   5.183914E-11
    @Boys  542   5.2446986915590720E+01   4.061788E-11
    @Boys  543   5.2446986917185086E+01   3.039956E-11
    @Boys  544   5.2446986919387186E+01   4.198716E-11
    @Boys  545   5.2446986920566751E+01   2.249061E-11
    @Boys  546   5.2446986922010154E+01   2.752119E-11
    @Boys  547   5.2446986924723078E+01   5.172696E-11
    @Boys  548   5.2446986925986494E+01   2.408939E-11
    @Boys  549   5.2446986927967920E+01   3.777961E-11
    @Boys  550   5.2446986930067780E+01   4.003776E-11
    @Boys  551   5.2446986932332685E+01   4.318465E-11
    @Boys  552   5.2446986933973356E+01   3.128248E-11
    @Boys  553   5.2446986936083434E+01   4.023258E-11
    @Boys  554   5.2446986937547535E+01   2.791584E-11
    @Boys  555   5.2446986939471728E+01   3.668833E-11
    @Boys  556   5.2446986941885932E+01   4.603132E-11
    @Boys  557   5.2446986943574338E+01   3.219262E-11
    @Boys  558   5.2446986945201523E+01   3.102534E-11
    @Boys  559   5.2446986947036720E+01   3.499146E-11
    @Boys  560   5.2446986948256189E+01   2.325146E-11
    @Boys  561   5.2446986950024019E+01   3.370699E-11
    @Boys  562   5.2446986951553257E+01   2.915777E-11
    @Boys  563   5.2446986953698620E+01   4.090536E-11
    @Boys  564   5.2446986955381995E+01   3.209670E-11
    @Boys  565   5.2446986957969827E+01   4.934187E-11
    @Boys  566   5.2446986960331074E+01   4.502160E-11
    @Boys  567   5.2446986962095856E+01   3.364887E-11
    @Boys  568   5.2446986963624617E+01   2.914869E-11
    @Boys  569   5.2446986965186206E+01   2.977460E-11
    @Boys  570   5.2446986967457605E+01   4.330848E-11
    @Boys  571   5.2446986969640513E+01   4.162123E-11
    @Boys  572   5.2446986971250084E+01   3.068949E-11
    @Boys  573   5.2446986973440865E+01   4.177134E-11
    @Boys  574   5.2446986975276346E+01   3.499688E-11
    @Boys  575   5.2446986977292980E+01   3.845090E-11
    @Boys  576   5.2446986978914410E+01   3.091560E-11
    @Boys  577   5.2446986981337886E+01   4.620812E-11
    @Boys  578   5.2446986982949227E+01   3.072322E-11
    @Boys  579   5.2446986984512890E+01   2.981416E-11
    @Boys  580   5.2446986985833149E+01   2.517322E-11
    @Boys  581   5.2446986988427426E+01   4.946474E-11
    @Boys  582   5.2446986990568092E+01   4.081581E-11
    @Boys  583   5.2446986992942435E+01   4.527129E-11
    @Boys  584   5.2446986995162128E+01   4.232260E-11
    @Boys  585   5.2446986996679918E+01   2.893951E-11
    @Boys  586   5.2446986998588535E+01   3.639136E-11
    @Boys  587   5.2446987000660435E+01   3.950465E-11
    @Boys  588   5.2446987003199460E+01   4.841127E-11
    @Boys  589   5.2446987004864347E+01   3.174419E-11
    @Boys  590   5.2446987006429879E+01   2.984979E-11
    @Boys  591   5.2446987007812744E+01   2.636692E-11
    @Boys  592   5.2446987009649554E+01   3.502222E-11
    @Boys  593   5.2446987011085966E+01   2.738788E-11
    @Boys  594   5.2446987012548426E+01   2.788455E-11
    @Boys  595   5.2446987014156072E+01   3.065277E-11
    @Boys  596   5.2446987016233763E+01   3.961507E-11
    @Boys  597   5.2446987017689068E+01   2.774812E-11
    @Boys  598   5.2446987019842567E+01   4.106048E-11
    @Boys  599   5.2446987022580998E+01   5.221333E-11
    @Boys  600   5.2446987024149145E+01   2.989965E-11
    @Boys  601   5.2446987025496455E+01   2.568898E-11
    @Boys  602   5.2446987027168845E+01   3.188725E-11
    @Boys  603   5.2446987029305625E+01   4.074170E-11
    @Boys  604   5.2446987031120095E+01   3.459627E-11
    @Boys  605   5.2446987033386030E+01   4.320429E-11
    @Boys  606   5.2446987034855312E+01   2.801460E-11
    @Boys  607   5.2446987037109913E+01   4.298821E-11
    @Boys  608   5.2446987038837939E+01   3.294805E-11
    @Boys  609   5.2446987041068134E+01   4.252284E-11
    @Boys  610   5.2446987042280270E+01   2.311165E-11
    @Boys  611   5.2446987044073353E+01   3.418848E-11
    @Boys  612   5.2446987046516348E+01   4.658028E-11
    @Boys  613   5.2446987047823498E+01   2.492326E-11
    @Boys  614   5.2446987050023409E+01   4.194543E-11
    @Boys  615   5.2446987052194089E+01   4.138807E-11
    @Boys  616   5.2446987053736230E+01   2.940380E-11
    @Boys  617   5.2446987055450023E+01   3.267668E-11
    @Boys  618   5.2446987057260294E+01   3.451621E-11
    @Boys  619   5.2446987059561657E+01   4.387979E-11
    @Boys  620   5.2446987061648656E+01   3.979254E-11
    @Boys  621   5.2446987062963750E+01   2.507473E-11
    @Boys  622   5.2446987064240275E+01   2.433935E-11
    @Boys  623   5.2446987065566908E+01   2.529474E-11
    @Boys  624   5.2446987066910822E+01   2.562423E-11
    @Boys  625   5.2446987068661819E+01   3.338605E-11
    @Boys  626   5.2446987071078908E+01   4.608632E-11
    @Boys  627   5.2446987072828932E+01   3.336749E-11
    @Boys  628   5.2446987074966366E+01   4.075417E-11
    @Boys  629   5.2446987076966039E+01   3.812752E-11
    @Boys  630   5.2446987079061088E+01   3.994604E-11
    @Boys  631   5.2446987080895319E+01   3.497304E-11
    @Boys  632   5.2446987082800973E+01   3.633487E-11
    @Boys  633   5.2446987085313197E+01   4.790024E-11
    @Boys  634   5.2446987087834621E+01   4.807569E-11
    @Boys  635   5.2446987089895472E+01   3.929398E-11
    @Boys  636   5.2446987091599787E+01   3.249595E-11
    @Boys  637   5.2446987093296229E+01   3.234584E-11
    @Boys  638   5.2446987095451270E+01   4.108988E-11
    @Boys  639   5.2446987097497619E+01   3.901747E-11
    @Boys  640   5.2446987099294802E+01   3.426666E-11
    @Boys  641   5.2446987100744160E+01   2.763472E-11
    @Boys  642   5.2446987102698266E+01   3.725869E-11
    @Boys  643   5.2446987104586618E+01   3.600498E-11
    @Boys  644   5.2446987106879654E+01   4.372101E-11
    @Boys  645   5.2446987108581041E+01   3.244014E-11
    @Boys  646   5.2446987109836016E+01   2.392844E-11
    @Boys  647   5.2446987112658917E+01   5.382389E-11
    @Boys  648   5.2446987114175229E+01   2.891133E-11
    @Boys  649   5.2446987116237139E+01   3.931417E-11
    @Boys  650   5.2446987118316876E+01   3.965408E-11
    @Boys  651   5.2446987119755065E+01   2.742175E-11
    @Boys  652   5.2446987121912152E+01   4.112890E-11
    @Boys  653   5.2446987123116891E+01   2.297061E-11
    @Boys  654   5.2446987125215607E+01   4.001595E-11
    @Boys  655   5.2446987127481144E+01   4.319671E-11
    @Boys  656   5.2446987129388376E+01   3.636494E-11
    @Boys  657   5.2446987131628347E+01   4.270926E-11
    @Boys  658   5.2446987133180414E+01   2.959306E-11
    @Boys  659   5.2446987135425921E+01   4.281479E-11
    @Boys  660   5.2446987137453974E+01   3.866862E-11
    @Boys  661   5.2446987139740465E+01   4.359623E-11
    @Boys  662   5.2446987141833603E+01   3.990960E-11
    @Boys  663   5.2446987143392491E+01   2.972312E-11
    @Boys  664   5.2446987144830018E+01   2.740915E-11
    @Boys  665   5.2446987146903382E+01   3.953256E-11
    @Boys  666   5.2446987148766688E+01   3.552742E-11
    @Boys  667   5.2446987150465411E+01   3.238933E-11
    @Boys  668   5.2446987152660490E+01   4.185330E-11
    @Boys  669   5.2446987154917558E+01   4.303522E-11
    @Boys  670   5.2446987157247030E+01   4.441574E-11
    @Boys  671   5.2446987158790783E+01   2.943455E-11
    @Boys  672   5.2446987160698065E+01   3.636589E-11
    @Boys  673   5.2446987162451968E+01   3.344146E-11
    @Boys  674   5.2446987164354830E+01   3.628162E-11
    @Boys  675   5.2446987165945039E+01   3.032031E-11
    @Boys  676   5.2446987167225259E+01   2.440980E-11
    @Boys  677   5.2446987169382517E+01   4.113215E-11
    @Boys  678   5.2446987171917975E+01   4.834325E-11
    @Boys  679   5.2446987173148578E+01   2.346375E-11
    @Boys  680   5.2446987174883731E+01   3.308393E-11
    @Boys  681   5.2446987176566594E+01   3.208695E-11
    @Boys  682   5.2446987178146003E+01   3.011438E-11
    @Boys  683   5.2446987180447053E+01   4.387383E-11
    @Boys  684   5.2446987182187257E+01   3.318026E-11
    @Boys  685   5.2446987183881753E+01   3.230872E-11
    @Boys  686   5.2446987185702255E+01   3.471130E-11
    @Boys  687   5.2446987188100813E+01   4.573299E-11
    @Boys  688   5.2446987189489761E+01   2.648289E-11
    @Boys  689   5.2446987191770411E+01   4.348487E-11
    @Boys  690   5.2446987193049615E+01   2.439042E-11
    @Boys  691   5.2446987194966866E+01   3.655597E-11
    @Boys  692   5.2446987196839636E+01   3.570787E-11
    @Boys  693   5.2446987198865976E+01   3.863597E-11
    @Boys  694   5.2446987200886014E+01   3.851580E-11
    @Boys  695   5.2446987202339322E+01   2.771005E-11
    @Boys  696   5.2446987205012107E+01   5.096164E-11
    @Boys  697   5.2446987206378431E+01   2.605152E-11
    @Boys  698   5.2446987207932153E+01   2.962463E-11
    @Boys  699   5.2446987210320941E+01   4.554671E-11
    @Boys  700   5.2446987212261604E+01   3.700237E-11
    @Boys  701   5.2446987214165077E+01   3.629328E-11
    @Boys  702   5.2446987216383562E+01   4.229957E-11
    @Boys  703   5.2446987218691426E+01   4.400375E-11
    @Boys  704   5.2446987219827903E+01   2.166907E-11
    @Boys  705   5.2446987221874281E+01   3.901801E-11
    @Boys  706   5.2446987224286680E+01   4.599691E-11
    @Boys  707   5.2446987226113684E+01   3.483526E-11
    @Boys  708   5.2446987227648663E+01   2.926724E-11
    @Boys  709   5.2446987229898482E+01   4.289703E-11
    @Boys  710   5.2446987232363625E+01   4.700256E-11
    @Boys  711   5.2446987233591400E+01   2.340983E-11
    @Boys  712   5.2446987235663521E+01   3.950885E-11
    @Boys  713   5.2446987237891847E+01   4.248721E-11
    @Boys  714   5.2446987240003821E+01   4.026875E-11
    @Boys  715   5.2446987241603736E+01   3.050537E-11
    @Boys  716   5.2446987243718397E+01   4.031996E-11
    @Boys  717   5.2446987246350602E+01   5.018793E-11
    @Boys  718   5.2446987247980779E+01   3.108237E-11
    @Boys  719   5.2446987249867099E+01   3.596623E-11
    @Boys  720   5.2446987252012292E+01   4.090211E-11
    @Boys  721   5.2446987253278188E+01   2.413667E-11
    @Boys  722   5.2446987254632333E+01   2.581931E-11
    @Boys  723   5.2446987256845631E+01   4.220067E-11
    @Boys  724   5.2446987258394813E+01   2.953806E-11
    @Boys  725   5.2446987259758949E+01   2.600980E-11
    @Boys  726   5.2446987262330069E+01   4.902322E-11
    @Boys  727   5.2446987264245834E+01   3.652765E-11
    @Boys  728   5.2446987266028522E+01   3.399028E-11
    @Boys  729   5.2446987267275738E+01   2.378050E-11
    @Boys  730   5.2446987270014645E+01   5.222240E-11
    @Boys  731   5.2446987271500902E+01   2.833826E-11
    @Boys  732   5.2446987273336774E+01   3.500433E-11
    @Boys  733   5.2446987274928830E+01   3.035553E-11
    @Boys  734   5.2446987276636008E+01   3.255055E-11
    @Boys  735   5.2446987278039927E+01   2.676834E-11
    @Boys  736   5.2446987279266153E+01   2.338030E-11
    @Boys  737   5.2446987281680279E+01   4.602983E-11
    @Boys  738   5.2446987283134298E+01   2.772360E-11
    @Boys  739   5.2446987285165498E+01   3.872863E-11
    @Boys  740   5.2446987287591739E+01   4.626082E-11
    @Boys  741   5.2446987289670759E+01   3.964040E-11
    @Boys  742   5.2446987291057106E+01   2.643330E-11
    @Boys  743   5.2446987293854974E+01   5.334660E-11
    @Boys  744   5.2446987295520366E+01   3.175380E-11
    @Boys  745   5.2446987297058939E+01   2.933579E-11
    @Boys  746   5.2446987298514571E+01   2.775435E-11
    @Boys  747   5.2446987300726001E+01   4.216504E-11
    @Boys  748   5.2446987302258030E+01   2.921101E-11
    @Boys  749   5.2446987304702070E+01   4.660019E-11
    @Boys  750   5.2446987306847774E+01   4.091186E-11
    @Boys  751   5.2446987308885937E+01   3.886140E-11
    @Boys  752   5.2446987310425747E+01   2.935936E-11
    @Boys  753   5.2446987311881109E+01   2.774920E-11
    @Boys  754   5.2446987313499434E+01   3.085640E-11
    @Boys  755   5.2446987315602563E+01   4.010008E-11
    @Boys  756   5.2446987316884979E+01   2.445166E-11
    @Boys  757   5.2446987319397017E+01   4.789672E-11
    @Boys  758   5.2446987321283267E+01   3.596488E-11
    @Boys  759   5.2446987323715398E+01   4.637313E-11
    @Boys  760   5.2446987325275501E+01   2.974629E-11
    @Boys  761   5.2446987326867159E+01   3.034795E-11
    @Boys  762   5.2446987328262011E+01   2.659547E-11
    @Boys  763   5.2446987329653219E+01   2.652597E-11
    @Boys  764   5.2446987332453951E+01   5.340120E-11
    @Boys  765   5.2446987334130171E+01   3.196027E-11
    @Boys  766   5.2446987335698630E+01   2.990561E-11
    @Boys  767   5.2446987337330789E+01   3.112017E-11
    @Boys  768   5.2446987339431516E+01   4.005429E-11
    @Boys  769   5.2446987341120327E+01   3.220034E-11
    @Boys  770   5.2446987343032298E+01   3.645531E-11
    @Boys  771   5.2446987344240362E+01   2.303402E-11
    @Boys  772   5.2446987346065114E+01   3.479231E-11
    @Boys  773   5.2446987347645909E+01   3.014080E-11
    @Boys  774   5.2446987349299029E+01   3.151983E-11
    @Boys  775   5.2446987350954508E+01   3.156481E-11
    @Boys  776   5.2446987353093895E+01   4.079142E-11
    @Boys  777   5.2446987354692951E+01   3.048898E-11
    @Boys  778   5.2446987356215040E+01   2.902148E-11
    @Boys  779   5.2446987357965185E+01   3.336979E-11
    @Boys  780   5.2446987360659641E+01   5.137485E-11
    @Boys  781   5.2446987363046105E+01   4.550241E-11
    @Boys  782   5.2446987364564464E+01   2.895035E-11
    @Boys  783   5.2446987366438314E+01   3.572847E-11
    @Boys  784   5.2446987368898306E+01   4.690434E-11
    @Boys  785   5.2446987371059137E+01   4.120030E-11
    @Boys  786   5.2446987372640692E+01   3.015530E-11
    @Boys  787   5.2446987374672148E+01   3.873351E-11
    @Boys  788   5.2446987376692903E+01   3.852948E-11
    @Boys  789   5.2446987378010370E+01   2.511998E-11
    @Boys  790   5.2446987380325048E+01   4.413367E-11
    @Boys  791   5.2446987382017916E+01   3.227770E-11
    @Boys  792   5.2446987384030692E+01   3.837734E-11
    @Boys  793   5.2446987385350013E+01   2.515534E-11
    @Boys  794   5.2446987387051237E+01   3.243702E-11
    @Boys  795   5.2446987388261896E+01   2.308347E-11
    @Boys  796   5.2446987389941974E+01   3.203384E-11
    @Boys  797   5.2446987391357645E+01   2.699242E-11
    @Boys  798   5.2446987393556981E+01   4.193445E-11
    @Boys  799   5.2446987395034760E+01   2.817664E-11
    @Boys  800   5.2446987397193503E+01   4.116047E-11
    @Boys  801   5.2446987398842836E+01   3.144762E-11
    @Boys  802   5.2446987400451846E+01   3.067878E-11
    @Boys  803   5.2446987402673336E+01   4.235688E-11
    @Boys  804   5.2446987404694028E+01   3.852826E-11
    @Boys  805   5.2446987406006969E+01   2.503368E-11
    @Boys  806   5.2446987408145148E+01   4.076839E-11
    @Boys  807   5.2446987410188477E+01   3.895989E-11
    @Boys  808   5.2446987412691009E+01   4.771545E-11
    @Boys  809   5.2446987414154734E+01   2.790866E-11
    @Boys  810   5.2446987416255396E+01   4.005307E-11
    @Boys  811   5.2446987417837818E+01   3.017182E-11
    @Boys  812   5.2446987419580459E+01   3.322672E-11
    @Boys  813   5.2446987420941177E+01   2.594463E-11
    @Boys  814   5.2446987423212597E+01   4.330888E-11
    @Boys  815   5.2446987425937024E+01   5.194630E-11
    @Boys  816   5.2446987427722867E+01   3.405043E-11
    @Boys  817   5.2446987429948905E+01   4.244358E-11
    @Boys  818   5.2446987431351282E+01   2.673894E-11
    @Boys  819   5.2446987432655646E+01   2.487015E-11
    @Boys  820   5.2446987434467538E+01   3.454710E-11
    @Boys  821   5.2446987435755460E+01   2.455666E-11
    @Boys  822   5.2446987437524960E+01   3.373883E-11
    @Boys  823   5.2446987438969543E+01   2.754368E-11
    @Boys  824   5.2446987440439017E+01   2.801826E-11
    @Boys  825   5.2446987441959969E+01   2.899980E-11
    @Boys  826   5.2446987444210414E+01   4.290895E-11
    @Boys  827   5.2446987446137726E+01   3.674780E-11
    @Boys  828   5.2446987447541389E+01   2.676346E-11
    @Boys  829   5.2446987449021520E+01   2.822148E-11
    @Boys  830   5.2446987451181194E+01   4.117822E-11
    @Boys  831   5.2446987453190957E+01   3.831989E-11
    @Boys  832   5.2446987454822853E+01   3.111516E-11
    @Boys  833   5.2446987456454323E+01   3.110703E-11
    @Boys  834   5.2446987458578946E+01   4.050990E-11
    @Boys  835   5.2446987460138409E+01   2.973409E-11
    @Boys  836   5.2446987461344705E+01   2.300028E-11
    @Boys  837   5.2446987463235196E+01   3.604576E-11
    @Boys  838   5.2446987464736480E+01   2.862480E-11
    @Boys  839   5.2446987466984460E+01   4.286194E-11
    @Boys  840   5.2446987468792159E+01   3.446716E-11
    @Boys  841   5.2446987470138524E+01   2.567097E-11
    @Boys  842   5.2446987472236003E+01   3.999237E-11
    @Boys  843   5.2446987474142851E+01   3.635763E-11
    @Boys  844   5.2446987475776574E+01   3.114998E-11
    @Boys  845   5.2446987477764580E+01   3.790506E-11
    @Boys  846   5.2446987479890822E+01   4.054079E-11
    @Boys  847   5.2446987481160512E+01   2.420902E-11
    @Boys  848   5.2446987483559269E+01   4.573679E-11
    @Boys  849   5.2446987485254454E+01   3.232186E-11
    @Boys  850   5.2446987487373782E+01   4.040897E-11
    @Boys  851   5.2446987489546913E+01   4.143481E-11
    @Boys  852   5.2446987491826299E+01   4.346075E-11
    @Boys  853   5.2446987493375730E+01   2.954280E-11
    @Boys  854   5.2446987495508068E+01   4.065703E-11
    @Boys  855   5.2446987497362443E+01   3.535712E-11
    @Boys  856   5.2446987499063972E+01   3.244285E-11
    @Boys  857   5.2446987501153941E+01   3.984917E-11
    @Boys  858   5.2446987502743205E+01   3.030229E-11
    @Boys  859   5.2446987504831291E+01   3.981327E-11
    @Boys  860   5.2446987506211741E+01   2.632085E-11
    @Boys  861   5.2446987507632898E+01   2.709701E-11
    @Boys  862   5.2446987509014740E+01   2.634741E-11
    @Boys  863   5.2446987511485972E+01   4.711867E-11
    @Boys  864   5.2446987513490704E+01   3.822398E-11
    @Boys  865   5.2446987515197812E+01   3.254920E-11
    @Boys  866   5.2446987517405589E+01   4.209540E-11
    @Boys  867   5.2446987519743878E+01   4.458387E-11
    @Boys  868   5.2446987521180915E+01   2.739980E-11
    @Boys  869   5.2446987522419512E+01   2.361617E-11
    @Boys  870   5.2446987524331014E+01   3.644637E-11
    @Boys  871   5.2446987526056553E+01   3.290063E-11
    @Boys  872   5.2446987527602715E+01   2.948048E-11
    @Boys  873   5.2446987529753883E+01   4.101605E-11
    @Boys  874   5.2446987532142550E+01   4.554441E-11
    @Boys  875   5.2446987534194442E+01   3.912315E-11
    @Boys  876   5.2446987536267585E+01   3.952836E-11
    @Boys  877   5.2446987537529381E+01   2.405850E-11
    @Boys  878   5.2446987540079789E+01   4.862830E-11
    @Boys  879   5.2446987542410071E+01   4.443118E-11
    @Boys  880   5.2446987543906843E+01   2.853877E-11
    @Boys  881   5.2446987546139631E+01   4.257229E-11
    @Boys  882   5.2446987547769261E+01   3.107194E-11
    @Boys  883   5.2446987549638266E+01   3.563607E-11
    @Boys  884   5.2446987552237971E+01   4.956825E-11
    @Boys  885   5.2446987553566558E+01   2.533200E-11
    @Boys  886   5.2446987555361396E+01   3.422195E-11
    @Boys  887   5.2446987557353033E+01   3.797429E-11
    @Boys  888   5.2446987559244874E+01   3.607150E-11
    @Boys  889   5.2446987561464844E+01   4.232788E-11
    @Boys  890   5.2446987563496847E+01   3.874394E-11
    @Boys  891   5.2446987565086360E+01   3.030703E-11
    @Boys  892   5.2446987566589989E+01   2.866951E-11
    @Boys  893   5.2446987567725984E+01   2.165986E-11
    @Boys  894   5.2446987569065215E+01   2.553495E-11
    @Boys  895   5.2446987570724623E+01   3.163973E-11
    @Boys  896   5.2446987572187716E+01   2.789660E-11
    @Boys  897   5.2446987573932937E+01   3.327590E-11
    @Boys  898   5.2446987575853136E+01   3.661219E-11
    @Boys  899   5.2446987577958836E+01   4.014912E-11
    @Boys  900   5.2446987579762592E+01   3.439197E-11
    @Boys  901   5.2446987581952897E+01   4.176226E-11
    @Boys  902   5.2446987584255204E+01   4.389781E-11
    @Boys  903   5.2446987585776952E+01   2.901498E-11
    @Boys  904   5.2446987587496231E+01   3.278127E-11
    @Boys  905   5.2446987588856963E+01   2.594490E-11
    @Boys  906   5.2446987590065127E+01   2.303591E-11
    @Boys  907   5.2446987592628872E+01   4.888259E-11
    @Boys  908   5.2446987593971819E+01   2.560580E-11
    @Boys  909   5.2446987595941081E+01   3.754767E-11
    @Boys  910   5.2446987597980296E+01   3.888145E-11
    @Boys  911   5.2446987599928150E+01   3.713947E-11
    @Boys  912   5.2446987601734207E+01   3.443587E-11
    @Boys  913   5.2446987603044725E+01   2.498748E-11
    @Boys  914   5.2446987604609618E+01   2.983760E-11
    @Boys  915   5.2446987605990131E+01   2.632207E-11
    @Boys  916   5.2446987607163138E+01   2.236557E-11
    @Boys  917   5.2446987608619338E+01   2.776519E-11
    @Boys  918   5.2446987611259082E+01   5.033167E-11
    @Boys  919   5.2446987612595230E+01   2.547615E-11
    @Boys  920   5.2446987614391624E+01   3.425162E-11
    @Boys  921   5.2446987616291437E+01   3.622350E-11
    @Boys  922   5.2446987618654838E+01   4.506265E-11
    @Boys  923   5.2446987620758527E+01   4.011078E-11
    @Boys  924   5.2446987622118961E+01   2.593921E-11
    @Boys  925   5.2446987623731495E+01   3.074598E-11
    @Boys  926   5.2446987625761189E+01   3.869991E-11
    @Boys  927   5.2446987627804340E+01   3.895651E-11
    @Boys  928   5.2446987630567492E+01   5.268466E-11
    @Boys  929   5.2446987632238077E+01   3.185284E-11
    @Boys  930   5.2446987633894381E+01   3.158053E-11
    @Boys  931   5.2446987635179262E+01   2.449867E-11
    @Boys  932   5.2446987636535027E+01   2.585020E-11
    @Boys  933   5.2446987638575543E+01   3.890624E-11
    @Boys  934   5.2446987640052953E+01   2.816959E-11
    @Boys  935   5.2446987641992052E+01   3.697256E-11
    @Boys  936   5.2446987643615337E+01   3.095096E-11
    @Boys  937   5.2446987645501551E+01   3.596420E-11
    @Boys  938   5.2446987646709275E+01   2.302751E-11
    @Boys  939   5.2446987648457799E+01   3.333890E-11
    @Boys  940   5.2446987650561461E+01   4.011024E-11
    @Boys  941   5.2446987652926836E+01   4.510031E-11
    @Boys  942   5.2446987654203838E+01   2.434843E-11
    @Boys  943   5.2446987655370648E+01   2.224743E-11
    @Boys  944   5.2446987657655860E+01   4.357185E-11
    @Boys  945   5.2446987659406318E+01   3.337575E-11
    @Boys  946   5.2446987660620820E+01   2.315676E-11
    @Boys  947   5.2446987663318353E+01   5.143351E-11
    @Boys  948   5.2446987665608596E+01   4.366776E-11
    @Boys  949   5.2446987667357455E+01   3.334527E-11
    @Boys  950   5.2446987669680752E+01   4.429801E-11
    @Boys  951   5.2446987671831153E+01   4.100142E-11
    @Boys  952   5.2446987673447232E+01   3.081359E-11
    @Boys  953   5.2446987675780676E+01   4.449147E-11
    @Boys  954   5.2446987677117853E+01   2.549579E-11
    @Boys  955   5.2446987679248728E+01   4.062912E-11
    @Boys  956   5.2446987680830794E+01   3.016505E-11
    @Boys  957   5.2446987682484817E+01   3.153704E-11
    @Boys  958   5.2446987684524075E+01   3.888226E-11
    @Boys  959   5.2446987687059490E+01   4.834244E-11
    @Boys  960   5.2446987688277055E+01   2.321515E-11
    @Boys  961   5.2446987690010033E+01   3.304247E-11
    @Boys  962   5.2446987691618773E+01   3.067364E-11
    @Boys  963   5.2446987693791804E+01   4.143291E-11
    @Boys  964   5.2446987695770098E+01   3.771986E-11
    @Boys  965   5.2446987697780663E+01   3.833520E-11
    @Boys  966   5.2446987699355667E+01   3.003039E-11
    @Boys  967   5.2446987701096262E+01   3.318771E-11
    @Boys  968   5.2446987703412518E+01   4.416375E-11
    @Boys  969   5.2446987705324410E+01   3.645382E-11
    @Boys  970   5.2446987706650447E+01   2.528336E-11
    @Boys  971   5.2446987709329818E+01   5.108723E-11
    @Boys  972   5.2446987710983350E+01   3.152769E-11
    @Boys  973   5.2446987712293478E+01   2.498003E-11
    @Boys  974   5.2446987714318524E+01   3.861131E-11
    @Boys  975   5.2446987715887097E+01   2.990778E-11
    @Boys  976   5.2446987717509344E+01   3.093118E-11
    @Boys  977   5.2446987718990080E+01   2.823299E-11
    @Boys  978   5.2446987721067536E+01   3.961060E-11
    @Boys  979   5.2446987722548258E+01   2.823272E-11
    @Boys  980   5.2446987724167826E+01   3.088010E-11
    @Boys  981   5.2446987726229487E+01   3.930943E-11
    @Boys  982   5.2446987728593413E+01   4.507267E-11
    @Boys  983   5.2446987730246548E+01   3.152010E-11
    @Boys  984   5.2446987731999272E+01   3.341897E-11
    @Boys  985   5.2446987733445930E+01   2.758324E-11
    @Boys  986   5.2446987735957329E+01   4.788452E-11
    @Boys  987   5.2446987737276316E+01   2.514897E-11
    @Boys  988   5.2446987738770076E+01   2.848133E-11
    @Boys  989   5.2446987740361841E+01   3.034998E-11
    @Boys  990   5.2446987742336532E+01   3.765117E-11
    @Boys  991   5.2446987743601191E+01   2.411310E-11
    @Boys  992   5.2446987745368460E+01   3.369629E-11
    @Boys  993   5.2446987747428011E+01   3.926919E-11
    @Boys  994   5.2446987749706246E+01   4.343881E-11
    @Boys  995   5.2446987750977264E+01   2.423435E-11
    @Boys  996   5.2446987753032985E+01   3.919617E-11
    @Boys  997   5.2446987754277849E+01   2.373566E-11
    @Boys  998   5.2446987756394499E+01   4.035789E-11
    @Boys  999   5.2446987758446021E+01   3.911610E-11
    @Boys 1000   5.2446987760362305E+01   3.653754E-11
    @Boys 1001   5.2446987762013762E+01   3.148813E-11
    @Boys 1002   5.2446987763481445E+01   2.798412E-11
    @Boys 1003   5.2446987765056001E+01   3.002185E-11
    @Boys 1004   5.2446987767292590E+01   4.264477E-11
    @Boys 1005   5.2446987768819668E+01   2.911658E-11
    @Boys 1006   5.2446987770352408E+01   2.922456E-11
    @Boys 1007   5.2446987771469537E+01   2.130017E-11
    @Boys 1008   5.2446987773756049E+01   4.359664E-11
    @Boys 1009   5.2446987775500503E+01   3.326127E-11
    @Boys 1010   5.2446987776869371E+01   2.610002E-11
    @Boys 1011   5.2446987778552902E+01   3.209968E-11
    @Boys 1012   5.2446987779656880E+01   2.104939E-11
    @Boys 1013   5.2446987781502791E+01   3.519577E-11
    @Boys 1014   5.2446987783802520E+01   4.384863E-11
    @Boys 1015   5.2446987785445138E+01   3.131960E-11
    @Boys 1016   5.2446987788060909E+01   4.987457E-11
    @Boys 1017   5.2446987789759447E+01   3.238581E-11
    @Boys 1018   5.2446987791803423E+01   3.897222E-11
    @Boys 1019   5.2446987794310473E+01   4.780161E-11
    @Boys 1020   5.2446987795897307E+01   3.025596E-11
    @Boys 1021   5.2446987797228999E+01   2.539120E-11
    @Boys 1022   5.2446987799533403E+01   4.393777E-11
    @Boys 1023   5.2446987801171502E+01   3.123343E-11
    @Boys 1024   5.2446987802411073E+01   2.363473E-11
    @Boys 1025   5.2446987804437065E+01   3.862933E-11
    @Boys 1026   5.2446987807156191E+01   5.184523E-11
    @Boys 1027   5.2446987808322426E+01   2.223646E-11
    @Boys 1028   5.2446987810194635E+01   3.569717E-11
    @Boys 1029   5.2446987811684892E+01   2.841454E-11
    @Boys 1030   5.2446987812941714E+01   2.396367E-11
    @Boys 1031   5.2446987814239087E+01   2.473684E-11
    @Boys 1032   5.2446987815530726E+01   2.462751E-11
    @Boys 1033   5.2446987817685063E+01   4.107647E-11
    @Boys 1034   5.2446987819364786E+01   3.202706E-11
    @Boys 1035   5.2446987821262475E+01   3.618300E-11
    @Boys 1036   5.2446987823445703E+01   4.162733E-11
    @Boys 1037   5.2446987824929778E+01   2.829667E-11
    @Boys 1038   5.2446987826236551E+01   2.491608E-11
    @Boys 1039   5.2446987828105108E+01   3.562753E-11
    @Boys 1040   5.2446987830164616E+01   3.926838E-11
    @Boys 1041   5.2446987832365693E+01   4.196765E-11
    @Boys 1042   5.2446987834095033E+01   3.297311E-11
    @Boys 1043   5.2446987835602357E+01   2.873995E-11
    @Boys 1044   5.2446987838183745E+01   4.921899E-11
    @Boys 1045   5.2446987839483292E+01   2.477830E-11
    @Boys 1046   5.2446987840647836E+01   2.220421E-11
    @Boys 1047   5.2446987842469163E+01   3.472701E-11
    @Boys 1048   5.2446987844806713E+01   4.456978E-11
    @Boys 1049   5.2446987846012846E+01   2.299717E-11
    @Boys 1050   5.2446987847763168E+01   3.337318E-11
    @Boys 1051   5.2446987849189327E+01   2.719239E-11
    @Boys 1052   5.2446987851808096E+01   4.993174E-11
    @Boys 1053   5.2446987853267188E+01   2.782033E-11
    @Boys 1054   5.2446987855880757E+01   4.983257E-11
    @Boys 1055   5.2446987857312024E+01   2.728980E-11
    @Boys 1056   5.2446987859823750E+01   4.789076E-11
    @Boys 1057   5.2446987861990912E+01   4.132101E-11
    @Boys 1058   5.2446987863881922E+01   3.605565E-11
    @Boys 1059   5.2446987865143136E+01   2.404739E-11
    @Boys 1060   5.2446987867051902E+01   3.639421E-11
    @Boys 1061   5.2446987869116633E+01   3.936795E-11
    @Boys 1062   5.2446987871243735E+01   4.055718E-11
    @Boys 1063   5.2446987873916328E+01   5.095798E-11
    @Boys 1064   5.2446987875692500E+01   3.386605E-11
    @Boys 1065   5.2446987877782057E+01   3.984132E-11
    @Boys 1066   5.2446987879555493E+01   3.381389E-11
    @Boys 1067   5.2446987880894369E+01   2.552817E-11
    @Boys 1068   5.2446987883302683E+01   4.591901E-11
    @Boys 1069   5.2446987885258700E+01   3.729514E-11
    @Boys 1070   5.2446987886566532E+01   2.493627E-11
    @Boys 1071   5.2446987888606124E+01   3.888863E-11
    @Boys 1072   5.2446987890548080E+01   3.702702E-11
    @Boys 1073   5.2446987892627263E+01   3.964352E-11
    @Boys 1074   5.2446987894385380E+01   3.352180E-11
    @Boys 1075   5.2446987896543227E+01   4.114340E-11
    @Boys 1076   5.2446987898175195E+01   3.111651E-11
    @Boys 1077   5.2446987900419124E+01   4.278472E-11
    @Boys 1078   5.2446987902582322E+01   4.124541E-11
    @Boys 1079   5.2446987904491635E+01   3.640464E-11
    @Boys 1080   5.2446987905734176E+01   2.369136E-11
    @Boys 1081   5.2446987907534854E+01   3.433331E-11
    @Boys 1082   5.2446987909117006E+01   3.016668E-11
    @Boys 1083   5.2446987910845351E+01   3.295414E-11
    @Boys 1084   5.2446987912923078E+01   3.961574E-11
    @Boys 1085   5.2446987915032302E+01   4.021632E-11
    @Boys 1086   5.2446987916364094E+01   2.539310E-11
    @Boys 1087   5.2446987917622074E+01   2.398575E-11
    @Boys 1088   5.2446987920257840E+01   5.025580E-11
    @Boys 1089   5.2446987921408805E+01   2.194531E-11
    @Boys 1090   5.2446987923322602E+01   3.649012E-11
    @Boys 1091   5.2446987924493449E+01   2.232438E-11
    @Boys 1092   5.2446987925651243E+01   2.207551E-11
    @Boys 1093   5.2446987927805274E+01   4.107064E-11
    @Boys 1094   5.2446987929184857E+01   2.630433E-11
    @Boys 1095   5.2446987930395728E+01   2.308753E-11
    @Boys 1096   5.2446987932772828E+01   4.532385E-11
    @Boys 1097   5.2446987934511711E+01   3.315506E-11
    @Boys 1098   5.2446987936164710E+01   3.151753E-11
    @Boys 1099   5.2446987937463113E+01   2.475649E-11
    @Boys 1100   5.2446987938782506E+01   2.515669E-11
    @Boys 1101   5.2446987940832628E+01   3.908941E-11
    @Boys 1102   5.2446987942841112E+01   3.829551E-11
    @Boys 1103   5.2446987945025384E+01   4.164724E-11
[...]
  @PNO-LMP2 iter   9:  -0.412262254556  5.422e-10  8.643e-11        0
  @PNO-LMP2 iter  10:  -0.412262254402  1.543e-10  1.822e-11        0
  @PNO-LMP2 iter  11:  -0.412262254380  2.237e-11  2.008e-12        0

  ==> Final Strong and Weak Pairs <==

    Weak Pairs                      = 0
    Strong Pairs                    = 64
    Strong Pairs / Total Pairs      = (100.00 %)
  
  Total DLPNO-MP2 Correlation Energy:  -0.412262546824 
    MP2 Correlation Energy:            -0.412262254380 
    Semicanonical MP2 Correction:       0.000000000000 
    Dipole Correction:                  0.000000000000 
    PNO Truncation Correction:         -0.000000292444 


  @Total DLPNO-MP2 Energy: -1054.038141787977 

   * WARNING: This answer will likely vary from one obtained by a energy('dlpno-mp2') call
                due to lack of a semi-canonical MP2 prescreening step in DLPNO-MP2, as well
                as slightly tighter cutoffs utilized to increase accuracy in the context of CC!!!


    Auxiliary BFs per Local MO:
      Average =  123 AUX BFs (1 atoms)
      Min     =  123 AUX BFs (1 atoms)
      Max     =  123 AUX BFs (1 atoms)
  
    Projected AOs per Local MO:
      Average =   68 PAOs (2 atoms)
      Min     =   68 PAOs (2 atoms)
      Max     =   68 PAOs (2 atoms)

    Local MOs per Local MO:
      Average =    8 LMOs
      Min     =    8 LMOs
      Max     =    8 LMOs

  ==> Merging LMO Domains into LMO Pair Domains <==
  
    Auxiliary BFs per Local MO pair:
      Average =  184 AUX BFs (1 atoms)
      Min     =  123 AUX BFs (1 atoms)
      Max     =  246 AUX BFs (2 atoms)
  
    Local MOs per Local MO pair:
      Average =    8 LMOs
      Min     =    8 LMOs
      Max     =    8 LMOs
  
    Projected AOs per Local MO pair:
      Average =   68 PAOs (2 atoms)
      Min     =   68 PAOs (2 atoms)
      Max     =   68 PAOs (2 atoms)

  ==> Forming Pair Natural Orbitals (for LCCSD) <==
  
    Natural Orbitals per Local MO pair:
      Avg:  26 NOs 
      Min:  25 NOs 
      Max:  31 NOs 

      Avg Occ Number Tol: 9.168e-08 
      Min Occ Number Tol: 1.331e-09 
      Max Occ Number Tol: 7.518e-07 

      Avg Trace Sum: 0.999582 
      Min Trace Sum: 0.999101 
      Max Trace Sum: 1.000000 

      Avg Energy Ratio: 0.998604 
      Min Energy Ratio: 0.997071 
      Max Energy Ratio: 1.000000 

    LMP2 Weak Pair energy = 0.000000000000
    PNO truncation energy = -0.000005375845

  ==> Transforming 3-Index Integrals to LMO/LMO basis <==

  ==> Transforming 3-Index Integrals to PAO/PAO basis <==

    * PAO/PAO Integral Memory After Screening: 0.004 [GiB]

  ==> DLPNO-CCSD Memory Requirements <== 

    *** Common Quantities ***
    (q | i j) [AUX, LMO]          :    0.000 [GB]
    (q | i a) [AUX, LMO, PAO]     :    0.001 [GB]
    (q | a b) [AUX, PAO]          :    0.004 [GB]
    (k_{ij}, l_{ij})-like         :    0.000 [GB]
    (k_{ij}, c_{ij})-like         :    0.000 [GB]
    (a_{ij}, b_{ij})-like         :    0.002 [GB]
    (a_{ij}, c_{kj})-like         :    0.006 [GB]
    (i a_{ij} | b_{ij}, c_{ij})   :    0.009 [GB]
    (Q_{ij} | k_{ij} i)           :    0.002 [GB]
    (Q_{ij} | a_{ij} i)           :    0.005 [GB]
    (Q_{ij} | m_{ij} a_{ij})      :    0.011 [GB]
    (Q_{ij} | a_{ij} b_{ij})      :    0.036 [GB]

    *** Maximum ERI buffer space of 0.008 [GB] per pair, over 16 threads...

    Buffer Space for ERIs         :    0.122 [GB]
    Total Memory Required (ERIs)  :    0.198 [GB]

    *** Quantities for LCCSD Iterations ***
    PNO overlaps                  :    0.008 [GB]

    *** Maximum CCSD buffer space of 0.005 [GB] per pair, over 16 threads...

    Buffer Space for Iterations   :    0.076 [GB]
    Total Memory Required (LCCSD) :    0.160 [GB]

    Total Memory Given            :   16.000 [GB]

    Using high memory PNO overlap algorithm... 

    Storing (Q_{ij}|m_{ij} a_{ij}) integrals in RAM... 

    Storing (Q_{ij}|a_{ij} b_{ij}) integrals in RAM... 

    Computing integrals in the PNO basis from PAO integrals...

    Integral Computation Complete!!! Time Elapsed:    0 seconds


  ==> Local CCSD <==

    E_CONVERGENCE = 1.00e-08
    R_CONVERGENCE = 1.00e-08

                      Corr. Energy    Delta E     Max R1     Max R2     Time (s)
  @LCCSD iter   1:  -0.441095737145 -4.411e-01  1.653e-03  1.589e-03        0
  @LCCSD iter   2:  -0.447300095728 -6.204e-03  2.413e-04  3.260e-04        0
  @LCCSD iter   3:  -0.447988749823 -6.887e-04  5.900e-05  6.715e-05        0
  @LCCSD iter   4:  -0.448102816816 -1.141e-04  3.966e-05  1.476e-05        0
  @LCCSD iter   5:  -0.448097577406  5.239e-06  5.894e-06  3.558e-06        0
  @LCCSD iter   6:  -0.448098631305 -1.054e-06  1.063e-06  4.784e-07        0
  @LCCSD iter   7:  -0.448098823362 -1.921e-07  2.526e-07  1.355e-07        0
  @LCCSD iter   8:  -0.448098857235 -3.387e-08  9.303e-08  3.014e-08        0
  @LCCSD iter   9:  -0.448098898431 -4.120e-08  2.522e-08  8.188e-09        0
  @LCCSD iter  10:  -0.448098908294 -9.863e-09  4.877e-09  2.631e-09        0

  T1 Diagnostic: 0.00211073 
  
  Total DLPNO-CCSD Correlation Energy:  -0.448104284139 
    CCSD Correlation Energy:            -0.448098908294 
    Weak Pair Contribution:              0.000000000000 
    Semicanonical MP2 Correction:        0.000000000000 
    Dipole Pair Correction:              0.000000000000 
    PNO Truncation Correction:          -0.000005375845 


  @Total DLPNO-CCSD Energy: -1054.073983525293 
    *** Wow, that was fast! A thousand hallelujahs!!! 

   --------------------------------------------
                    DLPNO-CCSD(T)              
                    by Andy Jiang              
               DOI: 10.1063/5.0219963          
   --------------------------------------------

  DLPNO convergence set to TIGHT.

  Detailed DLPNO thresholds and cutoffs:
    ALGORITHM    = ITERATIVE (T)   
    T_CUT_TNO (T0)             = 1.000e-09 
    T_CUT_DO_TRIPLES (T0)      = 1.000e-02 
    T_CUT_MKN_TRIPLES (T0)     = 1.000e-02 
    T_CUT_TRIPLES_WEAK (T0)    = 1.000e-08 
    T_CUT_TNO_PRE (T0)         = 1.000e-07 
    T_CUT_DO_TRIPLES_PRE (T0)  = 2.000e-02 
    T_CUT_MKN_TRIPLES_PRE (T0) = 1.000e-01 
    T_CUT_TNO_STRONG (T)       = 1.000e-08 
    T_CUT_TNO_WEAK (T)         = 1.000e-07 
    F_CUT_T (T)                = 1.000e-03 
    T_CUT_ITER (T)             = 1.000e-05 
    MIN_TNOS                   =      9   
    TRIPLES_MAX_WEAK_PAIRS     =      1   



   Starting Triplet Prescreening...
     T_CUT_TNO set to 1.000e-07 
     T_CUT_DO  set to 2.000e-02 
     T_CUT_MKN set to 1.000e-01 

  
    Number of (Unique) Local MO triplets: 112
    Max Number of Possible (Unique) LMO Triplets: 112 (Ratio: 1.0000)
    Natural Orbitals per Local MO triplet:
      Avg:  26 NOs 
      Min:  24 NOs 
      Max:  28 NOs 
  
    (Relavent) Semicanonical LCCSD(T0) Computation Complete!!! Time Elapsed:    0 seconds


   Continuing computation with surviving triplets...
     Eliminated all triples with energy less than 1.000e-08 Eh... 

    * Energy Contribution From Screened Triplets: 0.000000000000 

     T_CUT_TNO (re)set to 1.000e-09 
     T_CUT_DO  (re)set to 1.000e-02 
     T_CUT_MKN (re)set to 1.000e-02 

  
    Number of (Unique) Local MO triplets: 112
    Max Number of Possible (Unique) LMO Triplets: 112 (Ratio: 1.0000)
    Natural Orbitals per Local MO triplet:
      Avg:  36 NOs 
      Min:  27 NOs 
      Max:  44 NOs 
  
    (Relavent) Semicanonical LCCSD(T0) Computation Complete!!! Time Elapsed:    0 seconds

    DLPNO-CCSD(T0) Correlation Energy:  -0.460536208119 
    * DLPNO-CCSD Contribution:          -0.448098908294 
    * DLPNO-(T0) Contribution:          -0.012437299825 
    * Screened Triplets Contribution:    0.000000000000 



  ==> Computing Full Iterative (T) <==

  ==> Sorting Triplets <== 

    Number of Strong Triplets:     29, Total Triplets:    112, Ratio: 0.2589

     T_CUT_TNO (re)set to 1.000e-08 for strong triples 
     T_CUT_TNO (re)set to 1.000e-07 for weak triples   

  
    Number of (Unique) Local MO triplets: 112
    Max Number of Possible (Unique) LMO Triplets: 112 (Ratio: 1.0000)
    Natural Orbitals per Local MO triplet:
      Avg:  26 NOs 
      Min:  24 NOs 
      Max:  28 NOs 
  

  ==> DLPNO-(T) Memory Requirements <== 

    (q | i j) integrals    : 0.000 [GB]
    (q | i a) integrals    : 0.001 [GB]
    (q | a b) integrals    : 0.004 [GB]
    W_{ijk}^{abc}          : 0.017 [GB]
    V_{ijk}^{abc}          : 0.017 [GB]
    T_{ijk}^{abc}          : 0.017 [GB]
    Total Memory Required  : 0.055 [GB]
    Total Memory Given     : 16.000 [GB]

    Storing all X_{ijk}^{abc} quantities in RAM...

    (Relavent) Semicanonical LCCSD(T0) Computation Complete!!! Time Elapsed:    0 seconds


  ==> Local CCSD(T) <==

    E_CONVERGENCE = 1.00e-08
    R_CONVERGENCE = 1.00e-08

                         Corr. Energy    Delta E     Max R     Time (s)
  @LCCSD(T) iter   1:  -0.012939823044 -1.294e-02  2.046e-05        0
  @LCCSD(T) iter   2:  -0.012985122730 -4.530e-05  2.444e-06        0
  @LCCSD(T) iter   3:  -0.012986380120 -1.257e-06  3.367e-07        0
  @LCCSD(T) iter   4:  -0.012986556227 -1.761e-07  5.396e-08        0
  @LCCSD(T) iter   5:  -0.012986558148 -1.921e-09  8.489e-09        0

    DLPNO-CCSD(T0) energy at looser tolerance:  -0.012429475386
    DLPNO-CCSD(T)  energy at looser tolerance:  -0.012986558148
    * Net Iterative (T) contribution:           -0.000557082762

  
  Total DLPNO-CCSD(T) Correlation Energy:  -0.461098666726 
    DLPNO-CCSD Contribution:               -0.448104284139 
    DLPNO-(T) Contribution:                -0.012994382587 
    Screened Triplets Contribution:         0.000000000000 


  @Total DLPNO-CCSD(T) Energy: -1054.086977907880 
    *** Andy Jiang... FOR THREEEEEEEEEEE!!!


*** tstop() called on ra4-3 at Wed Dec  3 12:23:10 2025
Module time:
	user time   =      25.20 seconds =       0.42 minutes
	system time =       1.54 seconds =       0.03 minutes
	total time  =          2 seconds =       0.03 minutes
Total time:
	user time   =     203.62 seconds =       3.39 minutes
	system time =      16.88 seconds =       0.28 minutes
	total time  =         14 seconds =       0.23 minutes

    Psi4 stopped on: Wednesday, 03 December 2025 12:23PM
    Psi4 wall time for execution: 0:00:02.15


  //>>>>>>>>>>>>>>>>>>>>>>>>>>>>>>>>>>>//
  //            CBS Results            //
  //<<<<<<<<<<<<<<<<<<<<<<<<<<<<<<<<<<<//


   ==> Components <==

  ---------------------------------------------------------------------------------------------------------
                          Method / Basis                      Rqd      Energy [Eh]   Variable
  ---------------------------------------------------------------------------------------------------------
                              hf / cc-pvtz                     *     -526.81315892   HF TOTAL ENERGY
                       dlpno-mp2 / cc-pvtz                           -527.01904258   MP2 TOTAL ENERGY
                      dlpno-ccsd / cc-pvtz                           -527.03703795   CCSD TOTAL ENERGY
                   dlpno-ccsd(t) / cc-pvtz                     *     -527.04351532   CCSD(T) TOTAL ENERGY
                              hf / cc-pvqz                     *     -526.81678652   HF TOTAL ENERGY
                       dlpno-mp2 / cc-pvqz                           -527.04658403   MP2 TOTAL ENERGY
                      dlpno-ccsd / cc-pvqz                           -527.06484761   CCSD TOTAL ENERGY
                   dlpno-ccsd(t) / cc-pvqz                     *     -527.07336453   CCSD(T) TOTAL ENERGY
  ---------------------------------------------------------------------------------------------------------

   ==> Stages <==

  ---------------------------------------------------------------------------------------------------------
      Stage               Method / Basis                       Wt      Energy [Eh]   Scheme
  ---------------------------------------------------------------------------------------------------------
        scf                   hf / cc-pvqz                      1    -526.81678652   xtpl_highest_1
       corl        dlpno-ccsd(t) / cc-pv[tq]z                   1    -527.09514639   corl_xtpl_helgaker_2
       corl                   hf / cc-pv[tq]z                  -1    -526.81943369   corl_xtpl_helgaker_2
  ---------------------------------------------------------------------------------------------------------

   ==> CBS <==

  ---------------------------------------------------------------------------------------------------------
      Stage               Method / Basis                               Energy [Eh]   Scheme
  ---------------------------------------------------------------------------------------------------------
        scf                   hf / cc-pvqz                           -526.81678652   xtpl_highest_1
       corl        dlpno-ccsd(t) / cc-pv[tq]z                          -0.27571270   corl_xtpl_helgaker_2
      total                  CBS                                     -527.09249922   
  ---------------------------------------------------------------------------------------------------------

  //>>>>>>>>>>>>>>>>>>>>>>>>>>>>>>>>>>>//
  //            CBS Results            //
  //<<<<<<<<<<<<<<<<<<<<<<<<<<<<<<<<<<<//


   ==> Components <==

  ---------------------------------------------------------------------------------------------------------
                          Method / Basis                      Rqd      Energy [Eh]   Variable
  ---------------------------------------------------------------------------------------------------------
                              hf / cc-pvtz                     *     -526.81315892   HF TOTAL ENERGY
                       dlpno-mp2 / cc-pvtz                           -527.01904258   MP2 TOTAL ENERGY
                      dlpno-ccsd / cc-pvtz                           -527.03703795   CCSD TOTAL ENERGY
                   dlpno-ccsd(t) / cc-pvtz                     *     -527.04351532   CCSD(T) TOTAL ENERGY
                              hf / cc-pvqz                     *     -526.81678652   HF TOTAL ENERGY
                       dlpno-mp2 / cc-pvqz                           -527.04658403   MP2 TOTAL ENERGY
                      dlpno-ccsd / cc-pvqz                           -527.06484761   CCSD TOTAL ENERGY
                   dlpno-ccsd(t) / cc-pvqz                     *     -527.07336453   CCSD(T) TOTAL ENERGY
  ---------------------------------------------------------------------------------------------------------

   ==> Stages <==

  ---------------------------------------------------------------------------------------------------------
      Stage               Method / Basis                       Wt      Energy [Eh]   Scheme
  ---------------------------------------------------------------------------------------------------------
        scf                   hf / cc-pvqz                      1    -526.81678652   xtpl_highest_1
       corl        dlpno-ccsd(t) / cc-pv[tq]z                   1    -527.09514639   corl_xtpl_helgaker_2
       corl                   hf / cc-pv[tq]z                  -1    -526.81943369   corl_xtpl_helgaker_2
  ---------------------------------------------------------------------------------------------------------

   ==> CBS <==

  ---------------------------------------------------------------------------------------------------------
      Stage               Method / Basis                               Energy [Eh]   Scheme
  ---------------------------------------------------------------------------------------------------------
        scf                   hf / cc-pvqz                           -526.81678652   xtpl_highest_1
       corl        dlpno-ccsd(t) / cc-pv[tq]z                          -0.27571270   corl_xtpl_helgaker_2
      total                  CBS                                     -527.09249922   
  ---------------------------------------------------------------------------------------------------------

  //>>>>>>>>>>>>>>>>>>>>>>>>>>>>>>>>>>>//
  //            CBS Results            //
  //<<<<<<<<<<<<<<<<<<<<<<<<<<<<<<<<<<<//


   ==> Components <==

  ---------------------------------------------------------------------------------------------------------
                          Method / Basis                      Rqd      Energy [Eh]   Variable
  ---------------------------------------------------------------------------------------------------------
                              hf / cc-pvtz                     *    -1053.62587924   HF TOTAL ENERGY
                       dlpno-mp2 / cc-pvtz                          -1054.03814179   MP2 TOTAL ENERGY
                      dlpno-ccsd / cc-pvtz                          -1054.07398353   CCSD TOTAL ENERGY
                   dlpno-ccsd(t) / cc-pvtz                     *    -1054.08697791   CCSD(T) TOTAL ENERGY
                              hf / cc-pvqz                     *    -1053.63312816   HF TOTAL ENERGY
                       dlpno-mp2 / cc-pvqz                          -1054.09341663   MP2 TOTAL ENERGY
                      dlpno-ccsd / cc-pvqz                          -1054.12976633   CCSD TOTAL ENERGY
                   dlpno-ccsd(t) / cc-pvqz                     *    -1054.14687173   CCSD(T) TOTAL ENERGY
  ---------------------------------------------------------------------------------------------------------

   ==> Stages <==

  ---------------------------------------------------------------------------------------------------------
      Stage               Method / Basis                       Wt      Energy [Eh]   Scheme
  ---------------------------------------------------------------------------------------------------------
        scf                   hf / cc-pvqz                      1   -1053.63312816   xtpl_highest_1
       corl        dlpno-ccsd(t) / cc-pv[tq]z                   1   -1054.19057803   corl_xtpl_helgaker_2
       corl                   hf / cc-pv[tq]z                  -1   -1053.63841791   corl_xtpl_helgaker_2
  ---------------------------------------------------------------------------------------------------------

   ==> CBS <==

  ---------------------------------------------------------------------------------------------------------
      Stage               Method / Basis                               Energy [Eh]   Scheme
  ---------------------------------------------------------------------------------------------------------
        scf                   hf / cc-pvqz                          -1053.63312816   xtpl_highest_1
       corl        dlpno-ccsd(t) / cc-pv[tq]z                          -0.55216012   corl_xtpl_helgaker_2
      total                  CBS                                    -1054.18528828   
  ---------------------------------------------------------------------------------------------------------

  //>>>>>>>>>>>>>>>>>>>>>>>>>>>>>>>>>>>//
  //          ManyBody Results         //
  //<<<<<<<<<<<<<<<<<<<<<<<<<<<<<<<<<<<//


   ==> N-Body: Counterpoise Corrected (CP) energies <==

              MC n-Body  Total Energy            Interaction Energy                          N-body Contribution to Interaction Energy
                         [Eh]                    [Eh]                  [kcal/mol]            [Eh]                  [kcal/mol]
              §A  1        N/A                   0.000000000000        0.000000000000        0.000000000000        0.000000000000
     FULL/RTN §A  2        N/A                  -0.000289829675       -0.181870866852       -0.000289829675       -0.181870866852

   MC Legend: §A: "(auto)"

    canonical DLPNO-CCSD(T)/CBS Eint......................................................PASSED
    canonical vs DLPNO-CCSD(T) Eint (< 0.006 kcal/mol)....................................PASSED

    Psi4 stopped on: Wednesday, 03 December 2025 12:23PM
    Psi4 wall time for execution: 0:00:14.65

*** Psi4 exiting successfully. Buy a developer a beer!
