
    -----------------------------------------------------------------------
          Psi4: An Open-Source Ab Initio Electronic Structure Package
                               Psi4 1.8a1.dev17 

                         Git: Rev {dpoole34/compositejk-pilot} e4f6b14 dirty


    D. G. A. Smith, L. A. Burns, A. C. Simmonett, R. M. Parrish,
    M. C. Schieber, R. Galvelis, P. Kraus, H. Kruse, R. Di Remigio,
    A. Alenaizan, A. M. James, S. Lehtola, J. P. Misiewicz, M. Scheurer,
    R. A. Shaw, J. B. Schriber, Y. Xie, Z. L. Glick, D. A. Sirianni,
    J. S. O'Brien, J. M. Waldrop, A. Kumar, E. G. Hohenstein,
    B. P. Pritchard, B. R. Brooks, H. F. Schaefer III, A. Yu. Sokolov,
    K. Patkowski, A. E. DePrince III, U. Bozkaya, R. A. King,
    F. A. Evangelista, J. M. Turney, T. D. Crawford, C. D. Sherrill,
    J. Chem. Phys. 152(18) 184108 (2020). https://doi.org/10.1063/5.0006002

                            Additional Code Authors
    E. T. Seidl, C. L. Janssen, E. F. Valeev, M. L. Leininger,
    J. F. Gonthier, R. M. Richard, H. R. McAlexander, M. Saitow, X. Wang,
    P. Verma, M. H. Lechner, A. Jiang, S. Behnle, A. G. Heide,
    M. F. Herbst, and D. L. Poole

             Previous Authors, Complete List of Code Contributors,
                       and Citations for Specific Modules
    https://github.com/psi4/psi4/blob/master/codemeta.json
    https://github.com/psi4/psi4/graphs/contributors
    http://psicode.org/psi4manual/master/introduction.html#citing-psifour

    -----------------------------------------------------------------------


    Psi4 started on: Thursday, 08 December 2022 03:56PM

    Process ID: 26703
    Host:       ds6
    PSIDATADIR: /theoryfs2/ds/dpoole34/Documents/Codes/psi4-compositejk-pilot/psi4-install/share/psi4
    Memory:     500.0 MiB
    Threads:    1
    
  ==> Input File <==

--------------------------------------------------------------------------
#! Test of all different algorithms and reference types for SCF, on singlet and triplet O2, using the cc-pVTZ basis set.

print(' Case Study Test of all SCF algorithms/spin-degeneracies: Singlet-Triplet O2') #TEST

#Ensure that the checkpoint file is always nuked
psi4_io.set_specific_retention(32,False)

Eref = {  
    "Nuclear"       :   30.7884922572,     #TEST
    "Singlet": {
        "Canonical" : -149.58723684929720, #TEST
        "DF"        : -149.58715054487624, #TEST
        "Composite": {
          "DirectDFJ+COSX"    : -149.58722317236171, #TEST
          "DirectDFJ+LinK"    : -149.58726772171027  #TEST
        } 
    },
    "Triplet UHF": {
        "Canonical" : -149.67135517240553, #TEST
        "DF"        : -149.67125624291961, #TEST
        "Composite": {
          "DirectDFJ+COSX"    : -149.67132922581225, #TEST
          "DirectDFJ+LinK"    : -149.67137328005577  #TEST
        }
    },
    "Triplet ROHF": {
        "Canonical" : -149.65170765757173, #TEST
        "DF"        : -149.65160796208073, #TEST
        "Composite": {
          "DirectDFJ+COSX"    : -149.65168894156605, #TEST
          "DirectDFJ+LinK"    : -149.65172557470324  #TEST
        }
    }
}

molecule singlet_o2 {
    0 1
    O
    O 1 1.1
    units    angstrom
}

molecule triplet_o2 {
    0 3
    O
    O 1 1.1
    units    angstrom
}
singlet_o2.update_geometry()
triplet_o2.update_geometry()

print('   -Nuclear Repulsion:') #TEST
compare_values(Eref["Nuclear"], triplet_o2.nuclear_repulsion_energy(), 9, "Triplet nuclear repulsion energy")  #TEST
compare_values(Eref["Nuclear"], singlet_o2.nuclear_repulsion_energy(), 9, "Singlet nuclear repulsion energy")  #TEST

activate(singlet_o2)
set {
    basis cc-pvtz
    df_basis_scf cc-pvtz-jkfit
    print 2
}

print('    -Singlet RHF:') #TEST
set scf reference rhf
set screening csam

set scf_type pk
E = energy('scf')
compare_values(Eref["Singlet"]["Canonical"], E, 6, 'Singlet PK RHF energy') #TEST

set scf_type direct
E = energy('scf')
compare_values(Eref["Singlet"]["Canonical"], E, 6, 'Singlet Direct RHF energy') #TEST

set scf_type out_of_core
E = energy('scf')
compare_values(Eref["Singlet"]["Canonical"], E, 6, 'Singlet Disk RHF energy') #TEST

set scf_type disk_df
E = energy('scf')
compare_values(Eref["Singlet"]["DF"], E, 6, 'Singlet DiskDF RHF energy') #TEST

set scf_type mem_df
E = energy('scf')
compare_values(Eref["Singlet"]["DF"], E, 6, 'Singlet MemDF RHF energy') #TEST

for method in Eref["Singlet"]["Composite"].keys():
    set scf_type $method 
    if method == "DirectDFJ+COSX": 
      set screening csam
    else:
      set screening density

    E = energy('scf')
    compare_values(Eref["Singlet"]["Composite"][method], E, 6, f'Singlet {method} RHF energy') #TEST

print('    -Singlet UHF:') #TEST
set scf reference uhf
set screening csam

set scf_type pk
E = energy('scf')
compare_values(Eref["Singlet"]["Canonical"], E, 6, 'Singlet PK UHF energy') #TEST

set scf_type direct
E = energy('scf')
compare_values(Eref["Singlet"]["Canonical"], E, 6, 'Singlet Direct UHF energy') #TEST

set scf_type out_of_core
E = energy('scf')
compare_values(Eref["Singlet"]["Canonical"], E, 6, 'Singlet Disk UHF energy') #TEST

set scf_type disk_df
E = energy('scf')
compare_values(Eref["Singlet"]["DF"], E, 6, 'Singlet DiskDF UHF energy') #TEST

set scf_type mem_df
E = energy('scf')
compare_values(Eref["Singlet"]["DF"], E, 6, 'Singlet MemDF UHF energy') #TEST

for method in Eref["Singlet"]["Composite"].keys():
    set scf_type $method 
    if method == "DirectDFJ+COSX": 
      set screening csam
    else:
      set screening density

    E = energy('scf')
    compare_values(Eref["Singlet"]["Composite"][method], E, 6, f'Singlet {method} UHF energy') #TEST

print('    -Singlet CUHF:') #TEST
set scf reference cuhf
set screening csam

set scf_type pk
E = energy('scf')
compare_values(Eref["Singlet"]["Canonical"], E, 6, 'Singlet PK CUHF energy') #TEST

set scf_type direct
E = energy('scf')
compare_values(Eref["Singlet"]["Canonical"], E, 6, 'Singlet Direct CUHF energy') #TEST

set scf_type out_of_core
E = energy('scf')
compare_values(Eref["Singlet"]["Canonical"], E, 6, 'Singlet Disk CUHF energy') #TEST

set scf_type disk_df
E = energy('scf')
compare_values(Eref["Singlet"]["DF"], E, 6, 'Singlet DiskDF CUHF energy') #TEST

set scf_type mem_df
E = energy('scf')
compare_values(Eref["Singlet"]["DF"], E, 6, 'Singlet MemDF CUHF energy') #TEST

for method in Eref["Singlet"]["Composite"].keys():
    set scf_type $method 
    if method == "DirectDFJ+COSX": 
      set screening csam
    else:
      set screening density

    E = energy('scf')
    compare_values(Eref["Singlet"]["Composite"][method], E, 6, f'Singlet {method} CUHF energy') #TEST

activate(triplet_o2)
set {
    basis cc-pvtz
    df_basis_scf cc-pvtz-jkfit
    guess core
    print 2
}

print('    -Triplet UHF:') #TEST
set scf reference uhf
set screening csam

set scf_type pk
E = energy('scf')
compare_values(Eref["Triplet UHF"]["Canonical"], E, 6, 'Triplet PK UHF energy') #TEST

set scf_type direct
E = energy('scf')
compare_values(Eref["Triplet UHF"]["Canonical"], E, 6, 'Triplet Direct UHF energy') #TEST

set scf_type out_of_core
E = energy('scf')
compare_values(Eref["Triplet UHF"]["Canonical"], E, 6, 'Triplet Disk UHF energy') #TEST

set scf_type disk_df
E = energy('scf')
compare_values(Eref["Triplet UHF"]["DF"], E, 6, 'Triplet DiskDF UHF energy') #TEST

set scf_type mem_df
E = energy('scf')
compare_values(Eref["Triplet UHF"]["DF"], E, 6, 'Triplet MemDF UHF energy') #TEST

for method in Eref["Triplet UHF"]["Composite"].keys():
    set scf_type $method 
    if method == "DirectDFJ+COSX": 
      set screening csam
    else:
      set screening density

    E = energy('scf')
    compare_values(Eref["Triplet UHF"]["Composite"][method], E, 6, f'Triplet {method} UHF energy') #TEST

clean()

print('    -Triplet ROHF:') #TEST
set scf reference rohf
set screening csam

set scf_type pk
E = energy('scf')
compare_values(Eref["Triplet ROHF"]["Canonical"], E, 6, 'Triplet PK ROHF energy') #TEST
clean()

set scf_type direct
E = energy('scf')
compare_values(Eref["Triplet ROHF"]["Canonical"], E, 6, 'Triplet Direct ROHF energy') #TEST
clean()

set scf_type out_of_core
E = energy('scf')
compare_values(Eref["Triplet ROHF"]["Canonical"], E, 6, 'Triplet Disk ROHF energy') #TEST
clean()

set scf_type disk_df
E = energy('scf')
compare_values(Eref["Triplet ROHF"]["DF"], E, 6, 'Triplet DiskDF ROHF energy') #TEST

set scf_type mem_df
E = energy('scf')
compare_values(Eref["Triplet ROHF"]["DF"], E, 6, 'Triplet MemDF ROHF energy') #TEST

for method in Eref["Triplet ROHF"]["Composite"].keys():
    set scf_type $method 
    if method == "DirectDFJ+COSX": 
      set screening csam
    else:
      set screening density

    E = energy('scf')
    compare_values(Eref["Triplet ROHF"]["Composite"][method], E, 6, f'Triplet {method} ROHF energy') #TEST

clean()

print('    -Triplet CUHF:') #TEST
set scf reference cuhf
set screening csam

set scf_type pk
E = energy('scf')
compare_values(Eref["Triplet ROHF"]["Canonical"], E, 6, 'Triplet PK CUHF energy') #TEST
clean()

set scf_type direct
E = energy('scf')
compare_values(Eref["Triplet ROHF"]["Canonical"], E, 6, 'Triplet Direct CUHF energy') #TEST
clean()

set scf_type out_of_core
E = energy('scf')
compare_values(Eref["Triplet ROHF"]["Canonical"], E, 6, 'Triplet Disk CUHF energy') #TEST
clean()

set scf_type disk_df
E = energy('scf')
compare_values(Eref["Triplet ROHF"]["DF"], E, 6, 'Triplet DiskDF CUHF energy') #TEST

set scf_type mem_df
E = energy('scf')
compare_values(Eref["Triplet ROHF"]["DF"], E, 6, 'Triplet MemDF CUHF energy') #TEST

for method in Eref["Triplet ROHF"]["Composite"].keys():
    set scf_type $method 
    if method == "DirectDFJ+COSX": 
      set screening csam
    else:
      set screening density

    E = energy('scf')
    compare_values(Eref["Triplet ROHF"]["Composite"][method], E, 6, f'Triplet {method} CUHF energy') #TEST
--------------------------------------------------------------------------
    Triplet nuclear repulsion energy......................................................PASSED
    Singlet nuclear repulsion energy......................................................PASSED

Scratch directory: /scratch/dpoole34/

*** tstart() called on ds6
*** at Thu Dec  8 15:56:27 2022

   => Loading Basis Set <=

    Name: CC-PVTZ
    Role: ORBITAL
    Keyword: BASIS
    atoms 1-2 entry O          line   262 file /theoryfs2/ds/dpoole34/Documents/Codes/psi4-compositejk-pilot/psi4-install/share/psi4/basis/cc-pvtz.gbs 


         ---------------------------------------------------------
                                   SCF
               by Justin Turney, Rob Parrish, Andy Simmonett
                          and Daniel G. A. Smith
                              RHF Reference
                        1 Threads,    500 MiB Core
         ---------------------------------------------------------

  ==> Geometry <==

    Molecular point group: d2h
    Full point group: D_inf_h

    Geometry (in Angstrom), charge = 0, multiplicity = 1:

       Center              X                  Y                   Z               Mass       
    ------------   -----------------  -----------------  -----------------  -----------------
         O            0.000000000000     0.000000000000    -0.550000000000    15.994914619570
         O            0.000000000000     0.000000000000     0.550000000000    15.994914619570

  Running in d2h symmetry.

  Rotational constants: A = ************  B =      1.74204  C =      1.74204 [cm^-1]
  Rotational constants: A = ************  B =  52225.17435  C =  52225.17435 [MHz]
  Nuclear repulsion =   30.788492257163654

  Charge       = 0
  Multiplicity = 1
  Electrons    = 16
  Nalpha       = 8
  Nbeta        = 8

  ==> Algorithm <==

  SCF Algorithm Type is PK.
  DIIS enabled.
  MOM disabled.
  Fractional occupation disabled.
  Guess Type is SAD.
  Energy threshold   = 1.00e-06
  Density threshold  = 1.00e-06
  Integral threshold = 1.00e-12

  ==> Primary Basis <==

  -AO BASIS SET INFORMATION:
    Name                   = CC-PVTZ
    Blend                  = CC-PVTZ
    Total number of shells = 20
    Number of primitives   = 52
    Number of AO           = 70
    Number of SO           = 60
    Maximum AM             = 3
    Spherical Harmonics    = TRUE

  -Contraction Scheme:
    Atom   Type   All Primitives // Shells:
   ------ ------ --------------------------
       1     O     18s 5p 2d 1f // 4s 3p 2d 1f 
       2     O     18s 5p 2d 1f // 4s 3p 2d 1f 

  ==> Integral Setup <==

  Using in-core PK algorithm.
   Calculation information:
      Number of atoms:                   2
      Number of AO shells:              20
      Number of primitives:             52
      Number of atomic orbitals:        70
      Number of basis functions:        60

      Integral cutoff                 1.00e-12
      Number of threads:                 1

  Performing in-core PK
  Using 3350730 doubles for integral storage.
  We computed 22155 shell quartets total.
  Whereas there are 22155 unique shell quartets.

  ==> DiskJK: Disk-Based J/K Matrices <==

    J tasked:                  Yes
    K tasked:                  Yes
    wK tasked:                  No
    Memory [MiB]:              375
    Schwarz Cutoff:          1E-12

    OpenMP threads:              1

  Minimum eigenvalue in the overlap matrix is 4.8903815329E-03.
  Reciprocal condition number of the overlap matrix is 1.3938644816E-03.
    Using symmetric orthogonalization.

  ==> Pre-Iterations <==

  SCF Guess: Superposition of Atomic Densities via on-the-fly atomic UHF (no occupation information).

   -------------------------
    Irrep   Nso     Nmo    
   -------------------------
     Ag        13      13 
     B1g        3       3 
     B2g        7       7 
     B3g        7       7 
     Au         3       3 
     B1u       13      13 
     B2u        7       7 
     B3u        7       7 
   -------------------------
    Total      60      60
   -------------------------

  ==> Iterations <==

                        Total Energy        Delta E     RMS |[F,P]|

   @RHF iter SAD:  -149.27731917078719   -1.49277e+02   0.00000e+00 
   @RHF iter   1:  -149.56362429559397   -2.86305e-01   1.10129e-02 DIIS/ADIIS
   @RHF iter   2:  -149.58582140635934   -2.21971e-02   2.91434e-03 DIIS/ADIIS
   @RHF iter   3:  -149.58712033600352   -1.29893e-03   6.40033e-04 DIIS/ADIIS
   @RHF iter   4:  -149.58723140197702   -1.11066e-04   1.37095e-04 DIIS/ADIIS
   @RHF iter   5:  -149.58723670345898   -5.30148e-06   1.80224e-05 DIIS
   @RHF iter   6:  -149.58723684553337   -1.42074e-07   2.57334e-06 DIIS
   @RHF iter   7:  -149.58723684812236   -2.58899e-09   2.40539e-07 DIIS
  Energy and wave function converged.


  ==> Post-Iterations <==

    Orbital Energies [Eh]
    ---------------------

    Doubly Occupied:                                                      

       1Ag   -20.718067     1B1u  -20.716526     2Ag    -1.762422  
       2B1u   -1.064379     1B2u   -0.813263     3Ag    -0.769320  
       1B3u   -0.708485     1B3g   -0.419982  

    Virtual:                                                              

       1B2g    0.078685     3B1u    0.460203     2B3u    0.693361  
       2B2u    0.696038     4Ag     0.713440     2B3g    0.825485  
       2B2g    0.852362     5Ag     0.879239     4B1u    0.888853  
       5B1u    1.412881     1B1g    1.443185     6Ag     1.444096  
       3B3u    1.639045     3B2u    1.640898     1Au     1.953275  
       6B1u    1.953758     7Ag     2.483687     3B2g    2.531435  
       7B1u    2.536370     3B3g    2.548758     4B3u    3.926932  
       4B2u    3.928209     8Ag     4.120755     4B2g    4.258203  
       4B3g    4.271808     2B1g    4.948341     9Ag     4.948845  
       5B3u    5.102979     8B1u    5.124402     5B2u    5.144953  
       6B3u    5.265700     6B2u    5.266028    10Ag     5.555961  
       5B2g    5.658925     5B3g    5.658932     9B1u    6.125748  
       2Au     6.407199    10B1u    6.408468     3B1g    6.547734  
      11Ag     6.547959     3Au     6.781720    11B1u    6.782596  
       6B2g    6.822795     6B3g    6.853235     7B3u    7.043562  
       7B2u    7.081948    12B1u    7.574642    12Ag     7.687791  
       7B2g    8.066014     7B3g    8.112245    13Ag     8.185163  
      13B1u   15.901523  

    Final Occupation by Irrep:
             Ag   B1g   B2g   B3g    Au   B1u   B2u   B3u 
    DOCC [     3,    0,    0,    1,    0,    2,    1,    1 ]
    NA   [     3,    0,    0,    1,    0,    2,    1,    1 ]
    NB   [     3,    0,    0,    1,    0,    2,    1,    1 ]

  @RHF Final Energy:  -149.58723684812236

   => Energetics <=

    Nuclear Repulsion Energy =             30.7884922571636537
    One-Electron Energy =                -266.8065684414700627
    Two-Electron Energy =                  86.4308393361840217
    Total Energy =                       -149.5872368481223873

Computation Completed


Properties will be evaluated at   0.000000,   0.000000,   0.000000 [a0]

Properties computed using the SCF density matrix


 Multipole Moments:

 ------------------------------------------------------------------------------------
     Multipole            Electronic (a.u.)      Nuclear  (a.u.)        Total (a.u.)
 ------------------------------------------------------------------------------------

 L = 1.  Multiply by 2.5417464519 to convert [e a0] to [Debye]
 Dipole X            :          0.0000000            0.0000000            0.0000000
 Dipole Y            :          0.0000000            0.0000000            0.0000000
 Dipole Z            :          0.0000000            0.0000000            0.0000000
 Magnitude           :                                                    0.0000000

 ------------------------------------------------------------------------------------

*** tstop() called on ds6 at Thu Dec  8 15:56:28 2022
Module time:
	user time   =       0.48 seconds =       0.01 minutes
	system time =       0.05 seconds =       0.00 minutes
	total time  =          1 seconds =       0.02 minutes
Total time:
	user time   =       0.48 seconds =       0.01 minutes
	system time =       0.05 seconds =       0.00 minutes
	total time  =          1 seconds =       0.02 minutes
    Singlet PK RHF energy.................................................................PASSED

Scratch directory: /scratch/dpoole34/

*** tstart() called on ds6
*** at Thu Dec  8 15:56:28 2022

   => Loading Basis Set <=

    Name: CC-PVTZ
    Role: ORBITAL
    Keyword: BASIS
    atoms 1-2 entry O          line   262 file /theoryfs2/ds/dpoole34/Documents/Codes/psi4-compositejk-pilot/psi4-install/share/psi4/basis/cc-pvtz.gbs 


         ---------------------------------------------------------
                                   SCF
               by Justin Turney, Rob Parrish, Andy Simmonett
                          and Daniel G. A. Smith
                              RHF Reference
                        1 Threads,    500 MiB Core
         ---------------------------------------------------------

  ==> Geometry <==

    Molecular point group: d2h
    Full point group: D_inf_h

    Geometry (in Angstrom), charge = 0, multiplicity = 1:

       Center              X                  Y                   Z               Mass       
    ------------   -----------------  -----------------  -----------------  -----------------
         O            0.000000000000     0.000000000000    -0.550000000000    15.994914619570
         O            0.000000000000     0.000000000000     0.550000000000    15.994914619570

  Running in d2h symmetry.

  Rotational constants: A = ************  B =      1.74204  C =      1.74204 [cm^-1]
  Rotational constants: A = ************  B =  52225.17435  C =  52225.17435 [MHz]
  Nuclear repulsion =   30.788492257163654

  Charge       = 0
  Multiplicity = 1
  Electrons    = 16
  Nalpha       = 8
  Nbeta        = 8

  ==> Algorithm <==

  SCF Algorithm Type is DIRECT.
  DIIS enabled.
  MOM disabled.
  Fractional occupation disabled.
  Guess Type is SAD.
  Energy threshold   = 1.00e-06
  Density threshold  = 1.00e-06
  Integral threshold = 1.00e-12

  ==> Primary Basis <==

  -AO BASIS SET INFORMATION:
    Name                   = CC-PVTZ
    Blend                  = CC-PVTZ
    Total number of shells = 20
    Number of primitives   = 52
    Number of AO           = 70
    Number of SO           = 60
    Maximum AM             = 3
    Spherical Harmonics    = TRUE

  -Contraction Scheme:
    Atom   Type   All Primitives // Shells:
   ------ ------ --------------------------
       1     O     18s 5p 2d 1f // 4s 3p 2d 1f 
       2     O     18s 5p 2d 1f // 4s 3p 2d 1f 

   => Loading Basis Set <=

    Name: CC-PVTZ-JKFIT
    Role: JKFIT
    Keyword: DF_BASIS_SCF
    atoms 1-2 entry O          line   229 file /theoryfs2/ds/dpoole34/Documents/Codes/psi4-compositejk-pilot/psi4-install/share/psi4/basis/cc-pvtz-jkfit.gbs 

  Starting with a DF guess...

  ==> Integral Setup <==

  DFHelper Memory: AOs need 0.005 GiB; user supplied 0.366 GiB. Using in-core AOs.

  ==> MemDFJK: Density-Fitted J/K Matrices <==

    J tasked:                   Yes
    K tasked:                   Yes
    wK tasked:                   No
    OpenMP threads:               1
    Memory [MiB]:               375
    Algorithm:                 Core
    Schwarz Cutoff:           1E-12
    Mask sparsity (%):       0.0000
    Fitting Condition:        1E-10

   => Auxiliary Basis Set <=

  -AO BASIS SET INFORMATION:
    Name                   = CC-PVTZ-JKFIT
    Blend                  = CC-PVTZ-JKFIT
    Total number of shells = 50
    Number of primitives   = 50
    Number of AO           = 192
    Number of SO           = 158
    Maximum AM             = 4
    Spherical Harmonics    = TRUE

  -Contraction Scheme:
    Atom   Type   All Primitives // Shells:
   ------ ------ --------------------------
       1     O     10s 7p 5d 2f 1g // 10s 7p 5d 2f 1g 
       2     O     10s 7p 5d 2f 1g // 10s 7p 5d 2f 1g 

  Minimum eigenvalue in the overlap matrix is 4.8903815329E-03.
  Reciprocal condition number of the overlap matrix is 1.3938644816E-03.
    Using symmetric orthogonalization.

  ==> Pre-Iterations <==

  SCF Guess: Superposition of Atomic Densities via on-the-fly atomic UHF (no occupation information).

   -------------------------
    Irrep   Nso     Nmo    
   -------------------------
     Ag        13      13 
     B1g        3       3 
     B2g        7       7 
     B3g        7       7 
     Au         3       3 
     B1u       13      13 
     B2u        7       7 
     B3u        7       7 
   -------------------------
    Total      60      60
   -------------------------

  ==> Iterations <==

                           Total Energy        Delta E     RMS |[F,P]|

   @DF-RHF iter SAD:  -149.27728822299318   -1.49277e+02   0.00000e+00 
   @DF-RHF iter   1:  -149.56354408328320   -2.86256e-01   1.10101e-02 DIIS/ADIIS
   @DF-RHF iter   2:  -149.58573446084222   -2.21904e-02   2.91563e-03 DIIS/ADIIS
   @DF-RHF iter   3:  -149.58703388315297   -1.29942e-03   6.40386e-04 DIIS/ADIIS
   @DF-RHF iter   4:  -149.58714509680502   -1.11214e-04   1.37129e-04 DIIS/ADIIS
   @DF-RHF iter   5:  -149.58715039895966   -5.30215e-06   1.80355e-05 DIIS
   @DF-RHF iter   6:  -149.58715054109825   -1.42139e-07   2.57889e-06 DIIS
   @DF-RHF iter   7:  -149.58715054369770   -2.59945e-09   2.41536e-07 DIIS

  DF guess converged.

  ==> DirectJK: Integral-Direct J/K Matrices <==

    J tasked:                  Yes
    K tasked:                  Yes
    wK tasked:                  No
    Integrals threads:           1
    Screening Type:           CSAM
    Screening Cutoff:        1E-12
    Incremental Fock:           No

   @RHF iter   8:  -149.58723673357815   -1.49587e+02   3.38768e-05 DIIS
   @RHF iter   9:  -149.58723684619764   -1.12619e-07   3.66091e-06 DIIS
   @RHF iter  10:  -149.58723684799025   -1.79261e-09   1.00186e-06 DIIS
   @RHF iter  11:  -149.58723684814120   -1.50948e-10   1.38849e-07 DIIS
  Energy and wave function converged.


  ==> Post-Iterations <==

    Orbital Energies [Eh]
    ---------------------

    Doubly Occupied:                                                      

       1Ag   -20.718066     1B1u  -20.716525     2Ag    -1.762421  
       2B1u   -1.064379     1B2u   -0.813263     3Ag    -0.769319  
       1B3u   -0.708484     1B3g   -0.419982  

    Virtual:                                                              

       1B2g    0.078686     3B1u    0.460203     2B3u    0.693361  
       2B2u    0.696038     4Ag     0.713440     2B3g    0.825485  
       2B2g    0.852362     5Ag     0.879239     4B1u    0.888853  
       5B1u    1.412882     1B1g    1.443185     6Ag     1.444096  
       3B3u    1.639046     3B2u    1.640898     1Au     1.953275  
       6B1u    1.953758     7Ag     2.483687     3B2g    2.531435  
       7B1u    2.536370     3B3g    2.548758     4B3u    3.926933  
       4B2u    3.928209     8Ag     4.120755     4B2g    4.258204  
       4B3g    4.271808     2B1g    4.948341     9Ag     4.948845  
       5B3u    5.102979     8B1u    5.124402     5B2u    5.144954  
       6B3u    5.265700     6B2u    5.266029    10Ag     5.555961  
       5B2g    5.658926     5B3g    5.658932     9B1u    6.125748  
       2Au     6.407200    10B1u    6.408468     3B1g    6.547734  
      11Ag     6.547960     3Au     6.781720    11B1u    6.782596  
       6B2g    6.822796     6B3g    6.853235     7B3u    7.043562  
       7B2u    7.081949    12B1u    7.574642    12Ag     7.687791  
       7B2g    8.066015     7B3g    8.112246    13Ag     8.185163  
      13B1u   15.901524  

    Final Occupation by Irrep:
             Ag   B1g   B2g   B3g    Au   B1u   B2u   B3u 
    DOCC [     3,    0,    0,    1,    0,    2,    1,    1 ]
    NA   [     3,    0,    0,    1,    0,    2,    1,    1 ]
    NB   [     3,    0,    0,    1,    0,    2,    1,    1 ]

  @RHF Final Energy:  -149.58723684814120

   => Energetics <=

    Nuclear Repulsion Energy =             30.7884922571636537
    One-Electron Energy =                -266.8065845228920807
    Two-Electron Energy =                  86.4308554175872246
    Total Energy =                       -149.5872368481412025

Computation Completed


Properties will be evaluated at   0.000000,   0.000000,   0.000000 [a0]

Properties computed using the SCF density matrix


 Multipole Moments:

 ------------------------------------------------------------------------------------
     Multipole            Electronic (a.u.)      Nuclear  (a.u.)        Total (a.u.)
 ------------------------------------------------------------------------------------

 L = 1.  Multiply by 2.5417464519 to convert [e a0] to [Debye]
 Dipole X            :          0.0000000            0.0000000            0.0000000
 Dipole Y            :          0.0000000            0.0000000            0.0000000
 Dipole Z            :          0.0000000            0.0000000            0.0000000
 Magnitude           :                                                    0.0000000

 ------------------------------------------------------------------------------------

*** tstop() called on ds6 at Thu Dec  8 15:56:29 2022
Module time:
	user time   =       0.80 seconds =       0.01 minutes
	system time =       0.00 seconds =       0.00 minutes
	total time  =          1 seconds =       0.02 minutes
Total time:
	user time   =       1.31 seconds =       0.02 minutes
	system time =       0.05 seconds =       0.00 minutes
	total time  =          2 seconds =       0.03 minutes
    Singlet Direct RHF energy.............................................................PASSED

Scratch directory: /scratch/dpoole34/

*** tstart() called on ds6
*** at Thu Dec  8 15:56:29 2022

   => Loading Basis Set <=

    Name: CC-PVTZ
    Role: ORBITAL
    Keyword: BASIS
    atoms 1-2 entry O          line   262 file /theoryfs2/ds/dpoole34/Documents/Codes/psi4-compositejk-pilot/psi4-install/share/psi4/basis/cc-pvtz.gbs 


         ---------------------------------------------------------
                                   SCF
               by Justin Turney, Rob Parrish, Andy Simmonett
                          and Daniel G. A. Smith
                              RHF Reference
                        1 Threads,    500 MiB Core
         ---------------------------------------------------------

  ==> Geometry <==

    Molecular point group: d2h
    Full point group: D_inf_h

    Geometry (in Angstrom), charge = 0, multiplicity = 1:

       Center              X                  Y                   Z               Mass       
    ------------   -----------------  -----------------  -----------------  -----------------
         O            0.000000000000     0.000000000000    -0.550000000000    15.994914619570
         O            0.000000000000     0.000000000000     0.550000000000    15.994914619570

  Running in d2h symmetry.

  Rotational constants: A = ************  B =      1.74204  C =      1.74204 [cm^-1]
  Rotational constants: A = ************  B =  52225.17435  C =  52225.17435 [MHz]
  Nuclear repulsion =   30.788492257163654

  Charge       = 0
  Multiplicity = 1
  Electrons    = 16
  Nalpha       = 8
  Nbeta        = 8

  ==> Algorithm <==

  SCF Algorithm Type is OUT_OF_CORE.
  DIIS enabled.
  MOM disabled.
  Fractional occupation disabled.
  Guess Type is SAD.
  Energy threshold   = 1.00e-06
  Density threshold  = 1.00e-06
  Integral threshold = 1.00e-12

  ==> Primary Basis <==

  -AO BASIS SET INFORMATION:
    Name                   = CC-PVTZ
    Blend                  = CC-PVTZ
    Total number of shells = 20
    Number of primitives   = 52
    Number of AO           = 70
    Number of SO           = 60
    Maximum AM             = 3
    Spherical Harmonics    = TRUE

  -Contraction Scheme:
    Atom   Type   All Primitives // Shells:
   ------ ------ --------------------------
       1     O     18s 5p 2d 1f // 4s 3p 2d 1f 
       2     O     18s 5p 2d 1f // 4s 3p 2d 1f 

  ==> Integral Setup <==

  ==> DiskJK: Disk-Based J/K Matrices <==

    J tasked:                  Yes
    K tasked:                  Yes
    wK tasked:                  No
    Memory [MiB]:              375
    Schwarz Cutoff:          1E-12

  Minimum eigenvalue in the overlap matrix is 4.8903815329E-03.
  Reciprocal condition number of the overlap matrix is 1.3938644816E-03.
    Using symmetric orthogonalization.

  ==> Pre-Iterations <==

  SCF Guess: Superposition of Atomic Densities via on-the-fly atomic UHF (no occupation information).

   -------------------------
    Irrep   Nso     Nmo    
   -------------------------
     Ag        13      13 
     B1g        3       3 
     B2g        7       7 
     B3g        7       7 
     Au         3       3 
     B1u       13      13 
     B2u        7       7 
     B3u        7       7 
   -------------------------
    Total      60      60
   -------------------------

  ==> Iterations <==

                        Total Energy        Delta E     RMS |[F,P]|

   @RHF iter SAD:  -149.27731917078717   -1.49277e+02   0.00000e+00 
   @RHF iter   1:  -149.56362429559405   -2.86305e-01   1.10129e-02 DIIS/ADIIS
   @RHF iter   2:  -149.58582140635943   -2.21971e-02   2.91434e-03 DIIS/ADIIS
   @RHF iter   3:  -149.58712033600364   -1.29893e-03   6.40033e-04 DIIS/ADIIS
   @RHF iter   4:  -149.58723140197691   -1.11066e-04   1.37095e-04 DIIS/ADIIS
   @RHF iter   5:  -149.58723670345898   -5.30148e-06   1.80224e-05 DIIS
   @RHF iter   6:  -149.58723684553323   -1.42074e-07   2.57334e-06 DIIS
   @RHF iter   7:  -149.58723684812244   -2.58922e-09   2.40539e-07 DIIS
  Energy and wave function converged.


  ==> Post-Iterations <==

    Orbital Energies [Eh]
    ---------------------

    Doubly Occupied:                                                      

       1Ag   -20.718067     1B1u  -20.716526     2Ag    -1.762422  
       2B1u   -1.064379     1B3u   -0.813263     3Ag    -0.769320  
       1B2u   -0.708485     1B2g   -0.419982  

    Virtual:                                                              

       1B3g    0.078685     3B1u    0.460203     2B2u    0.693361  
       2B3u    0.696038     4Ag     0.713440     2B2g    0.825485  
       2B3g    0.852362     5Ag     0.879239     4B1u    0.888853  
       5B1u    1.412881     1B1g    1.443185     6Ag     1.444096  
       3B2u    1.639045     3B3u    1.640898     1Au     1.953275  
       6B1u    1.953758     7Ag     2.483687     3B3g    2.531435  
       7B1u    2.536370     3B2g    2.548758     4B2u    3.926932  
       4B3u    3.928209     8Ag     4.120755     4B3g    4.258203  
       4B2g    4.271808     2B1g    4.948341     9Ag     4.948845  
       5B2u    5.102979     8B1u    5.124402     5B3u    5.144953  
       6B2u    5.265700     6B3u    5.266028    10Ag     5.555961  
       5B3g    5.658925     5B2g    5.658932     9B1u    6.125748  
       2Au     6.407199    10B1u    6.408468     3B1g    6.547734  
      11Ag     6.547959     3Au     6.781720    11B1u    6.782596  
       6B3g    6.822795     6B2g    6.853235     7B2u    7.043562  
       7B3u    7.081948    12B1u    7.574642    12Ag     7.687791  
       7B3g    8.066014     7B2g    8.112245    13Ag     8.185163  
      13B1u   15.901523  

    Final Occupation by Irrep:
             Ag   B1g   B2g   B3g    Au   B1u   B2u   B3u 
    DOCC [     3,    0,    1,    0,    0,    2,    1,    1 ]
    NA   [     3,    0,    1,    0,    0,    2,    1,    1 ]
    NB   [     3,    0,    1,    0,    0,    2,    1,    1 ]

  @RHF Final Energy:  -149.58723684812244

   => Energetics <=

    Nuclear Repulsion Energy =             30.7884922571636537
    One-Electron Energy =                -266.8065684414699490
    Two-Electron Energy =                  86.4308393361838512
    Total Energy =                       -149.5872368481224441

Computation Completed


Properties will be evaluated at   0.000000,   0.000000,   0.000000 [a0]

Properties computed using the SCF density matrix


 Multipole Moments:

 ------------------------------------------------------------------------------------
     Multipole            Electronic (a.u.)      Nuclear  (a.u.)        Total (a.u.)
 ------------------------------------------------------------------------------------

 L = 1.  Multiply by 2.5417464519 to convert [e a0] to [Debye]
 Dipole X            :          0.0000000            0.0000000            0.0000000
 Dipole Y            :          0.0000000            0.0000000            0.0000000
 Dipole Z            :          0.0000000            0.0000000            0.0000000
 Magnitude           :                                                    0.0000000

 ------------------------------------------------------------------------------------

*** tstop() called on ds6 at Thu Dec  8 15:56:29 2022
Module time:
	user time   =       0.33 seconds =       0.01 minutes
	system time =       0.01 seconds =       0.00 minutes
	total time  =          0 seconds =       0.00 minutes
Total time:
	user time   =       1.66 seconds =       0.03 minutes
	system time =       0.06 seconds =       0.00 minutes
	total time  =          2 seconds =       0.03 minutes
    Singlet Disk RHF energy...............................................................PASSED

Scratch directory: /scratch/dpoole34/

*** tstart() called on ds6
*** at Thu Dec  8 15:56:29 2022

   => Loading Basis Set <=

    Name: CC-PVTZ
    Role: ORBITAL
    Keyword: BASIS
    atoms 1-2 entry O          line   262 file /theoryfs2/ds/dpoole34/Documents/Codes/psi4-compositejk-pilot/psi4-install/share/psi4/basis/cc-pvtz.gbs 


         ---------------------------------------------------------
                                   SCF
               by Justin Turney, Rob Parrish, Andy Simmonett
                          and Daniel G. A. Smith
                              RHF Reference
                        1 Threads,    500 MiB Core
         ---------------------------------------------------------

  ==> Geometry <==

    Molecular point group: d2h
    Full point group: D_inf_h

    Geometry (in Angstrom), charge = 0, multiplicity = 1:

       Center              X                  Y                   Z               Mass       
    ------------   -----------------  -----------------  -----------------  -----------------
         O            0.000000000000     0.000000000000    -0.550000000000    15.994914619570
         O            0.000000000000     0.000000000000     0.550000000000    15.994914619570

  Running in d2h symmetry.

  Rotational constants: A = ************  B =      1.74204  C =      1.74204 [cm^-1]
  Rotational constants: A = ************  B =  52225.17435  C =  52225.17435 [MHz]
  Nuclear repulsion =   30.788492257163654

  Charge       = 0
  Multiplicity = 1
  Electrons    = 16
  Nalpha       = 8
  Nbeta        = 8

  ==> Algorithm <==

  SCF Algorithm Type is DISK_DF.
  DIIS enabled.
  MOM disabled.
  Fractional occupation disabled.
  Guess Type is SAD.
  Energy threshold   = 1.00e-06
  Density threshold  = 1.00e-06
  Integral threshold = 1.00e-12

  ==> Primary Basis <==

  -AO BASIS SET INFORMATION:
    Name                   = CC-PVTZ
    Blend                  = CC-PVTZ
    Total number of shells = 20
    Number of primitives   = 52
    Number of AO           = 70
    Number of SO           = 60
    Maximum AM             = 3
    Spherical Harmonics    = TRUE

  -Contraction Scheme:
    Atom   Type   All Primitives // Shells:
   ------ ------ --------------------------
       1     O     18s 5p 2d 1f // 4s 3p 2d 1f 
       2     O     18s 5p 2d 1f // 4s 3p 2d 1f 

   => Loading Basis Set <=

    Name: CC-PVTZ-JKFIT
    Role: JKFIT
    Keyword: DF_BASIS_SCF
    atoms 1-2 entry O          line   229 file /theoryfs2/ds/dpoole34/Documents/Codes/psi4-compositejk-pilot/psi4-install/share/psi4/basis/cc-pvtz-jkfit.gbs 

  ==> Integral Setup <==

  ==> DiskDFJK: Density-Fitted J/K Matrices <==

    J tasked:                  Yes
    K tasked:                  Yes
    wK tasked:                  No
    OpenMP threads:              1
    Integrals threads:           1
    Memory [MiB]:              375
    Algorithm:                Core
    Integral Cache:           NONE
    Schwarz Cutoff:          1E-12
    Fitting Condition:       1E-10

   => Auxiliary Basis Set <=

  -AO BASIS SET INFORMATION:
    Name                   = CC-PVTZ-JKFIT
    Blend                  = CC-PVTZ-JKFIT
    Total number of shells = 50
    Number of primitives   = 50
    Number of AO           = 192
    Number of SO           = 158
    Maximum AM             = 4
    Spherical Harmonics    = TRUE

  -Contraction Scheme:
    Atom   Type   All Primitives // Shells:
   ------ ------ --------------------------
       1     O     10s 7p 5d 2f 1g // 10s 7p 5d 2f 1g 
       2     O     10s 7p 5d 2f 1g // 10s 7p 5d 2f 1g 

  Minimum eigenvalue in the overlap matrix is 4.8903815329E-03.
  Reciprocal condition number of the overlap matrix is 1.3938644816E-03.
    Using symmetric orthogonalization.

  ==> Pre-Iterations <==

  SCF Guess: Superposition of Atomic Densities via on-the-fly atomic UHF (no occupation information).

   -------------------------
    Irrep   Nso     Nmo    
   -------------------------
     Ag        13      13 
     B1g        3       3 
     B2g        7       7 
     B3g        7       7 
     Au         3       3 
     B1u       13      13 
     B2u        7       7 
     B3u        7       7 
   -------------------------
    Total      60      60
   -------------------------

  ==> Iterations <==

                           Total Energy        Delta E     RMS |[F,P]|

   @DF-RHF iter SAD:  -149.27728822299321   -1.49277e+02   0.00000e+00 
   @DF-RHF iter   1:  -149.56354408328298   -2.86256e-01   1.10101e-02 DIIS/ADIIS
   @DF-RHF iter   2:  -149.58573446084225   -2.21904e-02   2.91563e-03 DIIS/ADIIS
   @DF-RHF iter   3:  -149.58703388315303   -1.29942e-03   6.40386e-04 DIIS/ADIIS
   @DF-RHF iter   4:  -149.58714509680513   -1.11214e-04   1.37129e-04 DIIS/ADIIS
   @DF-RHF iter   5:  -149.58715039895969   -5.30215e-06   1.80355e-05 DIIS
   @DF-RHF iter   6:  -149.58715054109831   -1.42139e-07   2.57889e-06 DIIS
   @DF-RHF iter   7:  -149.58715054369767   -2.59936e-09   2.41536e-07 DIIS
  Energy and wave function converged.


  ==> Post-Iterations <==

    Orbital Energies [Eh]
    ---------------------

    Doubly Occupied:                                                      

       1Ag   -20.718109     1B1u  -20.716568     2Ag    -1.762467  
       2B1u   -1.064399     1B2u   -0.813254     3Ag    -0.769334  
       1B3u   -0.708490     1B3g   -0.420019  

    Virtual:                                                              

       1B2g    0.078675     3B1u    0.460375     2B3u    0.693540  
       2B2u    0.696264     4Ag     0.713625     2B3g    0.825653  
       2B2g    0.852603     5Ag     0.879289     4B1u    0.888916  
       5B1u    1.413255     1B1g    1.443731     6Ag     1.444604  
       3B3u    1.639352     3B2u    1.641208     1Au     1.953829  
       6B1u    1.954302     7Ag     2.484071     3B2g    2.532031  
       7B1u    2.536801     3B3g    2.549181     4B3u    3.927538  
       4B2u    3.928887     8Ag     4.122937     4B2g    4.258945  
       4B3g    4.272670     2B1g    4.954074     9Ag     4.954589  
       5B3u    5.109414     8B1u    5.125493     5B2u    5.151847  
       6B3u    5.270829     6B2u    5.271178    10Ag     5.561366  
       5B2g    5.664224     5B3g    5.664230     9B1u    6.128570  
       2Au     6.413837    10B1u    6.415147     3B1g    6.555704  
      11Ag     6.556027     3Au     6.789297    11B1u    6.790263  
       6B2g    6.829341     6B3g    6.860859     7B3u    7.050774  
       7B2u    7.089664    12B1u    7.580301    12Ag     7.689595  
       7B2g    8.072681     7B3g    8.119435    13Ag     8.191892  
      13B1u   15.905483  

    Final Occupation by Irrep:
             Ag   B1g   B2g   B3g    Au   B1u   B2u   B3u 
    DOCC [     3,    0,    0,    1,    0,    2,    1,    1 ]
    NA   [     3,    0,    0,    1,    0,    2,    1,    1 ]
    NB   [     3,    0,    0,    1,    0,    2,    1,    1 ]

  @DF-RHF Final Energy:  -149.58715054369767

   => Energetics <=

    Nuclear Repulsion Energy =             30.7884922571636537
    One-Electron Energy =                -266.8060021671136042
    Two-Electron Energy =                  86.4303593662522758
    Total Energy =                       -149.5871505436976747

Computation Completed


Properties will be evaluated at   0.000000,   0.000000,   0.000000 [a0]

Properties computed using the SCF density matrix


 Multipole Moments:

 ------------------------------------------------------------------------------------
     Multipole            Electronic (a.u.)      Nuclear  (a.u.)        Total (a.u.)
 ------------------------------------------------------------------------------------

 L = 1.  Multiply by 2.5417464519 to convert [e a0] to [Debye]
 Dipole X            :          0.0000000            0.0000000            0.0000000
 Dipole Y            :          0.0000000            0.0000000            0.0000000
 Dipole Z            :          0.0000000            0.0000000            0.0000000
 Magnitude           :                                                    0.0000000

 ------------------------------------------------------------------------------------

*** tstop() called on ds6 at Thu Dec  8 15:56:29 2022
Module time:
	user time   =       0.22 seconds =       0.00 minutes
	system time =       0.01 seconds =       0.00 minutes
	total time  =          0 seconds =       0.00 minutes
Total time:
	user time   =       1.90 seconds =       0.03 minutes
	system time =       0.07 seconds =       0.00 minutes
	total time  =          2 seconds =       0.03 minutes
    Singlet DiskDF RHF energy.............................................................PASSED

Scratch directory: /scratch/dpoole34/

*** tstart() called on ds6
*** at Thu Dec  8 15:56:29 2022

   => Loading Basis Set <=

    Name: CC-PVTZ
    Role: ORBITAL
    Keyword: BASIS
    atoms 1-2 entry O          line   262 file /theoryfs2/ds/dpoole34/Documents/Codes/psi4-compositejk-pilot/psi4-install/share/psi4/basis/cc-pvtz.gbs 


         ---------------------------------------------------------
                                   SCF
               by Justin Turney, Rob Parrish, Andy Simmonett
                          and Daniel G. A. Smith
                              RHF Reference
                        1 Threads,    500 MiB Core
         ---------------------------------------------------------

  ==> Geometry <==

    Molecular point group: d2h
    Full point group: D_inf_h

    Geometry (in Angstrom), charge = 0, multiplicity = 1:

       Center              X                  Y                   Z               Mass       
    ------------   -----------------  -----------------  -----------------  -----------------
         O            0.000000000000     0.000000000000    -0.550000000000    15.994914619570
         O            0.000000000000     0.000000000000     0.550000000000    15.994914619570

  Running in d2h symmetry.

  Rotational constants: A = ************  B =      1.74204  C =      1.74204 [cm^-1]
  Rotational constants: A = ************  B =  52225.17435  C =  52225.17435 [MHz]
  Nuclear repulsion =   30.788492257163654

  Charge       = 0
  Multiplicity = 1
  Electrons    = 16
  Nalpha       = 8
  Nbeta        = 8

  ==> Algorithm <==

  SCF Algorithm Type is MEM_DF.
  DIIS enabled.
  MOM disabled.
  Fractional occupation disabled.
  Guess Type is SAD.
  Energy threshold   = 1.00e-06
  Density threshold  = 1.00e-06
  Integral threshold = 1.00e-12

  ==> Primary Basis <==

  -AO BASIS SET INFORMATION:
    Name                   = CC-PVTZ
    Blend                  = CC-PVTZ
    Total number of shells = 20
    Number of primitives   = 52
    Number of AO           = 70
    Number of SO           = 60
    Maximum AM             = 3
    Spherical Harmonics    = TRUE

  -Contraction Scheme:
    Atom   Type   All Primitives // Shells:
   ------ ------ --------------------------
       1     O     18s 5p 2d 1f // 4s 3p 2d 1f 
       2     O     18s 5p 2d 1f // 4s 3p 2d 1f 

   => Loading Basis Set <=

    Name: CC-PVTZ-JKFIT
    Role: JKFIT
    Keyword: DF_BASIS_SCF
    atoms 1-2 entry O          line   229 file /theoryfs2/ds/dpoole34/Documents/Codes/psi4-compositejk-pilot/psi4-install/share/psi4/basis/cc-pvtz-jkfit.gbs 

  ==> Integral Setup <==

  DFHelper Memory: AOs need 0.005 GiB; user supplied 0.366 GiB. Using in-core AOs.

  ==> MemDFJK: Density-Fitted J/K Matrices <==

    J tasked:                   Yes
    K tasked:                   Yes
    wK tasked:                   No
    OpenMP threads:               1
    Memory [MiB]:               375
    Algorithm:                 Core
    Schwarz Cutoff:           1E-12
    Mask sparsity (%):       0.0000
    Fitting Condition:        1E-10

   => Auxiliary Basis Set <=

  -AO BASIS SET INFORMATION:
    Name                   = CC-PVTZ-JKFIT
    Blend                  = CC-PVTZ-JKFIT
    Total number of shells = 50
    Number of primitives   = 50
    Number of AO           = 192
    Number of SO           = 158
    Maximum AM             = 4
    Spherical Harmonics    = TRUE

  -Contraction Scheme:
    Atom   Type   All Primitives // Shells:
   ------ ------ --------------------------
       1     O     10s 7p 5d 2f 1g // 10s 7p 5d 2f 1g 
       2     O     10s 7p 5d 2f 1g // 10s 7p 5d 2f 1g 

  Minimum eigenvalue in the overlap matrix is 4.8903815329E-03.
  Reciprocal condition number of the overlap matrix is 1.3938644816E-03.
    Using symmetric orthogonalization.

  ==> Pre-Iterations <==

  SCF Guess: Superposition of Atomic Densities via on-the-fly atomic UHF (no occupation information).

   -------------------------
    Irrep   Nso     Nmo    
   -------------------------
     Ag        13      13 
     B1g        3       3 
     B2g        7       7 
     B3g        7       7 
     Au         3       3 
     B1u       13      13 
     B2u        7       7 
     B3u        7       7 
   -------------------------
    Total      60      60
   -------------------------

  ==> Iterations <==

                           Total Energy        Delta E     RMS |[F,P]|

   @DF-RHF iter SAD:  -149.27728822299318   -1.49277e+02   0.00000e+00 
   @DF-RHF iter   1:  -149.56354408328320   -2.86256e-01   1.10101e-02 DIIS/ADIIS
   @DF-RHF iter   2:  -149.58573446084222   -2.21904e-02   2.91563e-03 DIIS/ADIIS
   @DF-RHF iter   3:  -149.58703388315297   -1.29942e-03   6.40386e-04 DIIS/ADIIS
   @DF-RHF iter   4:  -149.58714509680502   -1.11214e-04   1.37129e-04 DIIS/ADIIS
   @DF-RHF iter   5:  -149.58715039895966   -5.30215e-06   1.80355e-05 DIIS
   @DF-RHF iter   6:  -149.58715054109825   -1.42139e-07   2.57889e-06 DIIS
   @DF-RHF iter   7:  -149.58715054369770   -2.59945e-09   2.41536e-07 DIIS
  Energy and wave function converged.


  ==> Post-Iterations <==

    Orbital Energies [Eh]
    ---------------------

    Doubly Occupied:                                                      

       1Ag   -20.718109     1B1u  -20.716568     2Ag    -1.762467  
       2B1u   -1.064399     1B2u   -0.813254     3Ag    -0.769334  
       1B3u   -0.708490     1B3g   -0.420019  

    Virtual:                                                              

       1B2g    0.078675     3B1u    0.460375     2B3u    0.693540  
       2B2u    0.696264     4Ag     0.713625     2B3g    0.825653  
       2B2g    0.852603     5Ag     0.879289     4B1u    0.888916  
       5B1u    1.413255     1B1g    1.443731     6Ag     1.444604  
       3B3u    1.639352     3B2u    1.641208     1Au     1.953829  
       6B1u    1.954302     7Ag     2.484071     3B2g    2.532031  
       7B1u    2.536801     3B3g    2.549181     4B3u    3.927538  
       4B2u    3.928887     8Ag     4.122937     4B2g    4.258945  
       4B3g    4.272670     2B1g    4.954074     9Ag     4.954589  
       5B3u    5.109414     8B1u    5.125493     5B2u    5.151847  
       6B3u    5.270829     6B2u    5.271178    10Ag     5.561366  
       5B2g    5.664224     5B3g    5.664230     9B1u    6.128570  
       2Au     6.413837    10B1u    6.415147     3B1g    6.555704  
      11Ag     6.556027     3Au     6.789297    11B1u    6.790263  
       6B2g    6.829341     6B3g    6.860859     7B3u    7.050774  
       7B2u    7.089664    12B1u    7.580301    12Ag     7.689595  
       7B2g    8.072681     7B3g    8.119435    13Ag     8.191892  
      13B1u   15.905483  

    Final Occupation by Irrep:
             Ag   B1g   B2g   B3g    Au   B1u   B2u   B3u 
    DOCC [     3,    0,    0,    1,    0,    2,    1,    1 ]
    NA   [     3,    0,    0,    1,    0,    2,    1,    1 ]
    NB   [     3,    0,    0,    1,    0,    2,    1,    1 ]

  @DF-RHF Final Energy:  -149.58715054369770

   => Energetics <=

    Nuclear Repulsion Energy =             30.7884922571636537
    One-Electron Energy =                -266.8060021671136610
    Two-Electron Energy =                  86.4303593662522900
    Total Energy =                       -149.5871505436977031

Computation Completed


Properties will be evaluated at   0.000000,   0.000000,   0.000000 [a0]

Properties computed using the SCF density matrix


 Multipole Moments:

 ------------------------------------------------------------------------------------
     Multipole            Electronic (a.u.)      Nuclear  (a.u.)        Total (a.u.)
 ------------------------------------------------------------------------------------

 L = 1.  Multiply by 2.5417464519 to convert [e a0] to [Debye]
 Dipole X            :          0.0000000            0.0000000            0.0000000
 Dipole Y            :          0.0000000            0.0000000            0.0000000
 Dipole Z            :          0.0000000            0.0000000            0.0000000
 Magnitude           :                                                    0.0000000

 ------------------------------------------------------------------------------------

*** tstop() called on ds6 at Thu Dec  8 15:56:29 2022
Module time:
	user time   =       0.21 seconds =       0.00 minutes
	system time =       0.00 seconds =       0.00 minutes
	total time  =          0 seconds =       0.00 minutes
Total time:
	user time   =       2.14 seconds =       0.04 minutes
	system time =       0.07 seconds =       0.00 minutes
	total time  =          2 seconds =       0.03 minutes
    Singlet MemDF RHF energy..............................................................PASSED

Scratch directory: /scratch/dpoole34/

*** tstart() called on ds6
*** at Thu Dec  8 15:56:29 2022

   => Loading Basis Set <=

    Name: CC-PVTZ
    Role: ORBITAL
    Keyword: BASIS
    atoms 1-2 entry O          line   262 file /theoryfs2/ds/dpoole34/Documents/Codes/psi4-compositejk-pilot/psi4-install/share/psi4/basis/cc-pvtz.gbs 


         ---------------------------------------------------------
                                   SCF
               by Justin Turney, Rob Parrish, Andy Simmonett
                          and Daniel G. A. Smith
                              RHF Reference
                        1 Threads,    500 MiB Core
         ---------------------------------------------------------

  ==> Geometry <==

    Molecular point group: d2h
    Full point group: D_inf_h

    Geometry (in Angstrom), charge = 0, multiplicity = 1:

       Center              X                  Y                   Z               Mass       
    ------------   -----------------  -----------------  -----------------  -----------------
         O            0.000000000000     0.000000000000    -0.550000000000    15.994914619570
         O            0.000000000000     0.000000000000     0.550000000000    15.994914619570

  Running in d2h symmetry.

  Rotational constants: A = ************  B =      1.74204  C =      1.74204 [cm^-1]
  Rotational constants: A = ************  B =  52225.17435  C =  52225.17435 [MHz]
  Nuclear repulsion =   30.788492257163654

  Charge       = 0
  Multiplicity = 1
  Electrons    = 16
  Nalpha       = 8
  Nbeta        = 8

  ==> Algorithm <==

  SCF Algorithm Type is DIRECTDFJ+COSX.
  DIIS enabled.
  MOM disabled.
  Fractional occupation disabled.
  Guess Type is SAD.
  Energy threshold   = 1.00e-06
  Density threshold  = 1.00e-06
  Integral threshold = 1.00e-12

  ==> Primary Basis <==

  -AO BASIS SET INFORMATION:
    Name                   = CC-PVTZ
    Blend                  = CC-PVTZ
    Total number of shells = 20
    Number of primitives   = 52
    Number of AO           = 70
    Number of SO           = 60
    Maximum AM             = 3
    Spherical Harmonics    = TRUE

  -Contraction Scheme:
    Atom   Type   All Primitives // Shells:
   ------ ------ --------------------------
       1     O     18s 5p 2d 1f // 4s 3p 2d 1f 
       2     O     18s 5p 2d 1f // 4s 3p 2d 1f 

   => Loading Basis Set <=

    Name: CC-PVTZ-JKFIT
    Role: JKFIT
    Keyword: DF_BASIS_SCF
    atoms 1-2 entry O          line   229 file /theoryfs2/ds/dpoole34/Documents/Codes/psi4-compositejk-pilot/psi4-install/share/psi4/basis/cc-pvtz-jkfit.gbs 

jk_type: DIRECTDFJ+COSX 
j_type_: DIRECTDFJ 
k_type_: COSX 
  ==> Integral Setup <==

  ==> CompositeJK: Mix-and-Match J+K Algorithm Combos <==

    J tasked:                  Yes
    K tasked:                  Yes
    wK tasked:                  No
    Integrals threads:           1
    Memory [MiB]:              375
    Incremental Fock:           No
    Screening Type:           CSAM

  ==> DirectDFJ: Integral-Direct Density-Fitted J <==

    J Screening Cutoff:      1E-12

  ==> COSX: Chain-of-Spheres Semi-Numerical K <==

    K Screening Cutoff:       1E-11
    K Density Cutoff:         1E-10
    K Basis Cutoff:           1E-10
    K Overlap Fitting:          Yes

  Minimum eigenvalue in the overlap matrix is 4.8903815329E-03.
  Reciprocal condition number of the overlap matrix is 1.3938644816E-03.
    Using symmetric orthogonalization.

  ==> Pre-Iterations <==

  SCF Guess: Superposition of Atomic Densities via on-the-fly atomic UHF (no occupation information).

   -------------------------
    Irrep   Nso     Nmo    
   -------------------------
     Ag        13      13 
     B1g        3       3 
     B2g        7       7 
     B3g        7       7 
     Au         3       3 
     B1u       13      13 
     B2u        7       7 
     B3u        7       7 
   -------------------------
    Total      60      60
   -------------------------

  ==> Iterations <==

                        Total Energy        Delta E     RMS |[F,P]|

   @RHF iter SAD:  -149.27713328631933   -1.49277e+02   0.00000e+00 
   @RHF iter   1:  -149.56382697604778   -2.86694e-01   1.10975e-02 DIIS/ADIIS
   @RHF iter   2:  -149.58629558037484   -2.24686e-02   2.92559e-03 DIIS/ADIIS
   @RHF iter   3:  -149.58760428588195   -1.30871e-03   6.47395e-04 DIIS/ADIIS
   @RHF iter   4:  -149.58772283023291   -1.18544e-04   1.38075e-04 DIIS/ADIIS
   @RHF iter   5:  -149.58772855372339   -5.72349e-06   1.83160e-05 DIIS
   @RHF iter   6:  -149.58772885952462   -3.05801e-07   2.47041e-06 DIIS
   @RHF iter   7:  -149.58772885956984   -4.52189e-11   2.44347e-07 DIIS
  Energy and wave function converged with early screening.
  Performing final iteration with tighter screening.

   @RHF iter   8:  -149.58722317116360    5.05688e-04   9.91149e-04 DIIS/ADIIS
  Energy and wave function converged.


  ==> Post-Iterations <==

    Orbital Energies [Eh]
    ---------------------

    Doubly Occupied:                                                      

       1Ag   -20.718186     1B1u  -20.716591     2Ag    -1.762756  
       2B1u   -1.064574     1B2u   -0.812724     3Ag    -0.770577  
       1B3u   -0.707523     1B3g   -0.420229  

    Virtual:                                                              

       1B2g    0.078702     3B1u    0.460336     2B3u    0.693920  
       2B2u    0.696563     4Ag     0.713064     2B3g    0.825214  
       2B2g    0.852636     5Ag     0.879262     4B1u    0.889111  
       5B1u    1.413064     1B1g    1.442922     6Ag     1.443938  
       3B3u    1.637673     3B2u    1.642235     6B1u    1.953272  
       1Au     1.954322     7Ag     2.483527     3B2g    2.530348  
       7B1u    2.536977     3B3g    2.548923     4B3u    3.927463  
       4B2u    3.928699     8Ag     4.116806     4B2g    4.259266  
       4B3g    4.274563     2B1g    4.934640     9Ag     4.966106  
       5B3u    5.111788     8B1u    5.123534     5B2u    5.157197  
       6B2u    5.264086     6B3u    5.272739    10Ag     5.546638  
       5B3g    5.659533     5B2g    5.666050     9B1u    6.117812  
       2Au     6.397139    10B1u    6.421963     3B1g    6.546782  
      11Ag     6.548540     3Au     6.775088    11B1u    6.791609  
       6B2g    6.817736     6B3g    6.862237     7B3u    7.040086  
       7B2u    7.090378    12B1u    7.574534    12Ag     7.686631  
       7B2g    8.073746     7B3g    8.120090    13Ag     8.184818  
      13B1u   15.899399  

    Final Occupation by Irrep:
             Ag   B1g   B2g   B3g    Au   B1u   B2u   B3u 
    DOCC [     3,    0,    0,    1,    0,    2,    1,    1 ]
    NA   [     3,    0,    0,    1,    0,    2,    1,    1 ]
    NB   [     3,    0,    0,    1,    0,    2,    1,    1 ]

  @RHF Final Energy:  -149.58722317116360

   => Energetics <=

    Nuclear Repulsion Energy =             30.7884922571636537
    One-Electron Energy =                -266.8059033672358851
    Two-Electron Energy =                  86.4301879389086025
    Total Energy =                       -149.5872231711636289

Computation Completed


Properties will be evaluated at   0.000000,   0.000000,   0.000000 [a0]

Properties computed using the SCF density matrix


 Multipole Moments:

 ------------------------------------------------------------------------------------
     Multipole            Electronic (a.u.)      Nuclear  (a.u.)        Total (a.u.)
 ------------------------------------------------------------------------------------

 L = 1.  Multiply by 2.5417464519 to convert [e a0] to [Debye]
 Dipole X            :          0.0000000            0.0000000            0.0000000
 Dipole Y            :          0.0000000            0.0000000            0.0000000
 Dipole Z            :          0.0000000            0.0000000            0.0000000
 Magnitude           :                                                    0.0000000

 ------------------------------------------------------------------------------------

*** tstop() called on ds6 at Thu Dec  8 15:56:32 2022
Module time:
	user time   =       2.66 seconds =       0.04 minutes
	system time =       0.01 seconds =       0.00 minutes
	total time  =          3 seconds =       0.05 minutes
Total time:
	user time   =       4.83 seconds =       0.08 minutes
	system time =       0.08 seconds =       0.00 minutes
	total time  =          5 seconds =       0.08 minutes
    Singlet DirectDFJ+COSX RHF energy.....................................................PASSED

Scratch directory: /scratch/dpoole34/

*** tstart() called on ds6
*** at Thu Dec  8 15:56:32 2022

   => Loading Basis Set <=

    Name: CC-PVTZ
    Role: ORBITAL
    Keyword: BASIS
    atoms 1-2 entry O          line   262 file /theoryfs2/ds/dpoole34/Documents/Codes/psi4-compositejk-pilot/psi4-install/share/psi4/basis/cc-pvtz.gbs 


         ---------------------------------------------------------
                                   SCF
               by Justin Turney, Rob Parrish, Andy Simmonett
                          and Daniel G. A. Smith
                              RHF Reference
                        1 Threads,    500 MiB Core
         ---------------------------------------------------------

  ==> Geometry <==

    Molecular point group: d2h
    Full point group: D_inf_h

    Geometry (in Angstrom), charge = 0, multiplicity = 1:

       Center              X                  Y                   Z               Mass       
    ------------   -----------------  -----------------  -----------------  -----------------
         O            0.000000000000     0.000000000000    -0.550000000000    15.994914619570
         O            0.000000000000     0.000000000000     0.550000000000    15.994914619570

  Running in d2h symmetry.

  Rotational constants: A = ************  B =      1.74204  C =      1.74204 [cm^-1]
  Rotational constants: A = ************  B =  52225.17435  C =  52225.17435 [MHz]
  Nuclear repulsion =   30.788492257163654

  Charge       = 0
  Multiplicity = 1
  Electrons    = 16
  Nalpha       = 8
  Nbeta        = 8

  ==> Algorithm <==

  SCF Algorithm Type is DIRECTDFJ+LINK.
  DIIS enabled.
  MOM disabled.
  Fractional occupation disabled.
  Guess Type is SAD.
  Energy threshold   = 1.00e-06
  Density threshold  = 1.00e-06
  Integral threshold = 1.00e-12

  ==> Primary Basis <==

  -AO BASIS SET INFORMATION:
    Name                   = CC-PVTZ
    Blend                  = CC-PVTZ
    Total number of shells = 20
    Number of primitives   = 52
    Number of AO           = 70
    Number of SO           = 60
    Maximum AM             = 3
    Spherical Harmonics    = TRUE

  -Contraction Scheme:
    Atom   Type   All Primitives // Shells:
   ------ ------ --------------------------
       1     O     18s 5p 2d 1f // 4s 3p 2d 1f 
       2     O     18s 5p 2d 1f // 4s 3p 2d 1f 

   => Loading Basis Set <=

    Name: CC-PVTZ-JKFIT
    Role: JKFIT
    Keyword: DF_BASIS_SCF
    atoms 1-2 entry O          line   229 file /theoryfs2/ds/dpoole34/Documents/Codes/psi4-compositejk-pilot/psi4-install/share/psi4/basis/cc-pvtz-jkfit.gbs 

jk_type: DIRECTDFJ+LINK 
j_type_: DIRECTDFJ 
k_type_: LINK 
  ==> Integral Setup <==

  ==> CompositeJK: Mix-and-Match J+K Algorithm Combos <==

    J tasked:                  Yes
    K tasked:                  Yes
    wK tasked:                  No
    Integrals threads:           1
    Memory [MiB]:              375
    Incremental Fock:           No
    Screening Type:        DENSITY

  ==> DirectDFJ: Integral-Direct Density-Fitted J <==

    J Screening Cutoff:      1E-12

  ==> LinK: Linear Exchange K <==

    K Screening Cutoff:      1E-12

  Minimum eigenvalue in the overlap matrix is 4.8903815329E-03.
  Reciprocal condition number of the overlap matrix is 1.3938644816E-03.
    Using symmetric orthogonalization.

  ==> Pre-Iterations <==

  SCF Guess: Superposition of Atomic Densities via on-the-fly atomic UHF (no occupation information).

   -------------------------
    Irrep   Nso     Nmo    
   -------------------------
     Ag        13      13 
     B1g        3       3 
     B2g        7       7 
     B3g        7       7 
     Au         3       3 
     B1u       13      13 
     B2u        7       7 
     B3u        7       7 
   -------------------------
    Total      60      60
   -------------------------

  ==> Iterations <==

                        Total Energy        Delta E     RMS |[F,P]|

   @RHF iter SAD:  -149.27733086414972   -1.49277e+02   0.00000e+00 
   @RHF iter   1:  -149.56365008860479   -2.86319e-01   1.10142e-02 DIIS/ADIIS
   @RHF iter   2:  -149.58585218222913   -2.22021e-02   2.91422e-03 DIIS/ADIIS
   @RHF iter   3:  -149.58715113835385   -1.29896e-03   6.40333e-04 DIIS/ADIIS
   @RHF iter   4:  -149.58726227365057   -1.11135e-04   1.37172e-04 DIIS/ADIIS
   @RHF iter   5:  -149.58726757682942   -5.30318e-06   1.80326e-05 DIIS
   @RHF iter   6:  -149.58726771909238   -1.42263e-07   2.57489e-06 DIIS
   @RHF iter   7:  -149.58726772168649   -2.59411e-09   2.41117e-07 DIIS
  Energy and wave function converged with early screening.
  Performing final iteration with tighter screening.

   @RHF iter   8:  -149.58726772171005   -2.35616e-11   2.52639e-08 DIIS
  Energy and wave function converged.


  ==> Post-Iterations <==

    Orbital Energies [Eh]
    ---------------------

    Doubly Occupied:                                                      

       1Ag   -20.718071     1B1u  -20.716530     2Ag    -1.762433  
       2B1u   -1.064390     1B2u   -0.813259     3Ag    -0.769342  
       1B3u   -0.708496     1B3g   -0.420007  

    Virtual:                                                              

       1B2g    0.078682     3B1u    0.460327     2B3u    0.693384  
       2B2u    0.696113     4Ag     0.713512     2B3g    0.825385  
       2B2g    0.852393     5Ag     0.879195     4B1u    0.888887  
       5B1u    1.412849     1B1g    1.443170     6Ag     1.444044  
       3B3u    1.639004     3B2u    1.640861     1Au     1.953287  
       6B1u    1.953762     7Ag     2.483724     3B2g    2.531510  
       7B1u    2.536448     3B3g    2.548588     4B3u    3.926986  
       4B2u    3.928307     8Ag     4.120730     4B2g    4.258300  
       4B3g    4.271910     2B1g    4.948442     9Ag     4.948961  
       5B3u    5.103003     8B1u    5.124466     5B2u    5.145236  
       6B3u    5.265751     6B2u    5.266088    10Ag     5.555675  
       5B2g    5.658990     5B3g    5.658996     9B1u    6.125723  
       2Au     6.407176    10B1u    6.408484     3B1g    6.547508  
      11Ag     6.547837     3Au     6.781590    11B1u    6.782559  
       6B2g    6.822869     6B3g    6.853283     7B3u    7.043595  
       7B2u    7.081934    12B1u    7.574355    12Ag     7.687859  
       7B2g    8.066157     7B3g    8.112296    13Ag     8.185053  
      13B1u   15.901574  

    Final Occupation by Irrep:
             Ag   B1g   B2g   B3g    Au   B1u   B2u   B3u 
    DOCC [     3,    0,    0,    1,    0,    2,    1,    1 ]
    NA   [     3,    0,    0,    1,    0,    2,    1,    1 ]
    NB   [     3,    0,    0,    1,    0,    2,    1,    1 ]

  @RHF Final Energy:  -149.58726772171005

   => Energetics <=

    Nuclear Repulsion Energy =             30.7884922571636537
    One-Electron Energy =                -266.8064643237542555
    Two-Electron Energy =                  86.4307043448805530
    Total Energy =                       -149.5872677217100488

Computation Completed


Properties will be evaluated at   0.000000,   0.000000,   0.000000 [a0]

Properties computed using the SCF density matrix


 Multipole Moments:

 ------------------------------------------------------------------------------------
     Multipole            Electronic (a.u.)      Nuclear  (a.u.)        Total (a.u.)
 ------------------------------------------------------------------------------------

 L = 1.  Multiply by 2.5417464519 to convert [e a0] to [Debye]
 Dipole X            :          0.0000000            0.0000000            0.0000000
 Dipole Y            :          0.0000000            0.0000000            0.0000000
 Dipole Z            :          0.0000000            0.0000000            0.0000000
 Magnitude           :                                                    0.0000000

 ------------------------------------------------------------------------------------

*** tstop() called on ds6 at Thu Dec  8 15:56:34 2022
Module time:
	user time   =       1.56 seconds =       0.03 minutes
	system time =       0.01 seconds =       0.00 minutes
	total time  =          2 seconds =       0.03 minutes
Total time:
	user time   =       6.41 seconds =       0.11 minutes
	system time =       0.09 seconds =       0.00 minutes
	total time  =          7 seconds =       0.12 minutes
    Singlet DirectDFJ+LinK RHF energy.....................................................PASSED

Scratch directory: /scratch/dpoole34/

*** tstart() called on ds6
*** at Thu Dec  8 15:56:34 2022

   => Loading Basis Set <=

    Name: CC-PVTZ
    Role: ORBITAL
    Keyword: BASIS
    atoms 1-2 entry O          line   262 file /theoryfs2/ds/dpoole34/Documents/Codes/psi4-compositejk-pilot/psi4-install/share/psi4/basis/cc-pvtz.gbs 


         ---------------------------------------------------------
                                   SCF
               by Justin Turney, Rob Parrish, Andy Simmonett
                          and Daniel G. A. Smith
                              UHF Reference
                        1 Threads,    500 MiB Core
         ---------------------------------------------------------

  ==> Geometry <==

    Molecular point group: d2h
    Full point group: D_inf_h

    Geometry (in Angstrom), charge = 0, multiplicity = 1:

       Center              X                  Y                   Z               Mass       
    ------------   -----------------  -----------------  -----------------  -----------------
         O            0.000000000000     0.000000000000    -0.550000000000    15.994914619570
         O            0.000000000000     0.000000000000     0.550000000000    15.994914619570

  Running in d2h symmetry.

  Rotational constants: A = ************  B =      1.74204  C =      1.74204 [cm^-1]
  Rotational constants: A = ************  B =  52225.17435  C =  52225.17435 [MHz]
  Nuclear repulsion =   30.788492257163654

  Charge       = 0
  Multiplicity = 1
  Electrons    = 16
  Nalpha       = 8
  Nbeta        = 8

  ==> Algorithm <==

  SCF Algorithm Type is PK.
  DIIS enabled.
  MOM disabled.
  Fractional occupation disabled.
  Guess Type is SAD.
  Energy threshold   = 1.00e-06
  Density threshold  = 1.00e-06
  Integral threshold = 1.00e-12

  ==> Primary Basis <==

  -AO BASIS SET INFORMATION:
    Name                   = CC-PVTZ
    Blend                  = CC-PVTZ
    Total number of shells = 20
    Number of primitives   = 52
    Number of AO           = 70
    Number of SO           = 60
    Maximum AM             = 3
    Spherical Harmonics    = TRUE

  -Contraction Scheme:
    Atom   Type   All Primitives // Shells:
   ------ ------ --------------------------
       1     O     18s 5p 2d 1f // 4s 3p 2d 1f 
       2     O     18s 5p 2d 1f // 4s 3p 2d 1f 

  ==> Integral Setup <==

  Using in-core PK algorithm.
   Calculation information:
      Number of atoms:                   2
      Number of AO shells:              20
      Number of primitives:             52
      Number of atomic orbitals:        70
      Number of basis functions:        60

      Integral cutoff                 1.00e-12
      Number of threads:                 1

  Performing in-core PK
  Using 3350730 doubles for integral storage.
  We computed 22155 shell quartets total.
  Whereas there are 22155 unique shell quartets.

  ==> DiskJK: Disk-Based J/K Matrices <==

    J tasked:                  Yes
    K tasked:                  Yes
    wK tasked:                  No
    Memory [MiB]:              375
    Schwarz Cutoff:          1E-12

    OpenMP threads:              1

  Minimum eigenvalue in the overlap matrix is 4.8903815329E-03.
  Reciprocal condition number of the overlap matrix is 1.3938644816E-03.
    Using symmetric orthogonalization.

  ==> Pre-Iterations <==

  SCF Guess: Superposition of Atomic Densities via on-the-fly atomic UHF (no occupation information).

   -------------------------
    Irrep   Nso     Nmo    
   -------------------------
     Ag        13      13 
     B1g        3       3 
     B2g        7       7 
     B3g        7       7 
     Au         3       3 
     B1u       13      13 
     B2u        7       7 
     B3u        7       7 
   -------------------------
    Total      60      60
   -------------------------

  ==> Iterations <==

                        Total Energy        Delta E     RMS |[F,P]|

   @UHF iter SAD:  -149.27731917078719   -1.49277e+02   0.00000e+00 
   @UHF iter   1:  -149.56362429559397   -2.86305e-01   1.10129e-02 DIIS/ADIIS
   @UHF iter   2:  -149.58582140635937   -2.21971e-02   2.91434e-03 DIIS/ADIIS
   @UHF iter   3:  -149.58712033600366   -1.29893e-03   6.40033e-04 DIIS/ADIIS
   @UHF iter   4:  -149.58723140197694   -1.11066e-04   1.37095e-04 DIIS/ADIIS
   @UHF iter   5:  -149.58723670345910   -5.30148e-06   1.80224e-05 DIIS
   @UHF iter   6:  -149.58723684553337   -1.42074e-07   2.57334e-06 DIIS
   @UHF iter   7:  -149.58723684812236   -2.58899e-09   2.40539e-07 DIIS
  Energy and wave function converged.


  ==> Post-Iterations <==

   @Spin Contamination Metric:   3.552713679E-15
   @S^2 Expected:                0.000000000E+00
   @S^2 Observed:                3.552713679E-15
   @S   Expected:                0.000000000E+00
   @S   Observed:                0.000000000E+00

    Orbital Energies [Eh]
    ---------------------

    Alpha Occupied:                                                       

       1Ag   -20.718067     1B1u  -20.716526     2Ag    -1.762422  
       2B1u   -1.064379     1B2u   -0.813263     3Ag    -0.769320  
       1B3u   -0.708485     1B3g   -0.419982  

    Alpha Virtual:                                                        

       1B2g    0.078685     3B1u    0.460203     2B3u    0.693361  
       2B2u    0.696038     4Ag     0.713440     2B3g    0.825485  
       2B2g    0.852362     5Ag     0.879239     4B1u    0.888853  
       5B1u    1.412881     1B1g    1.443185     6Ag     1.444096  
       3B3u    1.639045     3B2u    1.640898     1Au     1.953275  
       6B1u    1.953758     7Ag     2.483687     3B2g    2.531435  
       7B1u    2.536370     3B3g    2.548758     4B3u    3.926932  
       4B2u    3.928209     8Ag     4.120755     4B2g    4.258203  
       4B3g    4.271808     2B1g    4.948341     9Ag     4.948845  
       5B3u    5.102979     8B1u    5.124402     5B2u    5.144953  
       6B3u    5.265700     6B2u    5.266028    10Ag     5.555961  
       5B2g    5.658925     5B3g    5.658932     9B1u    6.125748  
       2Au     6.407199    10B1u    6.408468     3B1g    6.547734  
      11Ag     6.547959     3Au     6.781720    11B1u    6.782596  
       6B2g    6.822795     6B3g    6.853235     7B3u    7.043562  
       7B2u    7.081948    12B1u    7.574642    12Ag     7.687791  
       7B2g    8.066014     7B3g    8.112245    13Ag     8.185163  
      13B1u   15.901523  

    Beta Occupied:                                                        

       1Ag   -20.718067     1B1u  -20.716526     2Ag    -1.762422  
       2B1u   -1.064379     1B2u   -0.813263     3Ag    -0.769320  
       1B3u   -0.708485     1B3g   -0.419982  

    Beta Virtual:                                                         

       1B2g    0.078685     3B1u    0.460203     2B3u    0.693361  
       2B2u    0.696038     4Ag     0.713440     2B3g    0.825485  
       2B2g    0.852362     5Ag     0.879239     4B1u    0.888853  
       5B1u    1.412881     1B1g    1.443185     6Ag     1.444096  
       3B3u    1.639045     3B2u    1.640898     1Au     1.953275  
       6B1u    1.953758     7Ag     2.483687     3B2g    2.531435  
       7B1u    2.536370     3B3g    2.548758     4B3u    3.926932  
       4B2u    3.928209     8Ag     4.120755     4B2g    4.258203  
       4B3g    4.271808     2B1g    4.948341     9Ag     4.948845  
       5B3u    5.102979     8B1u    5.124402     5B2u    5.144953  
       6B3u    5.265700     6B2u    5.266028    10Ag     5.555961  
       5B2g    5.658925     5B3g    5.658932     9B1u    6.125748  
       2Au     6.407199    10B1u    6.408468     3B1g    6.547734  
      11Ag     6.547959     3Au     6.781720    11B1u    6.782596  
       6B2g    6.822795     6B3g    6.853235     7B3u    7.043562  
       7B2u    7.081948    12B1u    7.574642    12Ag     7.687791  
       7B2g    8.066014     7B3g    8.112245    13Ag     8.185163  
      13B1u   15.901523  

    Final Occupation by Irrep:
             Ag   B1g   B2g   B3g    Au   B1u   B2u   B3u 
    DOCC [     3,    0,    0,    1,    0,    2,    1,    1 ]
    SOCC [     0,    0,    0,    0,    0,    0,    0,    0 ]
    NA   [     3,    0,    0,    1,    0,    2,    1,    1 ]
    NB   [     3,    0,    0,    1,    0,    2,    1,    1 ]

  @UHF Final Energy:  -149.58723684812236

   => Energetics <=

    Nuclear Repulsion Energy =             30.7884922571636537
    One-Electron Energy =                -266.8065684414700627
    Two-Electron Energy =                  86.4308393361840501
    Total Energy =                       -149.5872368481223589

  UHF NO Occupations:
  HONO-2 :    2 Ag 2.0000000
  HONO-1 :    3 Ag 2.0000000
  HONO-0 :    1B2u 2.0000000
  LUNO+0 :    3B1u 0.0000000
  LUNO+1 :    2B3u 0.0000000
  LUNO+2 :    4B1u 0.0000000
  LUNO+3 :    2B2u 0.0000000


Computation Completed


Properties will be evaluated at   0.000000,   0.000000,   0.000000 [a0]

Properties computed using the SCF density matrix


 Multipole Moments:

 ------------------------------------------------------------------------------------
     Multipole            Electronic (a.u.)      Nuclear  (a.u.)        Total (a.u.)
 ------------------------------------------------------------------------------------

 L = 1.  Multiply by 2.5417464519 to convert [e a0] to [Debye]
 Dipole X            :          0.0000000            0.0000000            0.0000000
 Dipole Y            :          0.0000000            0.0000000            0.0000000
 Dipole Z            :          0.0000000            0.0000000            0.0000000
 Magnitude           :                                                    0.0000000

 ------------------------------------------------------------------------------------

*** tstop() called on ds6 at Thu Dec  8 15:56:34 2022
Module time:
	user time   =       0.42 seconds =       0.01 minutes
	system time =       0.01 seconds =       0.00 minutes
	total time  =          0 seconds =       0.00 minutes
Total time:
	user time   =       6.86 seconds =       0.11 minutes
	system time =       0.10 seconds =       0.00 minutes
	total time  =          7 seconds =       0.12 minutes
    Singlet PK UHF energy.................................................................PASSED

Scratch directory: /scratch/dpoole34/

*** tstart() called on ds6
*** at Thu Dec  8 15:56:34 2022

   => Loading Basis Set <=

    Name: CC-PVTZ
    Role: ORBITAL
    Keyword: BASIS
[...]
    Number of SO           = 60
    Maximum AM             = 3
    Spherical Harmonics    = TRUE

  -Contraction Scheme:
    Atom   Type   All Primitives // Shells:
   ------ ------ --------------------------
       1     O     18s 5p 2d 1f // 4s 3p 2d 1f 
       2     O     18s 5p 2d 1f // 4s 3p 2d 1f 

   => Loading Basis Set <=

    Name: CC-PVTZ-JKFIT
    Role: JKFIT
    Keyword: DF_BASIS_SCF
    atoms 1-2 entry O          line   229 file /theoryfs2/ds/dpoole34/Documents/Codes/psi4-compositejk-pilot/psi4-install/share/psi4/basis/cc-pvtz-jkfit.gbs 

jk_type: DIRECTDFJ+COSX 
j_type_: DIRECTDFJ 
k_type_: COSX 
  ==> Integral Setup <==

  ==> CompositeJK: Mix-and-Match J+K Algorithm Combos <==

    J tasked:                  Yes
    K tasked:                  Yes
    wK tasked:                  No
    Integrals threads:           1
    Memory [MiB]:              375
    Incremental Fock:           No
    Screening Type:           CSAM

  ==> DirectDFJ: Integral-Direct Density-Fitted J <==

    J Screening Cutoff:      1E-12

  ==> COSX: Chain-of-Spheres Semi-Numerical K <==

    K Screening Cutoff:       1E-11
    K Density Cutoff:         1E-10
    K Basis Cutoff:           1E-10
    K Overlap Fitting:          Yes

  Minimum eigenvalue in the overlap matrix is 4.8903815329E-03.
  Reciprocal condition number of the overlap matrix is 1.3938644816E-03.
    Using symmetric orthogonalization.

  ==> Pre-Iterations <==

  SCF Guess: Core (One-Electron) Hamiltonian.

   -------------------------------------------------------
    Irrep   Nso     Nmo     Nalpha   Nbeta   Ndocc  Nsocc
   -------------------------------------------------------
     Ag        13      13       3       2       2       1
     B1g        3       3       0       0       0       0
     B2g        7       7       1       1       1       0
     B3g        7       7       1       0       0       1
     Au         3       3       0       0       0       0
     B1u       13      13       2       2       2       0
     B2u        7       7       1       1       1       0
     B3u        7       7       1       1       1       0
   -------------------------------------------------------
    Total      60      60       9       7       7       2
   -------------------------------------------------------

  ==> Iterations <==

                        Total Energy        Delta E     RMS |[F,P]|

    Occupation by irrep:
             Ag   B1g   B2g   B3g    Au   B1u   B2u   B3u 
    DOCC [     3,    0,    0,    0,    0,    2,    1,    1 ]
    SOCC [     0,    0,    1,    1,    0,    0,    0,    0 ]
    NA   [     3,    0,    1,    1,    0,    2,    1,    1 ]
    NB   [     3,    0,    0,    0,    0,    2,    1,    1 ]

   @CUHF iter   1:  -131.02266731942410   -1.31023e+02   3.53890e-01 ADIIS
   @CUHF iter   2:  -140.10621696114637   -9.08355e+00   1.85157e-01 ADIIS
   @CUHF iter   3:  -149.07283195574368   -8.96661e+00   6.18535e-02 DIIS/ADIIS
   @CUHF iter   4:  -149.63845093676028   -5.65619e-01   1.00842e-02 DIIS/ADIIS
   @CUHF iter   5:  -149.65151108189110   -1.30601e-02   1.51377e-03 DIIS/ADIIS
   @CUHF iter   6:  -149.65197130478217   -4.60223e-04   2.18032e-04 DIIS/ADIIS
   @CUHF iter   7:  -149.65199790962754   -2.66048e-05   1.85204e-05 DIIS
   @CUHF iter   8:  -149.65199703995134    8.69676e-07   2.10529e-06 DIIS
   @CUHF iter   9:  -149.65199679272942    2.47222e-07   3.47492e-07 DIIS
  Energy and wave function converged with early screening.
  Performing final iteration with tighter screening.

   @CUHF iter  10:  -149.65168894016250    3.07853e-04   9.18132e-04 DIIS/ADIIS
  Energy and wave function converged.


  ==> Post-Iterations <==


  @Spin Contamination Metric:  0.00000
  @S^2 Expected:               2.00000
  @S^2 Observed:               2.00000
    Orbital Energies [Eh]
    ---------------------

    Alpha Occupied:                                                       

       1Ag   -20.728757     1B1u  -20.727605     2Ag    -1.806087  
       2B1u   -1.149189     1B2u   -0.864782     1B3u   -0.864782  
       3Ag    -0.802389     1B3g   -0.482531     1B2g   -0.482530  

    Alpha Virtual:                                                        

       3B1u    0.445404     2B2u    0.672701     2B3u    0.672701  
       4Ag     0.708346     2B3g    0.800654     2B2g    0.800654  
       4B1u    0.864673     5Ag     0.868517     5B1u    1.397675  
       6Ag     1.416201     1B1g    1.418214     3B2u    1.605883  
       3B3u    1.605883     6B1u    1.907327     1Au     1.910657  
       7Ag     2.466145     3B3g    2.516733     3B2g    2.516733  
       7B1u    2.526836     4B2u    3.886011     4B3u    3.886011  
       8Ag     4.111102     4B3g    4.227868     4B2g    4.227868  
       2B1g    4.918417     9Ag     4.955901     8B1u    5.112410  
       5B2u    5.122667     5B3u    5.122667     6B2u    5.246270  
       6B3u    5.246270    10Ag     5.537965     5B3g    5.637117  
       5B2g    5.637117     9B1u    6.106685     2Au     6.374536  
      10B1u    6.395537    11Ag     6.498106     3B1g    6.507911  
       3Au     6.738265    11B1u    6.751969     6B3g    6.814804  
       6B2g    6.814804     7B2u    7.043000     7B3u    7.043000  
      12B1u    7.566657    12Ag     7.666393     7B3g    8.085680  
       7B2g    8.085680    13Ag     8.181368    13B1u   15.889469  

    Beta Occupied:                                                        

       1Ag   -20.687707     1B1u  -20.685696     2Ag    -1.707357  
       2B1u   -0.969531     3Ag    -0.726113     1B3u   -0.642651  
       1B2u   -0.642651  

    Beta Virtual:                                                         

       1B2g    0.142081     1B3g    0.142081     3B1u    0.476720  
       2B3u    0.720713     2B2u    0.720713     4Ag     0.720907  
       2B2g    0.886189     2B3g    0.886189     5Ag     0.898254  
       4B1u    0.926291     5B1u    1.434223     1B1g    1.474983  
       6Ag     1.477090     3B3u    1.680645     3B2u    1.680645  
       6B1u    2.005140     1Au     2.005229     7Ag     2.507342  
       7B1u    2.555218     3B3g    2.568822     3B2g    2.568822  
       4B3u    3.982298     4B2u    3.982298     8Ag     4.136137  
       4B2g    4.318366     4B3g    4.318366     2B1g    4.961161  
       9Ag     4.986073     8B1u    5.145922     5B3u    5.158455  
       5B2u    5.158455     6B3u    5.299560     6B2u    5.299560  
      10Ag     5.567425     5B2g    5.698314     5B3g    5.698314  
       9B1u    6.142639     2Au     6.430950    10B1u    6.455303  
       3B1g    6.599929    11Ag     6.611731     3Au     6.824983  
      11B1u    6.842848     6B2g    6.877247     6B3g    6.877247  
       7B3u    7.099689     7B2u    7.099689    12B1u    7.595597  
      12Ag     7.719166     7B2g    8.119079     7B3g    8.119080  
      13Ag     8.200488    13B1u   15.923821  

    Final Occupation by Irrep:
             Ag   B1g   B2g   B3g    Au   B1u   B2u   B3u 
    DOCC [     3,    0,    0,    0,    0,    2,    1,    1 ]
    SOCC [     0,    0,    1,    1,    0,    0,    0,    0 ]
    NA   [     3,    0,    1,    1,    0,    2,    1,    1 ]
    NB   [     3,    0,    0,    0,    0,    2,    1,    1 ]

  @CUHF Final Energy:  -149.65168894016250

   => Energetics <=

    Nuclear Repulsion Energy =             30.7884922571636537
    One-Electron Energy =                -266.9107736954305210
    Two-Electron Energy =                  86.4705924981043665
    Total Energy =                       -149.6516889401625008

Computation Completed


Properties will be evaluated at   0.000000,   0.000000,   0.000000 [a0]

Properties computed using the SCF density matrix


 Multipole Moments:

 ------------------------------------------------------------------------------------
     Multipole            Electronic (a.u.)      Nuclear  (a.u.)        Total (a.u.)
 ------------------------------------------------------------------------------------

 L = 1.  Multiply by 2.5417464519 to convert [e a0] to [Debye]
 Dipole X            :          0.0000000            0.0000000            0.0000000
 Dipole Y            :          0.0000000            0.0000000            0.0000000
 Dipole Z            :          0.0000000            0.0000000            0.0000000
 Magnitude           :                                                    0.0000000

 ------------------------------------------------------------------------------------

*** tstop() called on ds6 at Thu Dec  8 15:57:07 2022
Module time:
	user time   =       3.01 seconds =       0.05 minutes
	system time =       0.00 seconds =       0.00 minutes
	total time  =          3 seconds =       0.05 minutes
Total time:
	user time   =      38.16 seconds =       0.64 minutes
	system time =       0.39 seconds =       0.01 minutes
	total time  =         40 seconds =       0.67 minutes
    Triplet DirectDFJ+COSX CUHF energy....................................................PASSED

Scratch directory: /scratch/dpoole34/

*** tstart() called on ds6
*** at Thu Dec  8 15:57:07 2022

   => Loading Basis Set <=

    Name: CC-PVTZ
    Role: ORBITAL
    Keyword: BASIS
    atoms 1-2 entry O          line   262 file /theoryfs2/ds/dpoole34/Documents/Codes/psi4-compositejk-pilot/psi4-install/share/psi4/basis/cc-pvtz.gbs 


         ---------------------------------------------------------
                                   SCF
               by Justin Turney, Rob Parrish, Andy Simmonett
                          and Daniel G. A. Smith
                             CUHF Reference
                        1 Threads,    500 MiB Core
         ---------------------------------------------------------

  ==> Geometry <==

    Molecular point group: d2h
    Full point group: D_inf_h

    Geometry (in Angstrom), charge = 0, multiplicity = 3:

       Center              X                  Y                   Z               Mass       
    ------------   -----------------  -----------------  -----------------  -----------------
         O            0.000000000000     0.000000000000    -0.550000000000    15.994914619570
         O            0.000000000000     0.000000000000     0.550000000000    15.994914619570

  Running in d2h symmetry.

  Rotational constants: A = ************  B =      1.74204  C =      1.74204 [cm^-1]
  Rotational constants: A = ************  B =  52225.17435  C =  52225.17435 [MHz]
  Nuclear repulsion =   30.788492257163654

  Charge       = 0
  Multiplicity = 3
  Electrons    = 16
  Nalpha       = 9
  Nbeta        = 7

  ==> Algorithm <==

  SCF Algorithm Type is DIRECTDFJ+LINK.
  DIIS enabled.
  MOM disabled.
  Fractional occupation disabled.
  Guess Type is CORE.
  Energy threshold   = 1.00e-06
  Density threshold  = 1.00e-06
  Integral threshold = 1.00e-12

  ==> Primary Basis <==

  -AO BASIS SET INFORMATION:
    Name                   = CC-PVTZ
    Blend                  = CC-PVTZ
    Total number of shells = 20
    Number of primitives   = 52
    Number of AO           = 70
    Number of SO           = 60
    Maximum AM             = 3
    Spherical Harmonics    = TRUE

  -Contraction Scheme:
    Atom   Type   All Primitives // Shells:
   ------ ------ --------------------------
       1     O     18s 5p 2d 1f // 4s 3p 2d 1f 
       2     O     18s 5p 2d 1f // 4s 3p 2d 1f 

   => Loading Basis Set <=

    Name: CC-PVTZ-JKFIT
    Role: JKFIT
    Keyword: DF_BASIS_SCF
    atoms 1-2 entry O          line   229 file /theoryfs2/ds/dpoole34/Documents/Codes/psi4-compositejk-pilot/psi4-install/share/psi4/basis/cc-pvtz-jkfit.gbs 

jk_type: DIRECTDFJ+LINK 
j_type_: DIRECTDFJ 
k_type_: LINK 
  ==> Integral Setup <==

  ==> CompositeJK: Mix-and-Match J+K Algorithm Combos <==

    J tasked:                  Yes
    K tasked:                  Yes
    wK tasked:                  No
    Integrals threads:           1
    Memory [MiB]:              375
    Incremental Fock:           No
    Screening Type:        DENSITY

  ==> DirectDFJ: Integral-Direct Density-Fitted J <==

    J Screening Cutoff:      1E-12

  ==> LinK: Linear Exchange K <==

    K Screening Cutoff:      1E-12

  Minimum eigenvalue in the overlap matrix is 4.8903815329E-03.
  Reciprocal condition number of the overlap matrix is 1.3938644816E-03.
    Using symmetric orthogonalization.

  ==> Pre-Iterations <==

  SCF Guess: Core (One-Electron) Hamiltonian.

   -------------------------------------------------------
    Irrep   Nso     Nmo     Nalpha   Nbeta   Ndocc  Nsocc
   -------------------------------------------------------
     Ag        13      13       3       2       2       1
     B1g        3       3       0       0       0       0
     B2g        7       7       1       1       1       0
     B3g        7       7       1       0       0       1
     Au         3       3       0       0       0       0
     B1u       13      13       2       2       2       0
     B2u        7       7       1       1       1       0
     B3u        7       7       1       1       1       0
   -------------------------------------------------------
    Total      60      60       9       7       7       2
   -------------------------------------------------------

  ==> Iterations <==

                        Total Energy        Delta E     RMS |[F,P]|

    Occupation by irrep:
             Ag   B1g   B2g   B3g    Au   B1u   B2u   B3u 
    DOCC [     3,    0,    0,    0,    0,    2,    1,    1 ]
    SOCC [     0,    0,    1,    1,    0,    0,    0,    0 ]
    NA   [     3,    0,    1,    1,    0,    2,    1,    1 ]
    NB   [     3,    0,    0,    0,    0,    2,    1,    1 ]

   @CUHF iter   1:  -131.02824188718688   -1.31028e+02   3.53702e-01 ADIIS
   @CUHF iter   2:  -140.10809986937485   -9.07986e+00   1.85134e-01 ADIIS
   @CUHF iter   3:  -149.07220799997785   -8.96411e+00   6.18921e-02 DIIS/ADIIS
   @CUHF iter   4:  -149.63818696514193   -5.65979e-01   1.00981e-02 DIIS/ADIIS
   @CUHF iter   5:  -149.65124590648082   -1.30589e-02   1.50640e-03 DIIS/ADIIS
   @CUHF iter   6:  -149.65169910490741   -4.53198e-04   2.17102e-04 DIIS/ADIIS
   @CUHF iter   7:  -149.65172663379946   -2.75289e-05   1.84171e-05 DIIS
   @CUHF iter   8:  -149.65172580983571    8.23964e-07   2.07767e-06 DIIS
   @CUHF iter   9:  -149.65172556019775    2.49638e-07   3.39954e-07 DIIS
  Energy and wave function converged with early screening.
  Performing final iteration with tighter screening.

   @CUHF iter  10:  -149.65172557239580   -1.21981e-08   3.45835e-08 DIIS
  Energy and wave function converged.


  ==> Post-Iterations <==


  @Spin Contamination Metric: -0.00000
  @S^2 Expected:               2.00000
  @S^2 Observed:               2.00000
    Orbital Energies [Eh]
    ---------------------

    Alpha Occupied:                                                       

       1Ag   -20.728398     1B1u  -20.727317     2Ag    -1.805367  
       2B1u   -1.148933     1B2u   -0.865419     1B3u   -0.865419  
       3Ag    -0.800983     1B3g   -0.482430     1B2g   -0.482430  

    Alpha Virtual:                                                        

       3B1u    0.445310     2B2u    0.672362     2B3u    0.672362  
       4Ag     0.708797     2B3g    0.800644     2B2g    0.800644  
       4B1u    0.864404     5Ag     0.868543     5B1u    1.397451  
       1B1g    1.417410     6Ag     1.417410     3B3u    1.606430  
       3B2u    1.606430     1Au     1.908630     6B1u    1.908630  
       7Ag     2.465571     3B3g    2.517352     3B2g    2.517352  
       7B1u    2.526457     4B2u    3.885638     4B3u    3.885638  
       8Ag     4.114396     4B3g    4.226322     4B2g    4.226322  
       2B1g    4.935271     9Ag     4.935271     8B1u    5.113391  
       5B2u    5.114110     5B3u    5.114110     6B2u    5.242081  
       6B3u    5.242081    10Ag     5.545379     5B2g    5.632454  
       5B3g    5.632454     9B1u    6.112599     2Au     6.383370  
      10B1u    6.383370     3B1g    6.502457    11Ag     6.502457  
       3Au     6.742945    11B1u    6.742945     6B3g    6.815154  
       6B2g    6.815154     7B2u    7.042432     7B3u    7.042432  
      12B1u    7.564508    12Ag     7.667256     7B3g    8.078056  
       7B2g    8.078056    13Ag     8.179734    13B1u   15.891893  

    Beta Occupied:                                                        

       1Ag   -20.687355     1B1u  -20.685383     2Ag    -1.707015  
       2B1u   -0.969322     3Ag    -0.725056     1B3u   -0.643196  
       1B2u   -0.643196  

    Beta Virtual:                                                         

       1B2g    0.142287     1B3g    0.142287     3B1u    0.476802  
       2B2u    0.720212     2B3u    0.720212     4Ag     0.721377  
       2B3g    0.886285     2B2g    0.886285     5Ag     0.898254  
       4B1u    0.926186     5B1u    1.434105     6Ag     1.476400  
       1B1g    1.476400     3B3u    1.680255     3B2u    1.680255  
       6B1u    2.005192     1Au     2.005192     7Ag     2.508330  
       7B1u    2.554596     3B3g    2.569109     3B2g    2.569109  
       4B2u    3.982057     4B3u    3.982057     8Ag     4.140991  
       4B2g    4.316591     4B3g    4.316591     9Ag     4.972230  
       2B1g    4.972230     8B1u    5.146981     5B3u    5.147763  
       5B2u    5.147763     6B3u    5.297966     6B2u    5.297966  
      10Ag     5.578685     5B2g    5.695636     5B3g    5.695636  
       9B1u    6.152219    10B1u    6.441977     2Au     6.441977  
      11Ag     6.606782     3B1g    6.606782    11B1u    6.833751  
       3Au     6.833751     6B2g    6.873160     6B3g    6.873160  
       7B3u    7.095426     7B2u    7.095426    12B1u    7.597460  
      12Ag     7.720996     7B2g    8.111551     7B3g    8.111551  
      13Ag     8.202647    13B1u   15.926130  

    Final Occupation by Irrep:
             Ag   B1g   B2g   B3g    Au   B1u   B2u   B3u 
    DOCC [     3,    0,    0,    0,    0,    2,    1,    1 ]
    SOCC [     0,    0,    1,    1,    0,    0,    0,    0 ]
    NA   [     3,    0,    1,    1,    0,    2,    1,    1 ]
    NB   [     3,    0,    0,    0,    0,    2,    1,    1 ]

  @CUHF Final Energy:  -149.65172557239580

   => Energetics <=

    Nuclear Repulsion Energy =             30.7884922571636537
    One-Electron Energy =                -266.9132123095817519
    Two-Electron Energy =                  86.4729944800222938
    Total Energy =                       -149.6517255723958044

Computation Completed


Properties will be evaluated at   0.000000,   0.000000,   0.000000 [a0]

Properties computed using the SCF density matrix


 Multipole Moments:

 ------------------------------------------------------------------------------------
     Multipole            Electronic (a.u.)      Nuclear  (a.u.)        Total (a.u.)
 ------------------------------------------------------------------------------------

 L = 1.  Multiply by 2.5417464519 to convert [e a0] to [Debye]
 Dipole X            :          0.0000000            0.0000000            0.0000000
 Dipole Y            :          0.0000000            0.0000000            0.0000000
 Dipole Z            :          0.0000000            0.0000000            0.0000000
 Magnitude           :                                                    0.0000000

 ------------------------------------------------------------------------------------

*** tstop() called on ds6 at Thu Dec  8 15:57:09 2022
Module time:
	user time   =       1.87 seconds =       0.03 minutes
	system time =       0.01 seconds =       0.00 minutes
	total time  =          2 seconds =       0.03 minutes
Total time:
	user time   =      40.06 seconds =       0.67 minutes
	system time =       0.40 seconds =       0.01 minutes
	total time  =         42 seconds =       0.70 minutes
    Triplet DirectDFJ+LinK CUHF energy....................................................PASSED

    Psi4 stopped on: Thursday, 08 December 2022 03:57PM
    Psi4 wall time for execution: 0:00:41.59

*** Psi4 exiting successfully. Buy a developer a beer!
