    -----------------------------------------------------------------------
          PSI4: An Open-Source Ab Initio Electronic Structure Package
                              PSI 4.0.0-beta1 Driver

    J. M. Turney, A. C. Simmonett, R. M. Parrish, E. G. Hohenstein,
    F. Evangelista, J. T. Fermann, B. J. Mintz, L. A. Burns, J. J. Wilke,
    M. L. Abrams, N. J. Russ, M. L. Leininger, C. L. Janssen, E. T. Seidl,
    W. D. Allen, H. F. Schaefer, R. A. King, E. F. Valeev, C. D. Sherrill,
    and T. D. Crawford, WIREs Comput. Mol. Sci., (2011) (doi: 10.1002/wcms.93)

                         Additional Contributions by
    A. E. DePrince, M. Saitow, U. Bozkaya, A. Yu. Sokolov
    -----------------------------------------------------------------------


    Using LocalCommunicator (Number of processes = 1)

    Memory level set to 256.000 MB

  ==> Input File <==

--------------------------------------------------------------------------
#! Test of all different algorithms and reference types for SCF, on singlet and triplet O2, using the cc-pVTZ basis set.

memory 250 mb

print_stdout(' Case Study Test of all SCF algorithms/spin-degeneracies: Singlet-Triplet O2') #TEST

#Ensure that the checkpoint file is always nuked
psi4_io.set_specific_retention(32,False)

Eref_nuc      =   28.22278445813334 #TEST
Eref_sing_can = -149.59059723621149 #TEST
Eref_sing_df  = -149.59052878646830 #TEST
Eref_uhf_can  = -149.67638746522147 #TEST
Eref_uhf_df   = -149.67630610260213 #TEST
Eref_rohf_can = -149.65398718700044 #TEST
Eref_rohf_df  = -149.65390603529437 #TEST

molecule singlet_o2 {
    0 1
    O
    O 1 1.2
    units    angstrom
}

molecule triplet_o2 {
    0 3
    O
    O 1 1.2
    units    angstrom
}
singlet_o2.update_geometry()
triplet_o2.update_geometry()

print_stdout('   -Nuclear Repulsion:') #TEST
compare_values(Eref_nuc, triplet_o2.nuclear_repulsion_energy(), 9, "Triplet nuclear repulsion energy")  #TEST
compare_values(Eref_nuc, singlet_o2.nuclear_repulsion_energy(), 9, "Singlet nuclear repulsion energy")  #TEST

activate(singlet_o2)
set globals {
    basis cc-pvtz
    df_basis_scf cc-pvtz-jkfit
    guess core
    print 2
}

print_stdout('    -Singlet RHF:') #TEST
set scf reference rhf

set scf scf_type pk
E = energy('scf')
compare_values(Eref_sing_can, E, 9, 'Singlet PK RHF energy') #TEST

set scf scf_type direct
E = energy('scf')
compare_values(Eref_sing_can, E, 9, 'Singlet Direct RHF energy') #TEST

set scf scf_type out_of_core 
E = energy('scf')
compare_values(Eref_sing_can, E, 9, 'Singlet Disk RHF energy') #TEST

set scf scf_type df 
E = energy('scf')
compare_values(Eref_sing_df, E, 9, 'Singlet DF RHF energy') #TEST

print_stdout('    -Singlet UHF:') #TEST
set scf reference uhf

set scf scf_type pk
E = energy('scf')
compare_values(Eref_sing_can, E, 9, 'Singlet PK UHF energy') #TEST

set scf scf_type direct
E = energy('scf')
compare_values(Eref_sing_can, E, 9, 'Singlet Direct UHF energy') #TEST

set scf scf_type out_of_core 
E = energy('scf')
compare_values(Eref_sing_can, E, 9, 'Singlet Disk UHF energy') #TEST

set scf scf_type df 
E = energy('scf')
compare_values(Eref_sing_df, E, 9, 'Singlet DF UHF energy') #TEST

print_stdout('    -Singlet CUHF:') #TEST
set scf reference cuhf

set scf scf_type pk
E = energy('scf')
compare_values(Eref_sing_can, E, 9, 'Singlet PK CUHF energy') #TEST

set scf scf_type direct
E = energy('scf')
compare_values(Eref_sing_can, E, 9, 'Singlet Direct CUHF energy') #TEST

set scf scf_type out_of_core
E = energy('scf')
compare_values(Eref_sing_can, E, 9, 'Singlet Disk CUHF energy') #TEST

set scf scf_type df
E = energy('scf')
compare_values(Eref_sing_df, E, 9, 'Singlet DF CUHF energy') #TEST

activate(triplet_o2)
set globals {
    basis cc-pvtz
    df_basis_scf cc-pvtz-jkfit
    guess core
    print 2
}

print_stdout('    -Triplet UHF:') #TEST
set scf reference uhf

set scf scf_type pk
E = energy('scf')
compare_values(Eref_uhf_can, E, 9, 'Triplet PK UHF energy') #TEST

set scf scf_type direct
E = energy('scf')
compare_values(Eref_uhf_can, E, 9, 'Triplet Direct UHF energy') #TEST

set scf scf_type out_of_core 
E = energy('scf')
compare_values(Eref_uhf_can, E, 9, 'Triplet Disk UHF energy') #TEST

set scf scf_type df 
E = energy('scf')
compare_values(Eref_uhf_df, E, 9, 'Triplet DF UHF energy') #TEST

clean()

print_stdout('    -Triplet ROHF:') #TEST
set scf reference rohf

set scf scf_type pk
E = energy('scf')
compare_values(Eref_rohf_can, E, 9, 'Triplet PK ROHF energy') #TEST
clean()

set scf scf_type direct
E = energy('scf')
compare_values(Eref_rohf_can, E, 9, 'Triplet Direct ROHF energy') #TEST
clean()

set scf scf_type out_of_core 
E = energy('scf')
compare_values(Eref_rohf_can, E, 9, 'Triplet Disk ROHF energy') #TEST
clean()

set scf scf_type df 
E = energy('scf')
compare_values(Eref_rohf_df, E, 9, 'Triplet DF ROHF energy') #TEST

clean()

print_stdout('    -Triplet CUHF:') #TEST
set scf reference cuhf

set scf scf_type pk
E = energy('scf')
compare_values(Eref_rohf_can, E, 9, 'Triplet PK CUHF energy') #TEST
clean()

set scf scf_type direct
E = energy('scf')
compare_values(Eref_rohf_can, E, 9, 'Triplet Direct CUHF energy') #TEST
clean()

set scf scf_type out_of_core
E = energy('scf')
compare_values(Eref_rohf_can, E, 9, 'Triplet Disk CUHF energy') #TEST
clean()

set scf scf_type df
E = energy('scf')
compare_values(Eref_rohf_df, E, 9, 'Triplet DF CUHF energy') #TEST
--------------------------------------------------------------------------

  Memory set to 250.000 MiB by Python script.

*** tstart() called on QuickSilver.local
*** at Mon Jan 23 14:38:05 2012


         ---------------------------------------------------------
                                   SCF
            by Justin Turney, Rob Parrish, and Andy Simmonett
                              RHF Reference
                        1 Threads,    250 MiB Core
         ---------------------------------------------------------

  ==> Geometry <==

    Molecular point group: d2h

    Geometry (in Angstrom), charge = 0, multiplicity = 1:

       Center              X                  Y                   Z       
    ------------   -----------------  -----------------  -----------------
           O          0.000000000000     0.000000000000    -0.600000000000
           O          0.000000000000     0.000000000000     0.600000000000

    Number of unique atoms: 1

    Atoms equivalency:
       unique atom 0: 0 1 

  Running in d2h symmetry.

  Nuclear repulsion =   28.222784458133336

  Charge       = 0
  Multiplicity = 1
  Electrons    = 16
  Nalpha       = 8
  Nbeta        = 8

  ==> Algorithm <==

  SCF Algorithm Type is PK.
  DIIS enabled.
  MOM disabled.
  Fractional occupation disabled.
  Guess Type is CORE.
  Energy threshold   = 1.00e-08
  Density threshold  = 1.00e-08
  Integral threshold = 0.00e+00

  ==> Primary Basis: CC-PVTZ <==

  -AO BASIS SET INFORMATION:
    Total number of shells = 20
    Number of primitives   = 52
    Number of AO           = 70
    Number of SO           = 60
    Maximum AM             = 3
    Spherical Harmonics    = TRUE

  -Contraction Scheme:
    Atom   Type   All Primitives // Shells:
   ------ ------ --------------------------
       1     O     18s 5p 2d 1f // 4s 3p 2d 1f 
       2     O     18s 5p 2d 1f // 4s 3p 2d 1f 

  ==> Pre-Iterations <==

  Minimum eigenvalue in the overlap matrix is 4.2858401312E-03.
  Using Symmetric Orthogonalization.
  SCF Guess: Core (One-Electron) Hamiltonian.

  Initial RHF energy:  -113.02734711776702

   -------------------------------------------------------
    Irrep   Nso     Nmo     Nalpha   Nbeta   Ndocc  Nsocc
   -------------------------------------------------------
     Ag        13      13       2       2       2       0
     B1g        3       3       0       0       0       0
     B2g        7       7       1       1       1       0
     B3g        7       7       1       1       1       0
     Au         3       3       0       0       0       0
     B1u       13      13       2       2       2       0
     B2u        7       7       1       1       1       0
     B3u        7       7       1       1       1       0
   -------------------------------------------------------
    Total      60      60       8       8       8       0
   -------------------------------------------------------

  ==> Integral Setup <==

 MINTS: Wrapper to libmints.
   by Justin Turney

   Calculation information:
      Number of atoms:                   2
      Number of AO shells:              20
      Number of SO shells:              10
      Number of primitives:             52
      Number of atomic orbitals:        70
      Number of basis functions:        60

      Number of irreps:                  8
      Number of functions per irrep: [  13    3    7    7    3   13    7    7 ]

      Overlap, kinetic, potential, dipole, and quadrupole integrals
        stored in file 35.

      Computing two-electron integrals...done
      Computed 180477 non-zero two-electron integrals.
        Stored in file 33.

  ==> Iterations <==

                        Total Energy        Delta E     Density RMS

  Forming PK and K matrices.
   @RHF iter   1:  -130.87953989478825   -1.78522e+01   0.00000e+00 
	Occupation by irrep:
	         Ag   B1g   B2g   B3g    Au   B1u   B2u   B3u 
	DOCC [     3,    0,    1,    0,    0,    2,    1,    1 ]
   @RHF iter   2:  -140.04253152363867   -9.16299e+00   2.20869e-01 DIIS
   @RHF iter   3:  -149.17635355329762   -9.13382e+00   2.03083e-01 DIIS
   @RHF iter   4:  -149.57809876181392   -4.01745e-01   1.46708e-02 DIIS
   @RHF iter   5:  -149.59038744607497   -1.22887e-02   3.98344e-03 DIIS
   @RHF iter   6:  -149.59059079586575   -2.03350e-04   4.93283e-04 DIIS
   @RHF iter   7:  -149.59059711351483   -6.31765e-06   9.62861e-05 DIIS
   @RHF iter   8:  -149.59059723201258   -1.18498e-07   1.30989e-05 DIIS
   @RHF iter   9:  -149.59059723617762   -4.16503e-09   2.01100e-06 DIIS
   @RHF iter  10:  -149.59059723621081   -3.31966e-11   1.77929e-07 DIIS
   @RHF iter  11:  -149.59059723621161   -7.95808e-13   2.99466e-08 DIIS

  ==> Post-Iterations <==

	Orbital Energies (a.u.)
	-----------------------

	Doubly Occupied:                                                      

	   1Ag   -20.736925     1B1u  -20.735943     2Ag    -1.660892  
	   2B1u   -1.099790     1B3u   -0.771305     3Ag    -0.740462  
	   1B2u   -0.653896     1B2g   -0.465277  

	Virtual:                                                              

	   1B3g    0.031321     3B1u    0.406493     2B3u    0.707901  
	   2B2u    0.712323     4Ag     0.732820     4B1u    0.756268  
	   2B2g    0.819940     2B3g    0.843976     5Ag     0.882861  
	   5B1u    1.444546     1B1g    1.469088     6Ag     1.469942  
	   3B2u    1.565694     3B3u    1.570360     1Au     1.907237  
	   6B1u    1.907834     7Ag     2.407942     7B1u    2.460438  
	   3B3g    2.472245     3B2g    2.489880     4B3u    3.902655  
	   4B2u    3.903278     8Ag     4.070102     4B3g    4.184680  
	   4B2g    4.195949     9Ag     4.987948     2B1g    4.988359  
	   5B2u    5.046561     5B3u    5.089896     8B1u    5.200734  
	   6B2u    5.335037     6B3u    5.335166    10Ag     5.344708  
	   5B3g    5.592782     5B2g    5.592787     9B1u    6.156038  
	   2Au     6.157019    10B1u    6.219951     3B1g    6.545084  
	  11Ag     6.545302     3Au     6.758054    11B1u    6.758835  
	   6B3g    6.793031     6B2g    6.823678     7B2u    6.893180  
	   7B3u    6.929298    12B1u    7.198171    12Ag     7.538826  
	   7B3g    7.658779     7B2g    7.704344    13Ag     8.086811  
	  13B1u   13.022494  

	Final Occupation by Irrep:
	         Ag   B1g   B2g   B3g    Au   B1u   B2u   B3u 
	DOCC [     3,    0,    1,    0,    0,    2,    1,    1 ]

  Energy converged.

  @RHF Final Energy:  -149.59059723621161

  ==> Properties <==
  Nuclear Dipole Moment: (a.u.)
     X:     0.0000      Y:     0.0000      Z:     0.0000

  Electronic Dipole Moment: (a.u.)
     X:     0.0000      Y:     0.0000      Z:     0.0000

  Dipole Moment: (a.u.)
     X:     0.0000      Y:     0.0000      Z:     0.0000     Total:     0.0000

  Dipole Moment: (Debye)
     X:     0.0000      Y:     0.0000      Z:     0.0000     Total:     0.0000

  Quadrupole Moment: (Debye Ang)
    XX:   -10.7610     YY:    -9.1629     ZZ:   -10.4188
    XY:     0.0000     XZ:     0.0000     YZ:     0.0000

  Traceless Quadrupole Moment: (Debye Ang)
    XX:    -0.6468     YY:     0.9513     ZZ:    -0.3046
    XY:     0.0000     XZ:     0.0000     YZ:     0.0000

  Mulliken Charges: (a.u.)
   Center  Symbol    Alpha    Beta     Spin     Total
       1     O     4.00000  4.00000  0.00000  0.00000
       2     O     4.00000  4.00000  0.00000  0.00000

   Total alpha =  8.00000, Total beta =  8.00000, Total charge =  0.00000


  Saving occupied orbitals to File 180.

*** tstop() called on QuickSilver.local at Mon Jan 23 14:38:05 2012
Module time:
	user time   =       0.56 seconds =       0.01 minutes
	system time =       0.03 seconds =       0.00 minutes
	total time  =          0 seconds =       0.00 minutes
Total time:
	user time   =       0.56 seconds =       0.01 minutes
	system time =       0.03 seconds =       0.00 minutes
	total time  =          0 seconds =       0.00 minutes

*** tstart() called on QuickSilver.local
*** at Mon Jan 23 14:38:05 2012


         ---------------------------------------------------------
                                   SCF
            by Justin Turney, Rob Parrish, and Andy Simmonett
                              RHF Reference
                        1 Threads,    250 MiB Core
         ---------------------------------------------------------

  ==> Geometry <==

    Molecular point group: d2h

    Geometry (in Angstrom), charge = 0, multiplicity = 1:

       Center              X                  Y                   Z       
    ------------   -----------------  -----------------  -----------------
           O          0.000000000000     0.000000000000    -0.600000000000
           O          0.000000000000     0.000000000000     0.600000000000

    Number of unique atoms: 1

    Atoms equivalency:
       unique atom 0: 0 1 

  Running in d2h symmetry.

  Nuclear repulsion =   28.222784458133336

  Charge       = 0
  Multiplicity = 1
  Electrons    = 16
  Nalpha       = 8
  Nbeta        = 8

  ==> Algorithm <==

  SCF Algorithm Type is DIRECT.
  DIIS enabled.
  MOM disabled.
  Fractional occupation disabled.
  Guess Type is CORE.
  Energy threshold   = 1.00e-08
  Density threshold  = 1.00e-08
  Integral threshold = 0.00e+00

  ==> Primary Basis: CC-PVTZ <==

  -AO BASIS SET INFORMATION:
    Total number of shells = 20
    Number of primitives   = 52
    Number of AO           = 70
    Number of SO           = 60
    Maximum AM             = 3
    Spherical Harmonics    = TRUE

  -Contraction Scheme:
    Atom   Type   All Primitives // Shells:
   ------ ------ --------------------------
       1     O     18s 5p 2d 1f // 4s 3p 2d 1f 
       2     O     18s 5p 2d 1f // 4s 3p 2d 1f 

  ==> Pre-Iterations <==

  Minimum eigenvalue in the overlap matrix is 4.2858401312E-03.
  Using Symmetric Orthogonalization.
  SCF Guess: Core (One-Electron) Hamiltonian.

  Initial RHF energy:  -113.02734711776702

   -------------------------------------------------------
    Irrep   Nso     Nmo     Nalpha   Nbeta   Ndocc  Nsocc
   -------------------------------------------------------
     Ag        13      13       2       2       2       0
     B1g        3       3       0       0       0       0
     B2g        7       7       1       1       1       0
     B3g        7       7       1       1       1       0
     Au         3       3       0       0       0       0
     B1u       13      13       2       2       2       0
     B2u        7       7       1       1       1       0
     B3u        7       7       1       1       1       0
   -------------------------------------------------------
    Total      60      60       8       8       8       0
   -------------------------------------------------------

  ==> Integral Setup <==

  Building Direct Integral Objects...

  ==> Iterations <==

                        Total Energy        Delta E     Density RMS

   @RHF iter   1:  -130.87953989478822   -1.78522e+01   0.00000e+00 
	Occupation by irrep:
	         Ag   B1g   B2g   B3g    Au   B1u   B2u   B3u 
	DOCC [     3,    0,    0,    1,    0,    2,    1,    1 ]
   @RHF iter   2:  -140.04253152363884   -9.16299e+00   2.20869e-01 DIIS
   @RHF iter   3:  -149.17635355329773   -9.13382e+00   2.03083e-01 DIIS
   @RHF iter   4:  -149.57809876181398   -4.01745e-01   1.46708e-02 DIIS
   @RHF iter   5:  -149.59038744607497   -1.22887e-02   3.98344e-03 DIIS
   @RHF iter   6:  -149.59059079586586   -2.03350e-04   4.93283e-04 DIIS
   @RHF iter   7:  -149.59059711351478   -6.31765e-06   9.62861e-05 DIIS
   @RHF iter   8:  -149.59059723201253   -1.18498e-07   1.30989e-05 DIIS
   @RHF iter   9:  -149.59059723617750   -4.16497e-09   2.01100e-06 DIIS
   @RHF iter  10:  -149.59059723621090   -3.33955e-11   1.77926e-07 DIIS
   @RHF iter  11:  -149.59059723621149   -5.96856e-13   3.01079e-08 DIIS

  ==> Post-Iterations <==

	Orbital Energies (a.u.)
	-----------------------

	Doubly Occupied:                                                      

	   1Ag   -20.736925     1B1u  -20.735943     2Ag    -1.660892  
	   2B1u   -1.099790     1B2u   -0.771305     3Ag    -0.740462  
	   1B3u   -0.653896     1B3g   -0.465277  

	Virtual:                                                              

	   1B2g    0.031321     3B1u    0.406493     2B2u    0.707901  
	   2B3u    0.712323     4Ag     0.732820     4B1u    0.756268  
	   2B3g    0.819940     2B2g    0.843976     5Ag     0.882861  
	   5B1u    1.444546     1B1g    1.469088     6Ag     1.469942  
	   3B3u    1.565694     3B2u    1.570360     1Au     1.907237  
	   6B1u    1.907834     7Ag     2.407942     7B1u    2.460438  
	   3B2g    2.472245     3B3g    2.489880     4B2u    3.902655  
	   4B3u    3.903278     8Ag     4.070102     4B2g    4.184680  
	   4B3g    4.195949     9Ag     4.987948     2B1g    4.988359  
	   5B3u    5.046561     5B2u    5.089896     8B1u    5.200734  
	   6B3u    5.335037     6B2u    5.335166    10Ag     5.344708  
	   5B2g    5.592782     5B3g    5.592787     9B1u    6.156038  
	   2Au     6.157019    10B1u    6.219951     3B1g    6.545084  
	  11Ag     6.545302     3Au     6.758054    11B1u    6.758835  
	   6B2g    6.793031     6B3g    6.823678     7B3u    6.893180  
	   7B2u    6.929298    12B1u    7.198171    12Ag     7.538826  
	   7B2g    7.658779     7B3g    7.704344    13Ag     8.086811  
	  13B1u   13.022494  

	Final Occupation by Irrep:
	         Ag   B1g   B2g   B3g    Au   B1u   B2u   B3u 
	DOCC [     3,    0,    0,    1,    0,    2,    1,    1 ]

  Energy converged.

  @RHF Final Energy:  -149.59059723621149

  ==> Properties <==
  Nuclear Dipole Moment: (a.u.)
     X:     0.0000      Y:     0.0000      Z:     0.0000

  Electronic Dipole Moment: (a.u.)
     X:     0.0000      Y:     0.0000      Z:     0.0000

  Dipole Moment: (a.u.)
     X:     0.0000      Y:     0.0000      Z:     0.0000     Total:     0.0000

  Dipole Moment: (Debye)
     X:     0.0000      Y:     0.0000      Z:     0.0000     Total:     0.0000

  Quadrupole Moment: (Debye Ang)
    XX:    -9.1629     YY:   -10.7610     ZZ:   -10.4188
    XY:     0.0000     XZ:     0.0000     YZ:     0.0000

  Traceless Quadrupole Moment: (Debye Ang)
    XX:     0.9513     YY:    -0.6468     ZZ:    -0.3046
    XY:     0.0000     XZ:     0.0000     YZ:     0.0000

  Mulliken Charges: (a.u.)
   Center  Symbol    Alpha    Beta     Spin     Total
       1     O     4.00000  4.00000  0.00000  0.00000
       2     O     4.00000  4.00000  0.00000  0.00000

   Total alpha =  8.00000, Total beta =  8.00000, Total charge =  0.00000


  Saving occupied orbitals to File 180.

*** tstop() called on QuickSilver.local at Mon Jan 23 14:38:10 2012
Module time:
	user time   =       4.77 seconds =       0.08 minutes
	system time =       0.01 seconds =       0.00 minutes
	total time  =          5 seconds =       0.08 minutes
Total time:
	user time   =       5.33 seconds =       0.09 minutes
	system time =       0.04 seconds =       0.00 minutes
	total time  =          5 seconds =       0.08 minutes

*** tstart() called on QuickSilver.local
*** at Mon Jan 23 14:38:10 2012


         ---------------------------------------------------------
                                   SCF
            by Justin Turney, Rob Parrish, and Andy Simmonett
                              RHF Reference
                        1 Threads,    250 MiB Core
         ---------------------------------------------------------

  ==> Geometry <==

    Molecular point group: d2h

    Geometry (in Angstrom), charge = 0, multiplicity = 1:

       Center              X                  Y                   Z       
    ------------   -----------------  -----------------  -----------------
           O          0.000000000000     0.000000000000    -0.600000000000
           O          0.000000000000     0.000000000000     0.600000000000

    Number of unique atoms: 1

    Atoms equivalency:
       unique atom 0: 0 1 

  Running in d2h symmetry.

  Nuclear repulsion =   28.222784458133336

  Charge       = 0
  Multiplicity = 1
  Electrons    = 16
  Nalpha       = 8
  Nbeta        = 8

  ==> Algorithm <==

  SCF Algorithm Type is OUT_OF_CORE.
  DIIS enabled.
  MOM disabled.
  Fractional occupation disabled.
  Guess Type is CORE.
  Energy threshold   = 1.00e-08
  Density threshold  = 1.00e-08
  Integral threshold = 0.00e+00

  ==> Primary Basis: CC-PVTZ <==

  -AO BASIS SET INFORMATION:
    Total number of shells = 20
    Number of primitives   = 52
    Number of AO           = 70
    Number of SO           = 60
    Maximum AM             = 3
    Spherical Harmonics    = TRUE

  -Contraction Scheme:
    Atom   Type   All Primitives // Shells:
   ------ ------ --------------------------
       1     O     18s 5p 2d 1f // 4s 3p 2d 1f 
       2     O     18s 5p 2d 1f // 4s 3p 2d 1f 

  ==> Pre-Iterations <==

  Minimum eigenvalue in the overlap matrix is 4.2858401312E-03.
  Using Symmetric Orthogonalization.
  SCF Guess: Core (One-Electron) Hamiltonian.

  Initial RHF energy:  -113.02734711776702

   -------------------------------------------------------
    Irrep   Nso     Nmo     Nalpha   Nbeta   Ndocc  Nsocc
   -------------------------------------------------------
     Ag        13      13       2       2       2       0
     B1g        3       3       0       0       0       0
     B2g        7       7       1       1       1       0
     B3g        7       7       1       1       1       0
     Au         3       3       0       0       0       0
     B1u       13      13       2       2       2       0
     B2u        7       7       1       1       1       0
     B3u        7       7       1       1       1       0
   -------------------------------------------------------
    Total      60      60       8       8       8       0
   -------------------------------------------------------

  ==> Integral Setup <==

 MINTS: Wrapper to libmints.
   by Justin Turney

   Calculation information:
      Number of atoms:                   2
      Number of AO shells:              20
      Number of SO shells:              10
      Number of primitives:             52
      Number of atomic orbitals:        70
      Number of basis functions:        60

      Number of irreps:                  8
      Number of functions per irrep: [  13    3    7    7    3   13    7    7 ]

      Overlap, kinetic, potential, dipole, and quadrupole integrals
        stored in file 35.

      Computing two-electron integrals...done
      Computed 180477 non-zero two-electron integrals.
        Stored in file 33.

  ==> Iterations <==

                        Total Energy        Delta E     Density RMS

   @RHF iter   1:  -130.87953989478822   -1.78522e+01   0.00000e+00 
	Occupation by irrep:
	         Ag   B1g   B2g   B3g    Au   B1u   B2u   B3u 
	DOCC [     3,    0,    0,    1,    0,    2,    1,    1 ]
   @RHF iter   2:  -140.04253152363884   -9.16299e+00   2.20869e-01 DIIS
   @RHF iter   3:  -149.17635355329773   -9.13382e+00   2.03083e-01 DIIS
   @RHF iter   4:  -149.57809876181398   -4.01745e-01   1.46708e-02 DIIS
   @RHF iter   5:  -149.59038744607497   -1.22887e-02   3.98344e-03 DIIS
   @RHF iter   6:  -149.59059079586586   -2.03350e-04   4.93283e-04 DIIS
   @RHF iter   7:  -149.59059711351478   -6.31765e-06   9.62861e-05 DIIS
   @RHF iter   8:  -149.59059723201253   -1.18498e-07   1.30989e-05 DIIS
   @RHF iter   9:  -149.59059723617750   -4.16497e-09   2.01100e-06 DIIS
   @RHF iter  10:  -149.59059723621090   -3.33955e-11   1.77926e-07 DIIS
   @RHF iter  11:  -149.59059723621149   -5.96856e-13   3.01079e-08 DIIS

  ==> Post-Iterations <==

	Orbital Energies (a.u.)
	-----------------------

	Doubly Occupied:                                                      

	   1Ag   -20.736925     1B1u  -20.735943     2Ag    -1.660892  
	   2B1u   -1.099790     1B2u   -0.771305     3Ag    -0.740462  
	   1B3u   -0.653896     1B3g   -0.465277  

	Virtual:                                                              

	   1B2g    0.031321     3B1u    0.406493     2B2u    0.707901  
	   2B3u    0.712323     4Ag     0.732820     4B1u    0.756268  
	   2B3g    0.819940     2B2g    0.843976     5Ag     0.882861  
	   5B1u    1.444546     1B1g    1.469088     6Ag     1.469942  
	   3B3u    1.565694     3B2u    1.570360     1Au     1.907237  
	   6B1u    1.907834     7Ag     2.407942     7B1u    2.460438  
	   3B2g    2.472245     3B3g    2.489880     4B2u    3.902655  
	   4B3u    3.903278     8Ag     4.070102     4B2g    4.184680  
	   4B3g    4.195949     9Ag     4.987948     2B1g    4.988359  
	   5B3u    5.046561     5B2u    5.089896     8B1u    5.200734  
	   6B3u    5.335037     6B2u    5.335166    10Ag     5.344708  
	   5B2g    5.592782     5B3g    5.592787     9B1u    6.156038  
	   2Au     6.157019    10B1u    6.219951     3B1g    6.545084  
	  11Ag     6.545302     3Au     6.758054    11B1u    6.758835  
	   6B2g    6.793031     6B3g    6.823678     7B3u    6.893180  
	   7B2u    6.929298    12B1u    7.198171    12Ag     7.538826  
	   7B2g    7.658779     7B3g    7.704344    13Ag     8.086811  
	  13B1u   13.022494  

	Final Occupation by Irrep:
	         Ag   B1g   B2g   B3g    Au   B1u   B2u   B3u 
	DOCC [     3,    0,    0,    1,    0,    2,    1,    1 ]

  Energy converged.

  @RHF Final Energy:  -149.59059723621149

  ==> Properties <==
  Nuclear Dipole Moment: (a.u.)
     X:     0.0000      Y:     0.0000      Z:     0.0000

  Electronic Dipole Moment: (a.u.)
     X:     0.0000      Y:     0.0000      Z:     0.0000

  Dipole Moment: (a.u.)
     X:     0.0000      Y:     0.0000      Z:     0.0000     Total:     0.0000

  Dipole Moment: (Debye)
     X:     0.0000      Y:     0.0000      Z:     0.0000     Total:     0.0000

  Quadrupole Moment: (Debye Ang)
    XX:    -9.1629     YY:   -10.7610     ZZ:   -10.4188
    XY:     0.0000     XZ:     0.0000     YZ:     0.0000

  Traceless Quadrupole Moment: (Debye Ang)
    XX:     0.9513     YY:    -0.6468     ZZ:    -0.3046
    XY:     0.0000     XZ:     0.0000     YZ:     0.0000

  Mulliken Charges: (a.u.)
   Center  Symbol    Alpha    Beta     Spin     Total
       1     O     4.00000  4.00000  0.00000  0.00000
       2     O     4.00000  4.00000  0.00000  0.00000

   Total alpha =  8.00000, Total beta =  8.00000, Total charge =  0.00000


  Saving occupied orbitals to File 180.

*** tstop() called on QuickSilver.local at Mon Jan 23 14:38:11 2012
Module time:
	user time   =       0.67 seconds =       0.01 minutes
	system time =       0.03 seconds =       0.00 minutes
	total time  =          1 seconds =       0.02 minutes
Total time:
	user time   =       6.00 seconds =       0.10 minutes
	system time =       0.07 seconds =       0.00 minutes
	total time  =          6 seconds =       0.10 minutes

*** tstart() called on QuickSilver.local
*** at Mon Jan 23 14:38:11 2012


         ---------------------------------------------------------
                                   SCF
            by Justin Turney, Rob Parrish, and Andy Simmonett
                              RHF Reference
                        1 Threads,    250 MiB Core
         ---------------------------------------------------------

  ==> Geometry <==

    Molecular point group: d2h

    Geometry (in Angstrom), charge = 0, multiplicity = 1:

       Center              X                  Y                   Z       
    ------------   -----------------  -----------------  -----------------
           O          0.000000000000     0.000000000000    -0.600000000000
           O          0.000000000000     0.000000000000     0.600000000000

    Number of unique atoms: 1

    Atoms equivalency:
       unique atom 0: 0 1 

  Running in d2h symmetry.

  Nuclear repulsion =   28.222784458133336

  Charge       = 0
  Multiplicity = 1
  Electrons    = 16
  Nalpha       = 8
  Nbeta        = 8

  ==> Algorithm <==

  SCF Algorithm Type is DF.
  DIIS enabled.
  MOM disabled.
  Fractional occupation disabled.
  Guess Type is CORE.
  Energy threshold   = 1.00e-08
  Density threshold  = 1.00e-08
  Integral threshold = 0.00e+00

  ==> Primary Basis: CC-PVTZ <==

  -AO BASIS SET INFORMATION:
    Total number of shells = 20
    Number of primitives   = 52
    Number of AO           = 70
    Number of SO           = 60
    Maximum AM             = 3
    Spherical Harmonics    = TRUE

  -Contraction Scheme:
    Atom   Type   All Primitives // Shells:
   ------ ------ --------------------------
       1     O     18s 5p 2d 1f // 4s 3p 2d 1f 
       2     O     18s 5p 2d 1f // 4s 3p 2d 1f 

  ==> Pre-Iterations <==

  Minimum eigenvalue in the overlap matrix is 4.2858401312E-03.
  Using Symmetric Orthogonalization.
  SCF Guess: Core (One-Electron) Hamiltonian.

  Initial RHF energy:  -113.02734711776702

   -------------------------------------------------------
    Irrep   Nso     Nmo     Nalpha   Nbeta   Ndocc  Nsocc
   -------------------------------------------------------
     Ag        13      13       2       2       2       0
     B1g        3       3       0       0       0       0
     B2g        7       7       1       1       1       0
     B3g        7       7       1       1       1       0
     Au         3       3       0       0       0       0
     B1u       13      13       2       2       2       0
     B2u        7       7       1       1       1       0
     B3u        7       7       1       1       1       0
   -------------------------------------------------------
    Total      60      60       8       8       8       0
   -------------------------------------------------------

  ==> Integral Setup <==

 DFHF: Density-Fitted SCF Algorithms.
   by Rob Parrish

  ==> Auxiliary Basis: CC-PVTZ-JKFIT <==

  -AO BASIS SET INFORMATION:
    Total number of shells = 50
    Number of primitives   = 50
    Number of AO           = 192
    Number of SO           = 158
    Maximum AM             = 4
    Spherical Harmonics    = TRUE

  -Contraction Scheme:
    Atom   Type   All Primitives // Shells:
   ------ ------ --------------------------
       1     O     10s 7p 5d 2f 1g // 10s 7p 5d 2f 1g 
       2     O     10s 7p 5d 2f 1g // 10s 7p 5d 2f 1g 

  Schwarz Cutoff is 0.000E+00
   -Shell Pairs:             210 of          210 remain,   0% savings
   -Function Pairs:         1830 of         1830 remain,   0% savings

  Using Core Algorithm.

    ----------------------------------------------
     Quantity         Doubles              MiB   
    ----------------------------------------------
     Memory            21875000              175
     (A|B)                24964                0
     (A|mn)              289140                2
    ----------------------------------------------

  ==> Iterations <==

                        Total Energy        Delta E     Density RMS

   @RHF iter   1:  -130.87666606811291   -1.78493e+01   0.00000e+00 
	Occupation by irrep:
	         Ag   B1g   B2g   B3g    Au   B1u   B2u   B3u 
	DOCC [     3,    0,    1,    0,    0,    2,    1,    1 ]
   @RHF iter   2:  -140.04491881778978   -9.16825e+00   2.20218e-01 DIIS
   @RHF iter   3:  -149.17612867870011   -9.13121e+00   2.02367e-01 DIIS
   @RHF iter   4:  -149.57802401404558   -4.01895e-01   1.46825e-02 DIIS
   @RHF iter   5:  -149.59031867142508   -1.22947e-02   3.99086e-03 DIIS
   @RHF iter   6:  -149.59052228892395   -2.03617e-04   4.94869e-04 DIIS
   @RHF iter   7:  -149.59052866262513   -6.37370e-06   9.66301e-05 DIIS
   @RHF iter   8:  -149.59052878226566   -1.19641e-07   1.32731e-05 DIIS
   @RHF iter   9:  -149.59052878643425   -4.16858e-09   2.01301e-06 DIIS
   @RHF iter  10:  -149.59052878646776   -3.35092e-11   1.79208e-07 DIIS
   @RHF iter  11:  -149.59052878646830   -5.40012e-13   3.00696e-08 DIIS

  ==> Post-Iterations <==

	Orbital Energies (a.u.)
	-----------------------

	Doubly Occupied:                                                      

	   1Ag   -20.736954     1B1u  -20.735972     2Ag    -1.660926  
	   2B1u   -1.099809     1B3u   -0.771300     3Ag    -0.740474  
	   1B2u   -0.653904     1B2g   -0.465310  

	Virtual:                                                              

	   1B3g    0.031310     3B1u    0.406559     2B3u    0.708127  
	   2B2u    0.712513     4Ag     0.732997     4B1u    0.756393  
	   2B2g    0.820106     2B3g    0.844190     5Ag     0.882947  
	   5B1u    1.444764     1B1g    1.469656     6Ag     1.470475  
	   3B2u    1.566040     3B3u    1.570760     1Au     1.907747  
	   6B1u    1.908328     7Ag     2.408277     7B1u    2.460928  
	   3B3g    2.472829     3B2g    2.490281     4B3u    3.903324  
	   4B2u    3.903872     8Ag     4.071289     4B3g    4.185386  
	   4B2g    4.196748     9Ag     4.993055     2B1g    4.993456  
	   5B2u    5.051928     5B3u    5.095665     8B1u    5.201909  
	   6B2u    5.339915     6B3u    5.340050    10Ag     5.349915  
	   5B3g    5.597774     5B2g    5.597779     9B1u    6.161730  
	   2Au     6.162817    10B1u    6.223453     3B1g    6.552840  
	  11Ag     6.553156     3Au     6.765723    11B1u    6.766597  
	   6B3g    6.800077     6B2g    6.831557     7B2u    6.900258  
	   7B3u    6.936880    12B1u    7.203646    12Ag     7.540223  
	   7B3g    7.664481     7B2g    7.710653    13Ag     8.094258  
	  13B1u   13.025576  

	Final Occupation by Irrep:
	         Ag   B1g   B2g   B3g    Au   B1u   B2u   B3u 
	DOCC [     3,    0,    1,    0,    0,    2,    1,    1 ]

  Energy converged.

  @RHF Final Energy:  -149.59052878646830

  ==> Properties <==
  Nuclear Dipole Moment: (a.u.)
     X:     0.0000      Y:     0.0000      Z:     0.0000

  Electronic Dipole Moment: (a.u.)
     X:     0.0000      Y:     0.0000      Z:     0.0000

  Dipole Moment: (a.u.)
     X:     0.0000      Y:     0.0000      Z:     0.0000     Total:     0.0000

  Dipole Moment: (Debye)
     X:     0.0000      Y:     0.0000      Z:     0.0000     Total:     0.0000

  Quadrupole Moment: (Debye Ang)
    XX:   -10.7614     YY:    -9.1632     ZZ:   -10.4191
    XY:     0.0000     XZ:     0.0000     YZ:     0.0000

  Traceless Quadrupole Moment: (Debye Ang)
    XX:    -0.6468     YY:     0.9514     ZZ:    -0.3045
    XY:     0.0000     XZ:     0.0000     YZ:     0.0000

  Mulliken Charges: (a.u.)
   Center  Symbol    Alpha    Beta     Spin     Total
       1     O     4.00000  4.00000  0.00000 -0.00000
       2     O     4.00000  4.00000  0.00000 -0.00000

   Total alpha =  8.00000, Total beta =  8.00000, Total charge =  0.00000


  Saving occupied orbitals to File 180.

*** tstop() called on QuickSilver.local at Mon Jan 23 14:38:11 2012
Module time:
	user time   =       0.40 seconds =       0.01 minutes
	system time =       0.03 seconds =       0.00 minutes
	total time  =          0 seconds =       0.00 minutes
Total time:
	user time   =       6.40 seconds =       0.11 minutes
	system time =       0.10 seconds =       0.00 minutes
	total time  =          6 seconds =       0.10 minutes

*** tstart() called on QuickSilver.local
*** at Mon Jan 23 14:38:11 2012


         ---------------------------------------------------------
                                   SCF
            by Justin Turney, Rob Parrish, and Andy Simmonett
                              UHF Reference
                        1 Threads,    250 MiB Core
         ---------------------------------------------------------

  ==> Geometry <==

    Molecular point group: d2h

    Geometry (in Angstrom), charge = 0, multiplicity = 1:

       Center              X                  Y                   Z       
    ------------   -----------------  -----------------  -----------------
           O          0.000000000000     0.000000000000    -0.600000000000
           O          0.000000000000     0.000000000000     0.600000000000

    Number of unique atoms: 1

    Atoms equivalency:
       unique atom 0: 0 1 

  Running in d2h symmetry.

  Nuclear repulsion =   28.222784458133336

  Charge       = 0
  Multiplicity = 1
  Electrons    = 16
  Nalpha       = 8
  Nbeta        = 8

  ==> Algorithm <==

  SCF Algorithm Type is PK.
  DIIS enabled.
  MOM disabled.
  Fractional occupation disabled.
  Guess Type is CORE.
  Energy threshold   = 1.00e-08
  Density threshold  = 1.00e-08
  Integral threshold = 0.00e+00

  ==> Primary Basis: CC-PVTZ <==

  -AO BASIS SET INFORMATION:
    Total number of shells = 20
    Number of primitives   = 52
    Number of AO           = 70
    Number of SO           = 60
    Maximum AM             = 3
    Spherical Harmonics    = TRUE

  -Contraction Scheme:
    Atom   Type   All Primitives // Shells:
   ------ ------ --------------------------
       1     O     18s 5p 2d 1f // 4s 3p 2d 1f 
       2     O     18s 5p 2d 1f // 4s 3p 2d 1f 

  ==> Pre-Iterations <==

  Minimum eigenvalue in the overlap matrix is 4.2858401312E-03.
  Using Symmetric Orthogonalization.
  SCF Guess: Core (One-Electron) Hamiltonian.

  Initial UHF energy:  -113.02734711776702

   -------------------------------------------------------
    Irrep   Nso     Nmo     Nalpha   Nbeta   Ndocc  Nsocc
   -------------------------------------------------------
     Ag        13      13       2       2       2       0
     B1g        3       3       0       0       0       0
     B2g        7       7       1       1       1       0
     B3g        7       7       1       1       1       0
     Au         3       3       0       0       0       0
     B1u       13      13       2       2       2       0
     B2u        7       7       1       1       1       0
     B3u        7       7       1       1       1       0
   -------------------------------------------------------
    Total      60      60       8       8       8       0
   -------------------------------------------------------

  ==> Integral Setup <==

 MINTS: Wrapper to libmints.
   by Justin Turney

   Calculation information:
      Number of atoms:                   2
      Number of AO shells:              20
      Number of SO shells:              10
      Number of primitives:             52
      Number of atomic orbitals:        70
      Number of basis functions:        60

      Number of irreps:                  8
      Number of functions per irrep: [  13    3    7    7    3   13    7    7 ]

      Overlap, kinetic, potential, dipole, and quadrupole integrals
        stored in file 35.

      Computing two-electron integrals...done
      Computed 180477 non-zero two-electron integrals.
        Stored in file 33.

  ==> Iterations <==

                        Total Energy        Delta E     Density RMS

  Forming PK and K matrices.
   @UHF iter   1:  -130.87953989478825   -1.78522e+01   0.00000e+00 
	Occupation by irrep:
	         Ag   B1g   B2g   B3g    Au   B1u   B2u   B3u 
	DOCC [     3,    0,    1,    0,    0,    2,    1,    1 ]
	SOCC [     0,    0,    0,    0,    0,    0,    0,    0 ]
   @UHF iter   2:  -140.04253152363862   -9.16299e+00   2.20869e-01 DIIS
   @UHF iter   3:  -149.17635355329770   -9.13382e+00   2.03083e-01 DIIS
   @UHF iter   4:  -149.57809876181395   -4.01745e-01   1.46708e-02 DIIS
   @UHF iter   5:  -149.59038744607500   -1.22887e-02   3.98344e-03 DIIS
   @UHF iter   6:  -149.59059079586575   -2.03350e-04   4.93283e-04 DIIS
   @UHF iter   7:  -149.59059711351466   -6.31765e-06   9.62861e-05 DIIS
   @UHF iter   8:  -149.59059723201250   -1.18498e-07   1.30989e-05 DIIS
   @UHF iter   9:  -149.59059723617770   -4.16520e-09   2.01100e-06 DIIS
   @UHF iter  10:  -149.59059723621087   -3.31681e-11   1.77929e-07 DIIS
   @UHF iter  11:  -149.59059723621158   -7.10543e-13   3.00170e-08 DIIS

  ==> Post-Iterations <==

	Orbital Energies (a.u.)
	-----------------------

	Alpha Occupied:                                                       

	   1Ag   -20.736925     1B1u  -20.735943     2Ag    -1.660892  
	   2B1u   -1.099790     1B3u   -0.771305     3Ag    -0.740462  
	   1B2u   -0.653896     1B2g   -0.465277  

	Alpha Virtual:                                                        

	   1B3g    0.031321     3B1u    0.406493     2B3u    0.707901  
	   2B2u    0.712323     4Ag     0.732820     4B1u    0.756268  
	   2B2g    0.819940     2B3g    0.843976     5Ag     0.882861  
	   5B1u    1.444546     1B1g    1.469088     6Ag     1.469942  
	   3B2u    1.565694     3B3u    1.570360     1Au     1.907237  
	   6B1u    1.907834     7Ag     2.407942     7B1u    2.460438  
	   3B3g    2.472245     3B2g    2.489880     4B3u    3.902655  
	   4B2u    3.903278     8Ag     4.070102     4B3g    4.184680  
	   4B2g    4.195949     9Ag     4.987948     2B1g    4.988359  
	   5B2u    5.046561     5B3u    5.089896     8B1u    5.200734  
	   6B2u    5.335037     6B3u    5.335166    10Ag     5.344708  
	   5B3g    5.592782     5B2g    5.592787     9B1u    6.156038  
	   2Au     6.157019    10B1u    6.219951     3B1g    6.545084  
	  11Ag     6.545302     3Au     6.758054    11B1u    6.758835  
	   6B3g    6.793031     6B2g    6.823678     7B2u    6.893180  
	   7B3u    6.929298    12B1u    7.198171    12Ag     7.538826  
	   7B3g    7.658779     7B2g    7.704344    13Ag     8.086811  
	  13B1u   13.022494  

	Beta Occupied:                                                        

	   1Ag   -20.736925     1B1u  -20.735943     2Ag    -1.660892  
	   2B1u   -1.099790     1B3u   -0.771305     3Ag    -0.740462  
	   1B2u   -0.653896     1B2g   -0.465277  

	Beta Virtual:                                                         

	   1B3g    0.031321     3B1u    0.406493     2B3u    0.707901  
	   2B2u    0.712323     4Ag     0.732820     4B1u    0.756268  
	   2B2g    0.819940     2B3g    0.843976     5Ag     0.882861  
	   5B1u    1.444546     1B1g    1.469088     6Ag     1.469942  
	   3B2u    1.565694     3B3u    1.570360     1Au     1.907237  
	   6B1u    1.907834     7Ag     2.407942     7B1u    2.460438  
	   3B3g    2.472245     3B2g    2.489880     4B3u    3.902655  
	   4B2u    3.903278     8Ag     4.070102     4B3g    4.184680  
	   4B2g    4.195949     9Ag     4.987948     2B1g    4.988359  
	   5B2u    5.046561     5B3u    5.089896     8B1u    5.200734  
	   6B2u    5.335037     6B3u    5.335166    10Ag     5.344708  
	   5B3g    5.592782     5B2g    5.592787     9B1u    6.156038  
	   2Au     6.157019    10B1u    6.219951     3B1g    6.545084  
	  11Ag     6.545302     3Au     6.758054    11B1u    6.758835  
	   6B3g    6.793031     6B2g    6.823678     7B2u    6.893180  
	   7B3u    6.929298    12B1u    7.198171    12Ag     7.538826  
	   7B3g    7.658779     7B2g    7.704344    13Ag     8.086811  
	  13B1u   13.022494  

	Final Occupation by Irrep:
	         Ag   B1g   B2g   B3g    Au   B1u   B2u   B3u 
	DOCC [     3,    0,    1,    0,    0,    2,    1,    1 ]
	SOCC [     0,    0,    0,    0,    0,    0,    0,    0 ]

  Energy converged.

  @UHF Final Energy:  -149.59059723621158

  ==> Properties <==
  Nuclear Dipole Moment: (a.u.)
     X:     0.0000      Y:     0.0000      Z:     0.0000

  Electronic Dipole Moment: (a.u.)
     X:     0.0000      Y:     0.0000      Z:     0.0000

  Dipole Moment: (a.u.)
     X:     0.0000      Y:     0.0000      Z:     0.0000     Total:     0.0000

  Dipole Moment: (Debye)
     X:     0.0000      Y:     0.0000      Z:     0.0000     Total:     0.0000

  Quadrupole Moment: (Debye Ang)
    XX:   -10.7610     YY:    -9.1629     ZZ:   -10.4188
    XY:     0.0000     XZ:     0.0000     YZ:     0.0000

  Traceless Quadrupole Moment: (Debye Ang)
    XX:    -0.6468     YY:     0.9513     ZZ:    -0.3046
    XY:     0.0000     XZ:     0.0000     YZ:     0.0000

  Mulliken Charges: (a.u.)
   Center  Symbol    Alpha    Beta     Spin     Total
       1     O     4.00000  4.00000  0.00000  0.00000
       2     O     4.00000  4.00000  0.00000  0.00000

   Total alpha =  8.00000, Total beta =  8.00000, Total charge =  0.00000


  @Spin Contamination Metric:  0.00000
  @S^2 Expected:               0.00000
  @S^2 Observed:               0.00000

  Saving occupied orbitals to File 180.

*** tstop() called on QuickSilver.local at Mon Jan 23 14:38:12 2012
Module time:
	user time   =       0.57 seconds =       0.01 minutes
	system time =       0.02 seconds =       0.00 minutes
	total time  =          1 seconds =       0.02 minutes
Total time:
	user time   =       6.97 seconds =       0.12 minutes
	system time =       0.12 seconds =       0.00 minutes
	total time  =          7 seconds =       0.12 minutes

*** tstart() called on QuickSilver.local
*** at Mon Jan 23 14:38:12 2012


         ---------------------------------------------------------
                                   SCF
            by Justin Turney, Rob Parrish, and Andy Simmonett
                              UHF Reference
                        1 Threads,    250 MiB Core
         ---------------------------------------------------------

  ==> Geometry <==

    Molecular point group: d2h

    Geometry (in Angstrom), charge = 0, multiplicity = 1:

       Center              X                  Y                   Z       
    ------------   -----------------  -----------------  -----------------
           O          0.000000000000     0.000000000000    -0.600000000000
           O          0.000000000000     0.000000000000     0.600000000000

    Number of unique atoms: 1

    Atoms equivalency:
       unique atom 0: 0 1 

  Running in d2h symmetry.

  Nuclear repulsion =   28.222784458133336

  Charge       = 0
  Multiplicity = 1
  Electrons    = 16
  Nalpha       = 8
  Nbeta        = 8

  ==> Algorithm <==

  SCF Algorithm Type is DIRECT.
  DIIS enabled.
  MOM disabled.
  Fractional occupation disabled.
  Guess Type is CORE.
  Energy threshold   = 1.00e-08
  Density threshold  = 1.00e-08
  Integral threshold = 0.00e+00

  ==> Primary Basis: CC-PVTZ <==

  -AO BASIS SET INFORMATION:
    Total number of shells = 20
    Number of primitives   = 52
    Number of AO           = 70
    Number of SO           = 60
    Maximum AM             = 3
    Spherical Harmonics    = TRUE

  -Contraction Scheme:
    Atom   Type   All Primitives // Shells:
   ------ ------ --------------------------
       1     O     18s 5p 2d 1f // 4s 3p 2d 1f 
       2     O     18s 5p 2d 1f // 4s 3p 2d 1f 

  ==> Pre-Iterations <==

  Minimum eigenvalue in the overlap matrix is 4.2858401312E-03.
  Using Symmetric Orthogonalization.
  SCF Guess: Core (One-Electron) Hamiltonian.

  Initial UHF energy:  -113.02734711776702

   -------------------------------------------------------
    Irrep   Nso     Nmo     Nalpha   Nbeta   Ndocc  Nsocc
   -------------------------------------------------------
     Ag        13      13       2       2       2       0
     B1g        3       3       0       0       0       0
     B2g        7       7       1       1       1       0
     B3g        7       7       1       1       1       0
     Au         3       3       0       0       0       0
     B1u       13      13       2       2       2       0
     B2u        7       7       1       1       1       0
     B3u        7       7       1       1       1       0
   -------------------------------------------------------
    Total      60      60       8       8       8       0
   -------------------------------------------------------

  ==> Integral Setup <==

  Building Direct Integral Objects...

  ==> Iterations <==

                        Total Energy        Delta E     Density RMS

   @UHF iter   1:  -130.87953989478819   -1.78522e+01   0.00000e+00 
	Occupation by irrep:
	         Ag   B1g   B2g   B3g    Au   B1u   B2u   B3u 
	DOCC [     3,    0,    0,    1,    0,    2,    1,    1 ]
	SOCC [     0,    0,    0,    0,    0,    0,    0,    0 ]
   @UHF iter   2:  -140.04253152363884   -9.16299e+00   2.20869e-01 DIIS
   @UHF iter   3:  -149.17635355329773   -9.13382e+00   2.03083e-01 DIIS
   @UHF iter   4:  -149.57809876181395   -4.01745e-01   1.46708e-02 DIIS
   @UHF iter   5:  -149.59038744607503   -1.22887e-02   3.98344e-03 DIIS
   @UHF iter   6:  -149.59059079586575   -2.03350e-04   4.93283e-04 DIIS
   @UHF iter   7:  -149.59059711351469   -6.31765e-06   9.62861e-05 DIIS
   @UHF iter   8:  -149.59059723201258   -1.18498e-07   1.30989e-05 DIIS
   @UHF iter   9:  -149.59059723617756   -4.16497e-09   2.01100e-06 DIIS
   @UHF iter  10:  -149.59059723621095   -3.33955e-11   1.77928e-07 DIIS
   @UHF iter  11:  -149.59059723621152   -5.68434e-13   2.98146e-08 DIIS

  ==> Post-Iterations <==

	Orbital Energies (a.u.)
	-----------------------

	Alpha Occupied:                                                       

	   1Ag   -20.736925     1B1u  -20.735943     2Ag    -1.660892  
	   2B1u   -1.099790     1B2u   -0.771305     3Ag    -0.740462  
	   1B3u   -0.653896     1B3g   -0.465277  

	Alpha Virtual:                                                        

	   1B2g    0.031321     3B1u    0.406493     2B2u    0.707901  
	   2B3u    0.712323     4Ag     0.732820     4B1u    0.756268  
	   2B3g    0.819940     2B2g    0.843976     5Ag     0.882861  
	   5B1u    1.444546     1B1g    1.469088     6Ag     1.469942  
	   3B3u    1.565694     3B2u    1.570360     1Au     1.907237  
	   6B1u    1.907834     7Ag     2.407942     7B1u    2.460438  
	   3B2g    2.472245     3B3g    2.489880     4B2u    3.902655  
	   4B3u    3.903278     8Ag     4.070102     4B2g    4.184680  
	   4B3g    4.195949     9Ag     4.987948     2B1g    4.988359  
	   5B3u    5.046561     5B2u    5.089896     8B1u    5.200734  
	   6B3u    5.335037     6B2u    5.335166    10Ag     5.344708  
	   5B2g    5.592782     5B3g    5.592787     9B1u    6.156038  
	   2Au     6.157019    10B1u    6.219951     3B1g    6.545084  
	  11Ag     6.545302     3Au     6.758054    11B1u    6.758835  
	   6B2g    6.793031     6B3g    6.823678     7B3u    6.893180  
	   7B2u    6.929298    12B1u    7.198171    12Ag     7.538826  
	   7B2g    7.658779     7B3g    7.704344    13Ag     8.086811  
	  13B1u   13.022494  

	Beta Occupied:                                                        

	   1Ag   -20.736925     1B1u  -20.735943     2Ag    -1.660892  
	   2B1u   -1.099790     1B2u   -0.771305     3Ag    -0.740462  
	   1B3u   -0.653896     1B3g   -0.465277  

	Beta Virtual:                                                         

	   1B2g    0.031321     3B1u    0.406493     2B2u    0.707901  
	   2B3u    0.712323     4Ag     0.732820     4B1u    0.756268  
	   2B3g    0.819940     2B2g    0.843976     5Ag     0.882861  
	   5B1u    1.444546     1B1g    1.469088     6Ag     1.469942  
	   3B3u    1.565694     3B2u    1.570360     1Au     1.907237  
	   6B1u    1.907834     7Ag     2.407942     7B1u    2.460438  
	   3B2g    2.472245     3B3g    2.489880     4B2u    3.902655  
	   4B3u    3.903278     8Ag     4.070102     4B2g    4.184680  
	   4B3g    4.195949     9Ag     4.987948     2B1g    4.988359  
	   5B3u    5.046561     5B2u    5.089896     8B1u    5.200734  
	   6B3u    5.335037     6B2u    5.335166    10Ag     5.344708  
	   5B2g    5.592782     5B3g    5.592787     9B1u    6.156038  
	   2Au     6.157019    10B1u    6.219951     3B1g    6.545084  
	  11Ag     6.545302     3Au     6.758054    11B1u    6.758835  
	   6B2g    6.793031     6B3g    6.823678     7B3u    6.893180  
	   7B2u    6.929298    12B1u    7.198171    12Ag     7.538826  
	   7B2g    7.658779     7B3g    7.704344    13Ag     8.086811  
	  13B1u   13.022494  

	Final Occupation by Irrep:
	         Ag   B1g   B2g   B3g    Au   B1u   B2u   B3u 
	DOCC [     3,    0,    0,    1,    0,    2,    1,    1 ]
	SOCC [     0,    0,    0,    0,    0,    0,    0,    0 ]

  Energy converged.

  @UHF Final Energy:  -149.59059723621152

  ==> Properties <==
  Nuclear Dipole Moment: (a.u.)
     X:     0.0000      Y:     0.0000      Z:     0.0000

  Electronic Dipole Moment: (a.u.)
     X:     0.0000      Y:     0.0000      Z:     0.0000

  Dipole Moment: (a.u.)
     X:     0.0000      Y:     0.0000      Z:     0.0000     Total:     0.0000

  Dipole Moment: (Debye)
     X:     0.0000      Y:     0.0000      Z:     0.0000     Total:     0.0000

  Quadrupole Moment: (Debye Ang)
    XX:    -9.1629     YY:   -10.7610     ZZ:   -10.4188
    XY:     0.0000     XZ:     0.0000     YZ:     0.0000

  Traceless Quadrupole Moment: (Debye Ang)
    XX:     0.9513     YY:    -0.6468     ZZ:    -0.3046
    XY:     0.0000     XZ:     0.0000     YZ:     0.0000

  Mulliken Charges: (a.u.)
   Center  Symbol    Alpha    Beta     Spin     Total
       1     O     4.00000  4.00000  0.00000  0.00000
       2     O     4.00000  4.00000  0.00000  0.00000

   Total alpha =  8.00000, Total beta =  8.00000, Total charge = -0.00000


  @Spin Contamination Metric: -0.00000
  @S^2 Expected:               0.00000
  @S^2 Observed:              -0.00000

  Saving occupied orbitals to File 180.

*** tstop() called on QuickSilver.local at Mon Jan 23 14:38:17 2012
Module time:
	user time   =       4.81 seconds =       0.08 minutes
	system time =       0.01 seconds =       0.00 minutes
	total time  =          5 seconds =       0.08 minutes
Total time:
	user time   =      11.78 seconds =       0.20 minutes
	system time =       0.13 seconds =       0.00 minutes
	total time  =         12 seconds =       0.20 minutes

*** tstart() called on QuickSilver.local
*** at Mon Jan 23 14:38:17 2012


         ---------------------------------------------------------
                                   SCF
            by Justin Turney, Rob Parrish, and Andy Simmonett
                              UHF Reference
                        1 Threads,    250 MiB Core
         ---------------------------------------------------------

  ==> Geometry <==

    Molecular point group: d2h

    Geometry (in Angstrom), charge = 0, multiplicity = 1:

       Center              X                  Y                   Z       
    ------------   -----------------  -----------------  -----------------
           O          0.000000000000     0.000000000000    -0.600000000000
           O          0.000000000000     0.000000000000     0.600000000000

    Number of unique atoms: 1

    Atoms equivalency:
       unique atom 0: 0 1 

  Running in d2h symmetry.

  Nuclear repulsion =   28.222784458133336

  Charge       = 0
  Multiplicity = 1
  Electrons    = 16
  Nalpha       = 8
  Nbeta        = 8

  ==> Algorithm <==

  SCF Algorithm Type is OUT_OF_CORE.
  DIIS enabled.
  MOM disabled.
  Fractional occupation disabled.
  Guess Type is CORE.
  Energy threshold   = 1.00e-08
  Density threshold  = 1.00e-08
  Integral threshold = 0.00e+00

  ==> Primary Basis: CC-PVTZ <==

  -AO BASIS SET INFORMATION:
    Total number of shells = 20
    Number of primitives   = 52
    Number of AO           = 70
    Number of SO           = 60
    Maximum AM             = 3
    Spherical Harmonics    = TRUE

  -Contraction Scheme:
    Atom   Type   All Primitives // Shells:
   ------ ------ --------------------------
       1     O     18s 5p 2d 1f // 4s 3p 2d 1f 
       2     O     18s 5p 2d 1f // 4s 3p 2d 1f 

  ==> Pre-Iterations <==

  Minimum eigenvalue in the overlap matrix is 4.2858401312E-03.
  Using Symmetric Orthogonalization.
  SCF Guess: Core (One-Electron) Hamiltonian.

  Initial UHF energy:  -113.02734711776702

   -------------------------------------------------------
    Irrep   Nso     Nmo     Nalpha   Nbeta   Ndocc  Nsocc
   -------------------------------------------------------
     Ag        13      13       2       2       2       0
     B1g        3       3       0       0       0       0
     B2g        7       7       1       1       1       0
     B3g        7       7       1       1       1       0
     Au         3       3       0       0       0       0
     B1u       13      13       2       2       2       0
     B2u        7       7       1       1       1       0
     B3u        7       7       1       1       1       0
   -------------------------------------------------------
    Total      60      60       8       8       8       0
   -------------------------------------------------------

  ==> Integral Setup <==

 MINTS: Wrapper to libmints.
   by Justin Turney

   Calculation information:
      Number of atoms:                   2
      Number of AO shells:              20
      Number of SO shells:              10
      Number of primitives:             52
      Number of atomic orbitals:        70
      Number of basis functions:        60

      Number of irreps:                  8
      Number of functions per irrep: [  13    3    7    7    3   13    7    7 ]

      Overlap, kinetic, potential, dipole, and quadrupole integrals
        stored in file 35.

      Computing two-electron integrals...done
      Computed 180477 non-zero two-electron integrals.
        Stored in file 33.

  ==> Iterations <==

                        Total Energy        Delta E     Density RMS

   @UHF iter   1:  -130.87953989478819   -1.78522e+01   0.00000e+00 
	Occupation by irrep:
	         Ag   B1g   B2g   B3g    Au   B1u   B2u   B3u 
	DOCC [     3,    0,    0,    1,    0,    2,    1,    1 ]
	SOCC [     0,    0,    0,    0,    0,    0,    0,    0 ]
   @UHF iter   2:  -140.04253152363884   -9.16299e+00   2.20869e-01 DIIS
   @UHF iter   3:  -149.17635355329773   -9.13382e+00   2.03083e-01 DIIS
   @UHF iter   4:  -149.57809876181395   -4.01745e-01   1.46708e-02 DIIS
   @UHF iter   5:  -149.59038744607503   -1.22887e-02   3.98344e-03 DIIS
   @UHF iter   6:  -149.59059079586575   -2.03350e-04   4.93283e-04 DIIS
   @UHF iter   7:  -149.59059711351469   -6.31765e-06   9.62861e-05 DIIS
   @UHF iter   8:  -149.59059723201258   -1.18498e-07   1.30989e-05 DIIS
   @UHF iter   9:  -149.59059723617756   -4.16497e-09   2.01100e-06 DIIS
   @UHF iter  10:  -149.59059723621095   -3.33955e-11   1.77928e-07 DIIS
   @UHF iter  11:  -149.59059723621152   -5.68434e-13   2.98146e-08 DIIS

  ==> Post-Iterations <==

	Orbital Energies (a.u.)
	-----------------------

	Alpha Occupied:                                                       

	   1Ag   -20.736925     1B1u  -20.735943     2Ag    -1.660892  
	   2B1u   -1.099790     1B2u   -0.771305     3Ag    -0.740462  
	   1B3u   -0.653896     1B3g   -0.465277  

	Alpha Virtual:                                                        

	   1B2g    0.031321     3B1u    0.406493     2B2u    0.707901  
	   2B3u    0.712323     4Ag     0.732820     4B1u    0.756268  
	   2B3g    0.819940     2B2g    0.843976     5Ag     0.882861  
	   5B1u    1.444546     1B1g    1.469088     6Ag     1.469942  
	   3B3u    1.565694     3B2u    1.570360     1Au     1.907237  
	   6B1u    1.907834     7Ag     2.407942     7B1u    2.460438  
	   3B2g    2.472245     3B3g    2.489880     4B2u    3.902655  
	   4B3u    3.903278     8Ag     4.070102     4B2g    4.184680  
	   4B3g    4.195949     9Ag     4.987948     2B1g    4.988359  
	   5B3u    5.046561     5B2u    5.089896     8B1u    5.200734  
	   6B3u    5.335037     6B2u    5.335166    10Ag     5.344708  
	   5B2g    5.592782     5B3g    5.592787     9B1u    6.156038  
	   2Au     6.157019    10B1u    6.219951     3B1g    6.545084  
	  11Ag     6.545302     3Au     6.758054    11B1u    6.758835  
	   6B2g    6.793031     6B3g    6.823678     7B3u    6.893180  
	   7B2u    6.929298    12B1u    7.198171    12Ag     7.538826  
	   7B2g    7.658779     7B3g    7.704344    13Ag     8.086811  
	  13B1u   13.022494  

	Beta Occupied:                                                        

	   1Ag   -20.736925     1B1u  -20.735943     2Ag    -1.660892  
	   2B1u   -1.099790     1B2u   -0.771305     3Ag    -0.740462  
	   1B3u   -0.653896     1B3g   -0.465277  

	Beta Virtual:                                                         

	   1B2g    0.031321     3B1u    0.406493     2B2u    0.707901  
	   2B3u    0.712323     4Ag     0.732820     4B1u    0.756268  
	   2B3g    0.819940     2B2g    0.843976     5Ag     0.882861  
	   5B1u    1.444546     1B1g    1.469088     6Ag     1.469942  
	   3B3u    1.565694     3B2u    1.570360     1Au     1.907237  
	   6B1u    1.907834     7Ag     2.407942     7B1u    2.460438  
	   3B2g    2.472245     3B3g    2.489880     4B2u    3.902655  
	   4B3u    3.903278     8Ag     4.070102     4B2g    4.184680  
	   4B3g    4.195949     9Ag     4.987948     2B1g    4.988359  
	   5B3u    5.046561     5B2u    5.089896     8B1u    5.200734  
	   6B3u    5.335037     6B2u    5.335166    10Ag     5.344708  
	   5B2g    5.592782     5B3g    5.592787     9B1u    6.156038  
	   2Au     6.157019    10B1u    6.219951     3B1g    6.545084  
	  11Ag     6.545302     3Au     6.758054    11B1u    6.758835  
	   6B2g    6.793031     6B3g    6.823678     7B3u    6.893180  
	   7B2u    6.929298    12B1u    7.198171    12Ag     7.538826  
	   7B2g    7.658779     7B3g    7.704344    13Ag     8.086811  
	  13B1u   13.022494  

	Final Occupation by Irrep:
	         Ag   B1g   B2g   B3g    Au   B1u   B2u   B3u 
	DOCC [     3,    0,    0,    1,    0,    2,    1,    1 ]
	SOCC [     0,    0,    0,    0,    0,    0,    0,    0 ]

  Energy converged.

  @UHF Final Energy:  -149.59059723621152

  ==> Properties <==
  Nuclear Dipole Moment: (a.u.)
     X:     0.0000      Y:     0.0000      Z:     0.0000

  Electronic Dipole Moment: (a.u.)
     X:     0.0000      Y:     0.0000      Z:     0.0000

  Dipole Moment: (a.u.)
     X:     0.0000      Y:     0.0000      Z:     0.0000     Total:     0.0000

  Dipole Moment: (Debye)
     X:     0.0000      Y:     0.0000      Z:     0.0000     Total:     0.0000

  Quadrupole Moment: (Debye Ang)
    XX:    -9.1629     YY:   -10.7610     ZZ:   -10.4188
    XY:     0.0000     XZ:     0.0000     YZ:     0.0000

  Traceless Quadrupole Moment: (Debye Ang)
    XX:     0.9513     YY:    -0.6468     ZZ:    -0.3046
    XY:     0.0000     XZ:     0.0000     YZ:     0.0000

  Mulliken Charges: (a.u.)
   Center  Symbol    Alpha    Beta     Spin     Total
       1     O     4.00000  4.00000  0.00000  0.00000
       2     O     4.00000  4.00000  0.00000  0.00000

   Total alpha =  8.00000, Total beta =  8.00000, Total charge = -0.00000


  @Spin Contamination Metric: -0.00000
  @S^2 Expected:               0.00000
  @S^2 Observed:              -0.00000

  Saving occupied orbitals to File 180.

*** tstop() called on QuickSilver.local at Mon Jan 23 14:38:18 2012
Module time:
	user time   =       0.70 seconds =       0.01 minutes
	system time =       0.04 seconds =       0.00 minutes
	total time  =          1 seconds =       0.02 minutes
Total time:
	user time   =      12.48 seconds =       0.21 minutes
	system time =       0.17 seconds =       0.00 minutes
	total time  =         13 seconds =       0.22 minutes

*** tstart() called on QuickSilver.local
*** at Mon Jan 23 14:38:18 2012


         ---------------------------------------------------------
                                   SCF
            by Justin Turney, Rob Parrish, and Andy Simmonett
                              UHF Reference
                        1 Threads,    250 MiB Core
         ---------------------------------------------------------

  ==> Geometry <==

    Molecular point group: d2h

    Geometry (in Angstrom), charge = 0, multiplicity = 1:

       Center              X                  Y                   Z       
    ------------   -----------------  -----------------  -----------------
           O          0.000000000000     0.000000000000    -0.600000000000
           O          0.000000000000     0.000000000000     0.600000000000

    Number of unique atoms: 1

    Atoms equivalency:
       unique atom 0: 0 1 

  Running in d2h symmetry.

  Nuclear repulsion =   28.222784458133336

  Charge       = 0
  Multiplicity = 1
  Electrons    = 16
  Nalpha       = 8
  Nbeta        = 8

  ==> Algorithm <==

  SCF Algorithm Type is DF.
  DIIS enabled.
  MOM disabled.
  Fractional occupation disabled.
  Guess Type is CORE.
  Energy threshold   = 1.00e-08
  Density threshold  = 1.00e-08
  Integral threshold = 0.00e+00

  ==> Primary Basis: CC-PVTZ <==

  -AO BASIS SET INFORMATION:
    Total number of shells = 20
    Number of primitives   = 52
    Number of AO           = 70
    Number of SO           = 60
    Maximum AM             = 3
    Spherical Harmonics    = TRUE

  -Contraction Scheme:
    Atom   Type   All Primitives // Shells:
   ------ ------ --------------------------
       1     O     18s 5p 2d 1f // 4s 3p 2d 1f 
       2     O     18s 5p 2d 1f // 4s 3p 2d 1f 

  ==> Pre-Iterations <==

  Minimum eigenvalue in the overlap matrix is 4.2858401312E-03.
  Using Symmetric Orthogonalization.
  SCF Guess: Core (One-Electron) Hamiltonian.

  Initial UHF energy:  -113.02734711776702

   -------------------------------------------------------
    Irrep   Nso     Nmo     Nalpha   Nbeta   Ndocc  Nsocc
   -------------------------------------------------------
     Ag        13      13       2       2       2       0
     B1g        3       3       0       0       0       0
     B2g        7       7       1       1       1       0
     B3g        7       7       1       1       1       0
     Au         3       3       0       0       0       0
     B1u       13      13       2       2       2       0
     B2u        7       7       1       1       1       0
     B3u        7       7       1       1       1       0
   -------------------------------------------------------
    Total      60      60       8       8       8       0
   -------------------------------------------------------

  ==> Integral Setup <==

 DFHF: Density-Fitted SCF Algorithms.
   by Rob Parrish

  ==> Auxiliary Basis: CC-PVTZ-JKFIT <==

  -AO BASIS SET INFORMATION:
    Total number of shells = 50
    Number of primitives   = 50
    Number of AO           = 192
    Number of SO           = 158
    Maximum AM             = 4
    Spherical Harmonics    = TRUE

  -Contraction Scheme:
    Atom   Type   All Primitives // Shells:
   ------ ------ --------------------------
       1     O     10s 7p 5d 2f 1g // 10s 7p 5d 2f 1g 
       2     O     10s 7p 5d 2f 1g // 10s 7p 5d 2f 1g 

  Schwarz Cutoff is 0.000E+00
   -Shell Pairs:             210 of          210 remain,   0% savings
   -Function Pairs:         1830 of         1830 remain,   0% savings

  Using Core Algorithm.

    ----------------------------------------------
     Quantity         Doubles              MiB   
    ----------------------------------------------
     Memory            21875000              175
     (A|B)                24964                0
     (A|mn)              289140                2
    ----------------------------------------------

  ==> Iterations <==

                        Total Energy        Delta E     Density RMS

   @UHF iter   1:  -130.87666606811291   -1.78493e+01   0.00000e+00 
	Occupation by irrep:
	         Ag   B1g   B2g   B3g    Au   B1u   B2u   B3u 
	DOCC [     3,    0,    1,    0,    0,    2,    1,    1 ]
	SOCC [     0,    0,    0,    0,    0,    0,    0,    0 ]
   @UHF iter   2:  -140.04491881778981   -9.16825e+00   2.20218e-01 DIIS
   @UHF iter   3:  -149.17612867870019   -9.13121e+00   2.02367e-01 DIIS
   @UHF iter   4:  -149.57802401404544   -4.01895e-01   1.46825e-02 DIIS
   @UHF iter   5:  -149.59031867142517   -1.22947e-02   3.99086e-03 DIIS
   @UHF iter   6:  -149.59052228892398   -2.03617e-04   4.94869e-04 DIIS
   @UHF iter   7:  -149.59052866262522   -6.37370e-06   9.66301e-05 DIIS
   @UHF iter   8:  -149.59052878226558   -1.19640e-07   1.32731e-05 DIIS
   @UHF iter   9:  -149.59052878643428   -4.16870e-09   2.01301e-06 DIIS
   @UHF iter  10:  -149.59052878646762   -3.33387e-11   1.79205e-07 DIIS
   @UHF iter  11:  -149.59052878646835   -7.38964e-13   2.99572e-08 DIIS

  ==> Post-Iterations <==

	Orbital Energies (a.u.)
	-----------------------

	Alpha Occupied:                                                       

	   1Ag   -20.736954     1B1u  -20.735972     2Ag    -1.660926  
	   2B1u   -1.099809     1B3u   -0.771300     3Ag    -0.740474  
	   1B2u   -0.653904     1B2g   -0.465310  

	Alpha Virtual:                                                        

	   1B3g    0.031310     3B1u    0.406559     2B3u    0.708127  
	   2B2u    0.712513     4Ag     0.732997     4B1u    0.756393  
	   2B2g    0.820106     2B3g    0.844190     5Ag     0.882947  
	   5B1u    1.444764     1B1g    1.469656     6Ag     1.470475  
	   3B2u    1.566040     3B3u    1.570760     1Au     1.907747  
	   6B1u    1.908328     7Ag     2.408277     7B1u    2.460928  
	   3B3g    2.472829     3B2g    2.490281     4B3u    3.903324  
	   4B2u    3.903872     8Ag     4.071289     4B3g    4.185386  
	   4B2g    4.196748     9Ag     4.993055     2B1g    4.993456  
	   5B2u    5.051928     5B3u    5.095665     8B1u    5.201909  
	   6B2u    5.339915     6B3u    5.340050    10Ag     5.349915  
	   5B3g    5.597774     5B2g    5.597779     9B1u    6.161730  
	   2Au     6.162817    10B1u    6.223453     3B1g    6.552840  
	  11Ag     6.553156     3Au     6.765723    11B1u    6.766597  
	   6B3g    6.800077     6B2g    6.831557     7B2u    6.900258  
	   7B3u    6.936880    12B1u    7.203646    12Ag     7.540223  
	   7B3g    7.664481     7B2g    7.710653    13Ag     8.094258  
	  13B1u   13.025576  

	Beta Occupied:                                                        

	   1Ag   -20.736954     1B1u  -20.735972     2Ag    -1.660926  
	   2B1u   -1.099809     1B3u   -0.771300     3Ag    -0.740474  
	   1B2u   -0.653904     1B2g   -0.465310  

	Beta Virtual:                                                         

	   1B3g    0.031310     3B1u    0.406559     2B3u    0.708127  
	   2B2u    0.712513     4Ag     0.732997     4B1u    0.756393  
	   2B2g    0.820106     2B3g    0.844190     5Ag     0.882947  
	   5B1u    1.444764     1B1g    1.469656     6Ag     1.470475  
	   3B2u    1.566040     3B3u    1.570760     1Au     1.907747  
	   6B1u    1.908328     7Ag     2.408277     7B1u    2.460928  
	   3B3g    2.472829     3B2g    2.490281     4B3u    3.903324  
	   4B2u    3.903872     8Ag     4.071289     4B3g    4.185386  
	   4B2g    4.196748     9Ag     4.993055     2B1g    4.993456  
	   5B2u    5.051928     5B3u    5.095665     8B1u    5.201909  
	   6B2u    5.339915     6B3u    5.340050    10Ag     5.349915  
	   5B3g    5.597774     5B2g    5.597779     9B1u    6.161730  
	   2Au     6.162817    10B1u    6.223453     3B1g    6.552840  
	  11Ag     6.553156     3Au     6.765723    11B1u    6.766597  
	   6B3g    6.800077     6B2g    6.831557     7B2u    6.900258  
	   7B3u    6.936880    12B1u    7.203646    12Ag     7.540223  
	   7B3g    7.664481     7B2g    7.710653    13Ag     8.094258  
	  13B1u   13.025576  

	Final Occupation by Irrep:
	         Ag   B1g   B2g   B3g    Au   B1u   B2u   B3u 
	DOCC [     3,    0,    1,    0,    0,    2,    1,    1 ]
	SOCC [     0,    0,    0,    0,    0,    0,    0,    0 ]

  Energy converged.

  @UHF Final Energy:  -149.59052878646835

  ==> Properties <==
  Nuclear Dipole Moment: (a.u.)
     X:     0.0000      Y:     0.0000      Z:     0.0000

  Electronic Dipole Moment: (a.u.)
     X:     0.0000      Y:     0.0000      Z:     0.0000

  Dipole Moment: (a.u.)
     X:     0.0000      Y:     0.0000      Z:     0.0000     Total:     0.0000

  Dipole Moment: (Debye)
     X:     0.0000      Y:     0.0000      Z:     0.0000     Total:     0.0000

  Quadrupole Moment: (Debye Ang)
    XX:   -10.7614     YY:    -9.1632     ZZ:   -10.4191
    XY:     0.0000     XZ:     0.0000     YZ:     0.0000

  Traceless Quadrupole Moment: (Debye Ang)
    XX:    -0.6468     YY:     0.9514     ZZ:    -0.3045
    XY:     0.0000     XZ:     0.0000     YZ:     0.0000

  Mulliken Charges: (a.u.)
   Center  Symbol    Alpha    Beta     Spin     Total
       1     O     4.00000  4.00000  0.00000  0.00000
       2     O     4.00000  4.00000  0.00000  0.00000

   Total alpha =  8.00000, Total beta =  8.00000, Total charge =  0.00000


  @Spin Contamination Metric:  0.00000
  @S^2 Expected:               0.00000
  @S^2 Observed:               0.00000

  Saving occupied orbitals to File 180.

*** tstop() called on QuickSilver.local at Mon Jan 23 14:38:18 2012
Module time:
	user time   =       0.52 seconds =       0.01 minutes
	system time =       0.03 seconds =       0.00 minutes
	total time  =          0 seconds =       0.00 minutes
Total time:
	user time   =      13.00 seconds =       0.22 minutes
	system time =       0.20 seconds =       0.00 minutes
	total time  =         13 seconds =       0.22 minutes

*** tstart() called on QuickSilver.local
*** at Mon Jan 23 14:38:18 2012


         ---------------------------------------------------------
                                   SCF
            by Justin Turney, Rob Parrish, and Andy Simmonett
                             CUHF Reference
                        1 Threads,    250 MiB Core
         ---------------------------------------------------------

  ==> Geometry <==

    Molecular point group: d2h

    Geometry (in Angstrom), charge = 0, multiplicity = 1:

       Center              X                  Y                   Z       
    ------------   -----------------  -----------------  -----------------
           O          0.000000000000     0.000000000000    -0.600000000000
           O          0.000000000000     0.000000000000     0.600000000000

    Number of unique atoms: 1

    Atoms equivalency:
       unique atom 0: 0 1 

  Running in d2h symmetry.

  Nuclear repulsion =   28.222784458133336

  Charge       = 0
  Multiplicity = 1
  Electrons    = 16
  Nalpha       = 8
  Nbeta        = 8

  ==> Algorithm <==

  SCF Algorithm Type is PK.
  DIIS enabled.
  MOM disabled.
  Fractional occupation disabled.
  Guess Type is CORE.
  Energy threshold   = 1.00e-08
  Density threshold  = 1.00e-08
  Integral threshold = 0.00e+00

  ==> Primary Basis: CC-PVTZ <==

  -AO BASIS SET INFORMATION:
    Total number of shells = 20
    Number of primitives   = 52
    Number of AO           = 70
    Number of SO           = 60
    Maximum AM             = 3
    Spherical Harmonics    = TRUE

  -Contraction Scheme:
    Atom   Type   All Primitives // Shells:
   ------ ------ --------------------------
       1     O     18s 5p 2d 1f // 4s 3p 2d 1f 
       2     O     18s 5p 2d 1f // 4s 3p 2d 1f 

  ==> Pre-Iterations <==

  Minimum eigenvalue in the overlap matrix is 4.2858401312E-03.
  Using Symmetric Orthogonalization.
  SCF Guess: Core (One-Electron) Hamiltonian.

  Initial CUHF energy:  -113.02734711776702

   -------------------------------------------------------
    Irrep   Nso     Nmo     Nalpha   Nbeta   Ndocc  Nsocc
   -------------------------------------------------------
     Ag        13      13       2       2       2       0
     B1g        3       3       0       0       0       0
     B2g        7       7       1       1       1       0
     B3g        7       7       1       1       1       0
     Au         3       3       0       0       0       0
     B1u       13      13       2       2       2       0
     B2u        7       7       1       1       1       0
     B3u        7       7       1       1       1       0
   -------------------------------------------------------
    Total      60      60       8       8       8       0
   -------------------------------------------------------

  ==> Integral Setup <==

 MINTS: Wrapper to libmints.
   by Justin Turney

   Calculation information:
      Number of atoms:                   2
      Number of AO shells:              20
      Number of SO shells:              10
      Number of primitives:             52
      Number of atomic orbitals:        70
      Number of basis functions:        60

      Number of irreps:                  8
      Number of functions per irrep: [  13    3    7    7    3   13    7    7 ]

      Overlap, kinetic, potential, dipole, and quadrupole integrals
        stored in file 35.

      Computing two-electron integrals...done
      Computed 180477 non-zero two-electron integrals.
        Stored in file 33.

  ==> Iterations <==

                        Total Energy        Delta E     Density RMS

  Forming PK and K matrices.
   @CUHF iter   1:  -130.87953989478825   -1.78522e+01   0.00000e+00 
	Occupation by irrep:
	         Ag   B1g   B2g   B3g    Au   B1u   B2u   B3u 
	DOCC [     3,    0,    1,    0,    0,    2,    1,    1 ]
	SOCC [     0,    0,    0,    0,    0,    0,    0,    0 ]
   @CUHF iter   2:  -140.04253152363867   -9.16299e+00   4.41738e-01 DIIS
   @CUHF iter   3:  -149.17635355329764   -9.13382e+00   4.06166e-01 DIIS
   @CUHF iter   4:  -149.57809876181389   -4.01745e-01   2.93417e-02 DIIS
   @CUHF iter   5:  -149.59038744607500   -1.22887e-02   7.96689e-03 DIIS
   @CUHF iter   6:  -149.59059079586581   -2.03350e-04   9.86565e-04 DIIS
   @CUHF iter   7:  -149.59059711351478   -6.31765e-06   1.92572e-04 DIIS
   @CUHF iter   8:  -149.59059723201253   -1.18498e-07   2.61978e-05 DIIS
   @CUHF iter   9:  -149.59059723617759   -4.16506e-09   4.02201e-06 DIIS
   @CUHF iter  10:  -149.59059723621101   -3.34239e-11   3.55845e-07 DIIS
   @CUHF iter  11:  -149.59059723621158   -5.68434e-13   5.98697e-08 DIIS

  ==> Post-Iterations <==

	Orbital Energies (a.u.)
	-----------------------

	Alpha Occupied:                                                       

	   1Ag   -20.736925     1B1u  -20.735943     2Ag    -1.660892  
	   2B1u   -1.099790     1B3u   -0.771305     3Ag    -0.740462  
	   1B2u   -0.653896     1B2g   -0.465277  

	Alpha Virtual:                                                        

	   1B3g    0.031321     3B1u    0.406493     2B3u    0.707901  
	   2B2u    0.712323     4Ag     0.732820     4B1u    0.756268  
	   2B2g    0.819940     2B3g    0.843976     5Ag     0.882861  
	   5B1u    1.444546     1B1g    1.469088     6Ag     1.469942  
	   3B2u    1.565694     3B3u    1.570360     1Au     1.907237  
	   6B1u    1.907834     7Ag     2.407942     7B1u    2.460438  
	   3B3g    2.472245     3B2g    2.489880     4B3u    3.902655  
	   4B2u    3.903278     8Ag     4.070102     4B3g    4.184680  
	   4B2g    4.195949     9Ag     4.987948     2B1g    4.988359  
	   5B2u    5.046561     5B3u    5.089896     8B1u    5.200734  
	   6B2u    5.335037     6B3u    5.335166    10Ag     5.344708  
	   5B3g    5.592782     5B2g    5.592787     9B1u    6.156038  
	   2Au     6.157019    10B1u    6.219951     3B1g    6.545084  
	  11Ag     6.545302     3Au     6.758054    11B1u    6.758835  
	   6B3g    6.793031     6B2g    6.823678     7B2u    6.893180  
	   7B3u    6.929298    12B1u    7.198171    12Ag     7.538826  
	   7B3g    7.658779     7B2g    7.704344    13Ag     8.086811  
	  13B1u   13.022494  

	Beta Occupied:                                                        

	   1Ag   -20.736925     1B1u  -20.735943     2Ag    -1.660892  
[...]

   Total alpha =  9.00000, Total beta =  7.00000, Total charge = -0.00000


  @Spin Contamination Metric: -0.00000
  @S^2 Expected:               2.00000
  @S^2 Observed:               2.00000

  Saving occupied orbitals to File 180.

*** tstop() called on QuickSilver.local at Mon Jan 23 14:38:45 2012
Module time:
	user time   =       4.80 seconds =       0.08 minutes
	system time =       0.01 seconds =       0.00 minutes
	total time  =          5 seconds =       0.08 minutes
Total time:
	user time   =      38.97 seconds =       0.65 minutes
	system time =       0.54 seconds =       0.01 minutes
	total time  =         40 seconds =       0.67 minutes

*** tstart() called on QuickSilver.local
*** at Mon Jan 23 14:38:45 2012


         ---------------------------------------------------------
                                   SCF
            by Justin Turney, Rob Parrish, and Andy Simmonett
                             CUHF Reference
                        1 Threads,    250 MiB Core
         ---------------------------------------------------------

  ==> Geometry <==

    Molecular point group: d2h

    Geometry (in Angstrom), charge = 0, multiplicity = 3:

       Center              X                  Y                   Z       
    ------------   -----------------  -----------------  -----------------
           O          0.000000000000     0.000000000000    -0.600000000000
           O          0.000000000000     0.000000000000     0.600000000000

    Number of unique atoms: 1

    Atoms equivalency:
       unique atom 0: 0 1 

  Running in d2h symmetry.

  Nuclear repulsion =   28.222784458133336

  Charge       = 0
  Multiplicity = 3
  Electrons    = 16
  Nalpha       = 9
  Nbeta        = 7

  ==> Algorithm <==

  SCF Algorithm Type is OUT_OF_CORE.
  DIIS enabled.
  MOM disabled.
  Fractional occupation disabled.
  Guess Type is CORE.
  Energy threshold   = 1.00e-08
  Density threshold  = 1.00e-08
  Integral threshold = 0.00e+00

  ==> Primary Basis: CC-PVTZ <==

  -AO BASIS SET INFORMATION:
    Total number of shells = 20
    Number of primitives   = 52
    Number of AO           = 70
    Number of SO           = 60
    Maximum AM             = 3
    Spherical Harmonics    = TRUE

  -Contraction Scheme:
    Atom   Type   All Primitives // Shells:
   ------ ------ --------------------------
       1     O     18s 5p 2d 1f // 4s 3p 2d 1f 
       2     O     18s 5p 2d 1f // 4s 3p 2d 1f 

  ==> Pre-Iterations <==

  Minimum eigenvalue in the overlap matrix is 4.2858401312E-03.
  Using Symmetric Orthogonalization.
  SCF Guess: Core (One-Electron) Hamiltonian.

  Initial CUHF energy:  -112.81603870657221

   -------------------------------------------------------
    Irrep   Nso     Nmo     Nalpha   Nbeta   Ndocc  Nsocc
   -------------------------------------------------------
     Ag        13      13       2       2       2       0
     B1g        3       3       0       0       0       0
     B2g        7       7       1       0       0       1
     B3g        7       7       1       1       1       0
     Au         3       3       0       0       0       0
     B1u       13      13       3       2       2       1
     B2u        7       7       1       1       1       0
     B3u        7       7       1       1       1       0
   -------------------------------------------------------
    Total      60      60       9       7       7       2
   -------------------------------------------------------

  ==> Integral Setup <==

 MINTS: Wrapper to libmints.
   by Justin Turney

   Calculation information:
      Number of atoms:                   2
      Number of AO shells:              20
      Number of SO shells:              10
      Number of primitives:             52
      Number of atomic orbitals:        70
      Number of basis functions:        60

      Number of irreps:                  8
      Number of functions per irrep: [  13    3    7    7    3   13    7    7 ]

      Overlap, kinetic, potential, dipole, and quadrupole integrals
        stored in file 35.

      Computing two-electron integrals...done
      Computed 180477 non-zero two-electron integrals.
        Stored in file 33.

  ==> Iterations <==

                        Total Energy        Delta E     Density RMS

   @CUHF iter   1:  -131.74795839881580   -1.89319e+01   0.00000e+00 
	Occupation by irrep:
	         Ag   B1g   B2g   B3g    Au   B1u   B2u   B3u 
	DOCC [     3,    0,    0,    0,    0,    2,    1,    1 ]
	SOCC [     0,    0,    1,    1,    0,    0,    0,    0 ]
   @CUHF iter   2:  -141.34745775350353   -9.59950e+00   3.43643e-01 DIIS
   @CUHF iter   3:  -149.32186865387413   -7.97441e+00   2.98430e-01 DIIS
   @CUHF iter   4:  -149.64447293218819   -3.22604e-01   2.40639e-02 DIIS
   @CUHF iter   5:  -149.65389481517084   -9.42188e-03   6.36417e-03 DIIS
   @CUHF iter   6:  -149.65398666571471   -9.18505e-05   7.58265e-04 DIIS
   @CUHF iter   7:  -149.65398572744490    9.38270e-07   2.24224e-04 DIIS
   @CUHF iter   8:  -149.65398715246801   -1.42502e-06   2.04427e-05 DIIS
   @CUHF iter   9:  -149.65398720586509   -5.33971e-08   1.09084e-06 DIIS
   @CUHF iter  10:  -149.65398719125514    1.46100e-08   2.51082e-07 DIIS
   @CUHF iter  11:  -149.65398718669169    4.56345e-09   3.87231e-08 DIIS

  ==> Post-Iterations <==

	Orbital Energies (a.u.)
	-----------------------

	Alpha Occupied:                                                       

	   1Ag   -20.748118     1B1u  -20.747498     2Ag    -1.709706  
	   2B1u   -1.185219     1B3u   -0.822494     1B2u   -0.822494  
	   3Ag    -0.768922     1B2g   -0.526668     1B3g   -0.526668  

	Alpha Virtual:                                                        

	   3B1u    0.385403     2B3u    0.683564     2B2u    0.683564  
	   4Ag     0.727493     4B1u    0.740301     2B2g    0.795901  
	   2B3g    0.795901     5Ag     0.872401     5B1u    1.428549  
	   1B1g    1.441898     6Ag     1.441898     3B2u    1.537491  
	   3B3u    1.537491     1Au     1.863025     6B1u    1.863025  
	   7Ag     2.387459     7B1u    2.450697     3B2g    2.458606  
	   3B3g    2.458606     4B3u    3.860476     4B2u    3.860476  
	   8Ag     4.064237     4B2g    4.150390     4B3g    4.150390  
	   2B1g    4.973826     9Ag     4.973826     5B2u    5.057941  
	   5B3u    5.057941     8B1u    5.190542     6B3u    5.310288  
	   6B2u    5.310288    10Ag     5.332900     5B2g    5.566030  
	   5B3g    5.566030     2Au     6.136203     9B1u    6.136203  
	  10B1u    6.203159     3B1g    6.499301    11Ag     6.499301  
	   3Au     6.715764    11B1u    6.715764     6B2g    6.784201  
	   6B3g    6.784201     7B3u    6.889268     7B2u    6.889268  
	  12B1u    7.187780    12Ag     7.526604     7B3g    7.670966  
	   7B2g    7.670966    13Ag     8.071985    13B1u   13.011964  

	Beta Occupied:                                                        

	   1Ag   -20.707159     1B1u  -20.705838     2Ag    -1.601457  
	   2B1u   -1.004650     3Ag    -0.700323     1B3u   -0.590442  
	   1B2u   -0.590442  

	Beta Virtual:                                                         

	   1B2g    0.094284     1B3g    0.094284     3B1u    0.430848  
	   2B3u    0.738686     2B2u    0.738686     4Ag     0.741112  
	   4B1u    0.782622     2B2g    0.876077     2B3g    0.876077  
	   5Ag     0.901160     5B1u    1.466615     6Ag     1.502984  
	   1B1g    1.502984     3B2u    1.604840     3B3u    1.604840  
	   6B1u    1.958105     1Au     1.958105     7Ag     2.434719  
	   7B1u    2.476759     3B2g    2.509522     3B3g    2.509522  
	   4B3u    3.956648     4B2u    3.956648     8Ag     4.088608  
	   4B2g    4.241920     4B3g    4.241920     9Ag     5.012375  
	   2B1g    5.012375     5B2u    5.089933     5B3u    5.089933  
	   8B1u    5.222344    10Ag     5.366253     6B3u    5.367843  
	   6B2u    5.367843     5B2g    5.628769     5B3g    5.628769  
	   9B1u    6.187840     2Au     6.187840    10B1u    6.244051  
	  11Ag     6.603844     3B1g    6.603844    11B1u    6.812670  
	   3Au     6.812670     6B3g    6.844679     6B2g    6.844679  
	   7B2u    6.944886     7B3u    6.944886    12B1u    7.220239  
	  12Ag     7.563255     7B3g    7.701470     7B2g    7.701470  
	  13Ag     8.112038    13B1u   13.046614  

	Final Occupation by Irrep:
	         Ag   B1g   B2g   B3g    Au   B1u   B2u   B3u 
	DOCC [     3,    0,    0,    0,    0,    2,    1,    1 ]
	SOCC [     0,    0,    1,    1,    0,    0,    0,    0 ]

  Energy converged.

  @CUHF Final Energy:  -149.65398718669169

  ==> Properties <==
  Nuclear Dipole Moment: (a.u.)
     X:     0.0000      Y:     0.0000      Z:     0.0000

  Electronic Dipole Moment: (a.u.)
     X:     0.0000      Y:     0.0000      Z:     0.0000

  Dipole Moment: (a.u.)
     X:     0.0000      Y:     0.0000      Z:     0.0000     Total:     0.0000

  Dipole Moment: (Debye)
     X:     0.0000      Y:     0.0000      Z:     0.0000     Total:     0.0000

  Quadrupole Moment: (Debye Ang)
    XX:    -9.9023     YY:    -9.9023     ZZ:   -10.3546
    XY:     0.0000     XZ:     0.0000     YZ:     0.0000

  Traceless Quadrupole Moment: (Debye Ang)
    XX:     0.1508     YY:     0.1508     ZZ:    -0.3016
    XY:     0.0000     XZ:     0.0000     YZ:     0.0000

  Mulliken Charges: (a.u.)
   Center  Symbol    Alpha    Beta     Spin     Total
       1     O     4.50000  3.50000  1.00000 -0.00000
       2     O     4.50000  3.50000  1.00000 -0.00000

   Total alpha =  9.00000, Total beta =  7.00000, Total charge = -0.00000


  @Spin Contamination Metric: -0.00000
  @S^2 Expected:               2.00000
  @S^2 Observed:               2.00000

  Saving occupied orbitals to File 180.

*** tstop() called on QuickSilver.local at Mon Jan 23 14:38:46 2012
Module time:
	user time   =       0.69 seconds =       0.01 minutes
	system time =       0.04 seconds =       0.00 minutes
	total time  =          1 seconds =       0.02 minutes
Total time:
	user time   =      39.66 seconds =       0.66 minutes
	system time =       0.58 seconds =       0.01 minutes
	total time  =         41 seconds =       0.68 minutes

*** tstart() called on QuickSilver.local
*** at Mon Jan 23 14:38:46 2012


         ---------------------------------------------------------
                                   SCF
            by Justin Turney, Rob Parrish, and Andy Simmonett
                             CUHF Reference
                        1 Threads,    250 MiB Core
         ---------------------------------------------------------

  ==> Geometry <==

    Molecular point group: d2h

    Geometry (in Angstrom), charge = 0, multiplicity = 3:

       Center              X                  Y                   Z       
    ------------   -----------------  -----------------  -----------------
           O          0.000000000000     0.000000000000    -0.600000000000
           O          0.000000000000     0.000000000000     0.600000000000

    Number of unique atoms: 1

    Atoms equivalency:
       unique atom 0: 0 1 

  Running in d2h symmetry.

  Nuclear repulsion =   28.222784458133336

  Charge       = 0
  Multiplicity = 3
  Electrons    = 16
  Nalpha       = 9
  Nbeta        = 7

  ==> Algorithm <==

  SCF Algorithm Type is DF.
  DIIS enabled.
  MOM disabled.
  Fractional occupation disabled.
  Guess Type is CORE.
  Energy threshold   = 1.00e-08
  Density threshold  = 1.00e-08
  Integral threshold = 0.00e+00

  ==> Primary Basis: CC-PVTZ <==

  -AO BASIS SET INFORMATION:
    Total number of shells = 20
    Number of primitives   = 52
    Number of AO           = 70
    Number of SO           = 60
    Maximum AM             = 3
    Spherical Harmonics    = TRUE

  -Contraction Scheme:
    Atom   Type   All Primitives // Shells:
   ------ ------ --------------------------
       1     O     18s 5p 2d 1f // 4s 3p 2d 1f 
       2     O     18s 5p 2d 1f // 4s 3p 2d 1f 

  ==> Pre-Iterations <==

  Minimum eigenvalue in the overlap matrix is 4.2858401312E-03.
  Using Symmetric Orthogonalization.
  SCF Guess: Core (One-Electron) Hamiltonian.

  Initial CUHF energy:  -112.81603870657221

   -------------------------------------------------------
    Irrep   Nso     Nmo     Nalpha   Nbeta   Ndocc  Nsocc
   -------------------------------------------------------
     Ag        13      13       2       2       2       0
     B1g        3       3       0       0       0       0
     B2g        7       7       1       0       0       1
     B3g        7       7       1       1       1       0
     Au         3       3       0       0       0       0
     B1u       13      13       3       2       2       1
     B2u        7       7       1       1       1       0
     B3u        7       7       1       1       1       0
   -------------------------------------------------------
    Total      60      60       9       7       7       2
   -------------------------------------------------------

  ==> Integral Setup <==

 DFHF: Density-Fitted SCF Algorithms.
   by Rob Parrish

  ==> Auxiliary Basis: CC-PVTZ-JKFIT <==

  -AO BASIS SET INFORMATION:
    Total number of shells = 50
    Number of primitives   = 50
    Number of AO           = 192
    Number of SO           = 158
    Maximum AM             = 4
    Spherical Harmonics    = TRUE

  -Contraction Scheme:
    Atom   Type   All Primitives // Shells:
   ------ ------ --------------------------
       1     O     10s 7p 5d 2f 1g // 10s 7p 5d 2f 1g 
       2     O     10s 7p 5d 2f 1g // 10s 7p 5d 2f 1g 

  Schwarz Cutoff is 0.000E+00
   -Shell Pairs:             210 of          210 remain,   0% savings
   -Function Pairs:         1830 of         1830 remain,   0% savings

  Using Core Algorithm.

    ----------------------------------------------
     Quantity         Doubles              MiB   
    ----------------------------------------------
     Memory            21875000              175
     (A|B)                24964                0
     (A|mn)              289140                2
    ----------------------------------------------

  ==> Iterations <==

                        Total Energy        Delta E     Density RMS

   @CUHF iter   1:  -131.74516984948585   -1.89291e+01   0.00000e+00 
	Occupation by irrep:
	         Ag   B1g   B2g   B3g    Au   B1u   B2u   B3u 
	DOCC [     3,    0,    0,    0,    0,    2,    1,    1 ]
	SOCC [     0,    0,    1,    1,    0,    0,    0,    0 ]
   @CUHF iter   2:  -141.34777621230171   -9.60261e+00   3.42718e-01 DIIS
   @CUHF iter   3:  -149.32169220450652   -7.97392e+00   2.97351e-01 DIIS
   @CUHF iter   4:  -149.64439384809296   -3.22702e-01   2.40849e-02 DIIS
   @CUHF iter   5:  -149.65381336977600   -9.41952e-03   6.37676e-03 DIIS
   @CUHF iter   6:  -149.65390550485142   -9.21351e-05   7.61712e-04 DIIS
   @CUHF iter   7:  -149.65390457147737    9.33374e-07   2.24549e-04 DIIS
   @CUHF iter   8:  -149.65390600199137   -1.43051e-06   2.05319e-05 DIIS
   @CUHF iter   9:  -149.65390605452137   -5.25300e-08   1.08412e-06 DIIS
   @CUHF iter  10:  -149.65390603950706    1.50143e-08   2.44018e-07 DIIS
   @CUHF iter  11:  -149.65390603497798    4.52908e-09   3.85015e-08 DIIS

  ==> Post-Iterations <==

	Orbital Energies (a.u.)
	-----------------------

	Alpha Occupied:                                                       

	   1Ag   -20.748143     1B1u  -20.747524     2Ag    -1.709739  
	   2B1u   -1.185236     1B3u   -0.822496     1B2u   -0.822496  
	   3Ag    -0.768933     1B2g   -0.526688     1B3g   -0.526688  

	Alpha Virtual:                                                        

	   3B1u    0.385466     2B3u    0.683765     2B2u    0.683765  
	   4Ag     0.727676     4B1u    0.740476     2B2g    0.796206  
	   2B3g    0.796206     5Ag     0.872498     5B1u    1.428887  
	   1B1g    1.442520     6Ag     1.442520     3B2u    1.537906  
	   3B3u    1.537906     1Au     1.863716     6B1u    1.863716  
	   7Ag     2.387861     7B1u    2.451335     3B2g    2.459270  
	   3B3g    2.459270     4B3u    3.861183     4B2u    3.861183  
	   8Ag     4.065538     4B2g    4.151283     4B3g    4.151283  
	   2B1g    4.979743     9Ag     4.979743     5B2u    5.064141  
	   5B3u    5.064141     8B1u    5.191845     6B3u    5.316441  
	   6B2u    5.316441    10Ag     5.338670     5B2g    5.572595  
	   5B3g    5.572595     2Au     6.143785     9B1u    6.143785  
	  10B1u    6.207441     3B1g    6.509538    11Ag     6.509538  
	   3Au     6.726309    11B1u    6.726309     6B2g    6.793925  
	   6B3g    6.793925     7B3u    6.898380     7B2u    6.898380  
	  12B1u    7.194826    12Ag     7.528188     7B3g    7.679102  
	   7B2g    7.679102    13Ag     8.081478    13B1u   13.016368  

	Beta Occupied:                                                        

	   1Ag   -20.707183     1B1u  -20.705863     2Ag    -1.601493  
	   2B1u   -1.004667     3Ag    -0.700333     1B3u   -0.590440  
	   1B2u   -0.590440  

	Beta Virtual:                                                         

	   1B2g    0.094258     1B3g    0.094258     3B1u    0.430898  
	   2B3u    0.738893     2B2u    0.738893     4Ag     0.741260  
	   4B1u    0.782687     2B2g    0.876141     2B3g    0.876141  
	   5Ag     0.901239     5B1u    1.466691     6Ag     1.503469  
	   1B1g    1.503469     3B3u    1.605173     3B2u    1.605173  
	   6B1u    1.958416     1Au     1.958416     7Ag     2.435003  
	   7B1u    2.477118     3B2g    2.509831     3B3g    2.509831  
	   4B3u    3.957190     4B2u    3.957190     8Ag     4.089676  
	   4B3g    4.242521     4B2g    4.242521     9Ag     5.016684  
	   2B1g    5.016684     5B2u    5.094908     5B3u    5.094908  
	   8B1u    5.223368    10Ag     5.370894     6B3u    5.371462  
	   6B2u    5.371462     5B2g    5.632241     5B3g    5.632241  
	   9B1u    6.191931     2Au     6.191931    10B1u    6.246561  
	  11Ag     6.609330     3B1g    6.609330    11B1u    6.817670  
	   3Au     6.817670     6B3g    6.849963     6B2g    6.849963  
	   7B2u    6.950504     7B3u    6.950504    12B1u    7.224127  
	  12Ag     7.564424     7B3g    7.705363     7B2g    7.705363  
	  13Ag     8.117465    13B1u   13.048375  

	Final Occupation by Irrep:
	         Ag   B1g   B2g   B3g    Au   B1u   B2u   B3u 
	DOCC [     3,    0,    0,    0,    0,    2,    1,    1 ]
	SOCC [     0,    0,    1,    1,    0,    0,    0,    0 ]

  Energy converged.

  @CUHF Final Energy:  -149.65390603497798

  ==> Properties <==
  Nuclear Dipole Moment: (a.u.)
     X:     0.0000      Y:     0.0000      Z:     0.0000

  Electronic Dipole Moment: (a.u.)
     X:     0.0000      Y:     0.0000      Z:     0.0000

  Dipole Moment: (a.u.)
     X:     0.0000      Y:     0.0000      Z:     0.0000     Total:     0.0000

  Dipole Moment: (Debye)
     X:     0.0000      Y:     0.0000      Z:     0.0000     Total:     0.0000

  Quadrupole Moment: (Debye Ang)
    XX:    -9.9026     YY:    -9.9026     ZZ:   -10.3550
    XY:     0.0000     XZ:     0.0000     YZ:     0.0000

  Traceless Quadrupole Moment: (Debye Ang)
    XX:     0.1508     YY:     0.1508     ZZ:    -0.3016
    XY:     0.0000     XZ:     0.0000     YZ:     0.0000

  Mulliken Charges: (a.u.)
   Center  Symbol    Alpha    Beta     Spin     Total
       1     O     4.50000  3.50000  1.00000  0.00000
       2     O     4.50000  3.50000  1.00000  0.00000

   Total alpha =  9.00000, Total beta =  7.00000, Total charge =  0.00000


  @Spin Contamination Metric:  0.00000
  @S^2 Expected:               2.00000
  @S^2 Observed:               2.00000

  Saving occupied orbitals to File 180.

*** tstop() called on QuickSilver.local at Mon Jan 23 14:38:46 2012
Module time:
	user time   =       0.53 seconds =       0.01 minutes
	system time =       0.03 seconds =       0.00 minutes
	total time  =          0 seconds =       0.00 minutes
Total time:
	user time   =      40.19 seconds =       0.67 minutes
	system time =       0.61 seconds =       0.01 minutes
	total time  =         41 seconds =       0.68 minutes

*** PSI4 exiting successfully. Buy a developer a beer!
