
    -----------------------------------------------------------------------
          Psi4: An Open-Source Ab Initio Electronic Structure Package
                               Psi4 1.4a2.dev73 

                         Git: Rev {xdmfinal} 50fc7c2 


    R. M. Parrish, L. A. Burns, D. G. A. Smith, A. C. Simmonett,
    A. E. DePrince III, E. G. Hohenstein, U. Bozkaya, A. Yu. Sokolov,
    R. Di Remigio, R. M. Richard, J. F. Gonthier, A. M. James,
    H. R. McAlexander, A. Kumar, M. Saitow, X. Wang, B. P. Pritchard,
    P. Verma, H. F. Schaefer III, K. Patkowski, R. A. King, E. F. Valeev,
    F. A. Evangelista, J. M. Turney, T. D. Crawford, and C. D. Sherrill,
    J. Chem. Theory Comput. 13(7) pp 3185--3197 (2017).
    (doi: 10.1021/acs.jctc.7b00174)


                         Additional Contributions by
    P. Kraus, H. Kruse, M. H. Lechner, M. C. Schieber, R. A. Shaw,
    A. Alenaizan, R. Galvelis, Z. L. Glick, S. Lehtola, and J. P. Misiewicz

    -----------------------------------------------------------------------


    Psi4 started on: Tuesday, 13 August 2019 09:10PM

    Process ID: 32587
    Host:       xenon
    PSIDATADIR: /home/alberto/src/psi4/share/psi4
    Memory:     500.0 MiB
    Threads:    1
    
  ==> Input File <==

--------------------------------------------------------------------------
#! B86bPBE-XDM/aug-cc-pVTZ gradient of acetylene dimer. This test checks that
#! the XDM energy gradients are calculated correctly.

refG = psi4.Matrix.from_list([                        #TEST
 [ 8.41360993e-03,  8.61968776e-03, -3.94430453e-31], #TEST
 [-8.34624913e-03, -8.65300463e-03,  0.00000000e+00], #TEST
 [ 4.37918404e-03,  4.74402468e-03,  0.00000000e+00], #TEST
 [-4.35096121e-03, -4.78770571e-03, -3.69778549e-32], #TEST
 [-8.41360993e-03, -8.61968776e-03, -7.88860905e-31], #TEST
 [ 8.34624913e-03,  8.65300463e-03,  0.00000000e+00], #TEST
 [-4.37918404e-03, -4.74402468e-03, -4.93038066e-32], #TEST
 [ 4.35096121e-03,  4.78770571e-03,  0.00000000e+00]  #TEST
           ])                                         #TEST

molecule nedimer {
  units angstrom
  C -0.412546  1.678175 -0.000000
  C  0.412546  2.561627 -0.000000
  H -1.132026  0.890809 -0.000000
  H  1.134651  3.345770 -0.000000
  C  0.412546 -1.678175 -0.000000
  C -0.412546 -2.561627 -0.000000
  H  1.132026 -0.890809 -0.000000
  H -1.134651 -3.345770 -0.000000
}

set {
 basis 6-31+G*
 scf_type df
 e_convergence 10
}

G = gradient('b86bpbe-xdm')

compare_matrices(refG,G,5,"Energy gradient") #TEST
--------------------------------------------------------------------------
gradient() will perform analytic gradient computation.

*** tstart() called on xenon
*** at Tue Aug 13 21:10:10 2019

   => Loading Basis Set <=

    Name: 6-31+G*
    Role: ORBITAL
    Keyword: BASIS
    atoms 1-2, 5-6 entry C          line   119 file /home/alberto/src/psi4/share/psi4/basis/6-31pgs.gbs 
    atoms 3-4, 7-8 entry H          line    46 file /home/alberto/src/psi4/share/psi4/basis/6-31pgs.gbs 


         ---------------------------------------------------------
                                   SCF
               by Justin Turney, Rob Parrish, Andy Simmonett
                          and Daniel G. A. Smith
                              RKS Reference
                        1 Threads,    500 MiB Core
         ---------------------------------------------------------

  ==> Geometry <==

    Molecular point group: c2h
    Full point group: C2h

    Geometry (in Angstrom), charge = 0, multiplicity = 1:

       Center              X                  Y                   Z               Mass       
    ------------   -----------------  -----------------  -----------------  -----------------
         C           -0.412546000000     1.678175000000     0.000000000000    12.000000000000
         C            0.412546000000     2.561627000000     0.000000000000    12.000000000000
         H           -1.132026000000     0.890809000000     0.000000000000     1.007825032230
         H            1.134651000000     3.345770000000     0.000000000000     1.007825032230
         C            0.412546000000    -1.678175000000     0.000000000000    12.000000000000
         C           -0.412546000000    -2.561627000000     0.000000000000    12.000000000000
         H            1.132026000000    -0.890809000000     0.000000000000     1.007825032230
         H           -1.134651000000    -3.345770000000     0.000000000000     1.007825032230

  Running in c2h symmetry.

  Rotational constants: A =      1.35125  B =      0.06740  C =      0.06420 [cm^-1]
  Rotational constants: A =  40509.33372  B =   2020.61336  C =   1924.61328 [MHz]
  Nuclear repulsion =   74.216431726696257

  Charge       = 0
  Multiplicity = 1
  Electrons    = 28
  Nalpha       = 14
  Nbeta        = 14

  ==> Algorithm <==

  SCF Algorithm Type is DF.
  DIIS enabled.
  MOM disabled.
  Fractional occupation disabled.
  Guess Type is SAD.
  Energy threshold   = 1.00e-10
  Density threshold  = 1.00e-08
  Integral threshold = 0.00e+00

  ==> Primary Basis <==

  Basis Set: 6-31+G*
    Blend: 6-31+G*
    Number of shells: 40
    Number of basis function: 84
    Number of Cartesian functions: 84
    Spherical Harmonics?: false
    Max angular momentum: 2

  ==> DFT Potential <==

   => Composite Functional: B86BPBE-XDM <= 

    B86bPBE Exchange-Correlation Functional plus XDM dispersion (GGA).

    A. D. Becke and E. R. Johnson, J. Chem. Phys. 127, 154108 (2007).
    A. Otero-de-la Roza, E. R. Johnson, J. Chem. Phys. 138, 204109 (2013).


    Deriv               =              1
    GGA                 =           TRUE
    Meta                =          FALSE

    Exchange Hybrid     =          FALSE
    MP2 Hybrid          =          FALSE

   => Exchange Functionals <=

    1.0000   XC_GGA_X_B86_MGC

   => Correlation Functionals <=

    1.0000     XC_GGA_C_PBE

   => XDM Dispersion Correction Parameters <=

    XDM a1              = 0.7839
    XDM a2 (ang)        = 1.2544
    XDM volume token    = 0.0

   => Molecular Quadrature <=

    Radial Scheme          =       TREUTLER
    Pruning Scheme         =           NONE
    Nuclear Scheme         =       TREUTLER

    BS radius alpha        =              1
    Pruning alpha          =              1
    Radial Points          =             75
    Spherical Points       =            302
    Total Points           =         175950
    Total Blocks           =           1380
    Max Points             =            256
    Max Functions          =             82
    Weights Tolerance      =       1.00E-15

   => Loading Basis Set <=

    Name: (6-31+G* AUX)
    Role: JKFIT
    Keyword: DF_BASIS_SCF
    atoms 1-2, 5-6 entry C          line   194 file /home/alberto/src/psi4/share/psi4/basis/heavy-aug-cc-pvdz-jkfit.gbs 
    atoms 3-4, 7-8 entry H          line   116 file /home/alberto/src/psi4/share/psi4/basis/heavy-aug-cc-pvdz-jkfit.gbs 

  ==> Pre-Iterations <==

   -------------------------------------------------------
    Irrep   Nso     Nmo     Nalpha   Nbeta   Ndocc  Nsocc
   -------------------------------------------------------
     Ag        32      32       0       0       0       0
     Bg        10      10       0       0       0       0
     Au        10      10       0       0       0       0
     Bu        32      32       0       0       0       0
   -------------------------------------------------------
    Total      84      84      14      14      14       0
   -------------------------------------------------------

  ==> Integral Setup <==

  DFHelper Memory: AOs need 0.029 GiB; user supplied 0.032 GiB. Using in-core AOs.

  ==> MemDFJK: Density-Fitted J/K Matrices <==

    J tasked:                   Yes
    K tasked:                    No
    wK tasked:                   No
    OpenMP threads:               1
    Memory [MiB]:                32
    Algorithm:                 Core
    Schwarz Cutoff:           1E-12
    Mask sparsity (%):       5.1871
    Fitting Condition:        1E-10

   => Auxiliary Basis Set <=

  Basis Set: (6-31+G* AUX)
    Blend: HEAVY-AUG-CC-PVDZ-JKFIT
    Number of shells: 148
    Number of basis function: 504
    Number of Cartesian functions: 504
    Spherical Harmonics?: false
    Max angular momentum: 3

  Cached 100.0% of DFT collocation blocks in 0.335 [GiB].

  Minimum eigenvalue in the overlap matrix is 7.1866747371E-05.
  Using Symmetric Orthogonalization.

  SCF Guess: Superposition of Atomic Densities via on-the-fly atomic UHF.

  ==> Iterations <==

                           Total Energy        Delta E     RMS |[F,P]|

   @DF-RKS iter SAD:  -153.51920166528191   -1.53519e+02   0.00000e+00 
   @DF-RKS iter   1:  -154.06764546168159   -5.48444e-01   2.00142e-02 DIIS
   @DF-RKS iter   2:  -153.47814946547163    5.89496e-01   2.80985e-02 DIIS
   @DF-RKS iter   3:  -154.60356083849175   -1.12541e+00   1.80240e-03 DIIS
   @DF-RKS iter   4:  -154.58761025847699    1.59506e-02   4.15762e-03 DIIS
   @DF-RKS iter   5:  -154.60829415359521   -2.06839e-02   9.78782e-05 DIIS
   @DF-RKS iter   6:  -154.60830643097580   -1.22774e-05   3.02816e-05 DIIS
   @DF-RKS iter   7:  -154.60830772937285   -1.29840e-06   2.59123e-06 DIIS
   @DF-RKS iter   8:  -154.60830773751925   -8.14640e-09   2.35941e-07 DIIS
   @DF-RKS iter   9:  -154.60830773759139   -7.21343e-11   6.23153e-08 DIIS
   @DF-RKS iter  10:  -154.60830773759722   -5.82645e-12   3.41631e-09 DIIS
  Energy and wave function converged.


  ==> Post-Iterations <==

    Orbital Energies [Eh]
    ---------------------

    Doubly Occupied:                                                      

       1Bu    -9.930692     1Ag    -9.930691     2Bu    -9.928619  
       2Ag    -9.928619     3Ag    -0.685470     3Bu    -0.683490  
       4Ag    -0.523567     4Bu    -0.518214     5Ag    -0.451349  
       5Bu    -0.447915     6Ag    -0.266495     1Au    -0.263006  
       1Bg    -0.260298     6Bu    -0.258557  

    Virtual:                                                              

       7Ag    -0.021390     2Au    -0.015070     2Bg    -0.007561  
       7Bu     0.000027     8Bu     0.006102     8Ag     0.009841  
       9Ag     0.021823     9Bu     0.036367     3Au     0.050706  
      10Bu     0.054713    10Ag     0.067092     3Bg     0.081282  
      11Ag     0.101815    11Bu     0.119165     4Bg     0.119957  
      12Bu     0.126188    12Ag     0.131803     4Au     0.134997  
      13Bu     0.157969    13Ag     0.158526    14Ag     0.182890  
      14Bu     0.195251    15Ag     0.239192    15Bu     0.269655  
      16Ag     0.494527    16Bu     0.496737    17Ag     0.609619  
       5Au     0.615579    17Bu     0.620518    18Ag     0.629806  
       5Bg     0.629958    19Ag     0.652941     6Au     0.688951  
       6Bg     0.696434    18Bu     0.700081    19Bu     0.757174  
      20Ag     0.835139    20Bu     0.859551    21Ag     0.868008  
      21Bu     0.945658    22Bu     1.057905    22Ag     1.058195  
      23Ag     1.197444    23Bu     1.230101    24Bu     1.394152  
       7Bg     1.417716     7Au     1.417952    24Ag     1.421421  
      25Bu     1.446509     8Au     1.467096     8Bg     1.468180  
      25Ag     1.469060    26Bu     1.478016    26Ag     1.502998  
       9Au     1.849012     9Bg     1.849211    27Ag     1.850786  
      27Bu     1.851879    28Ag     2.393699    10Au     2.397220  
      10Bg     2.398747    28Bu     2.404773    29Ag     2.442970  
      29Bu     2.474449    30Ag     3.131205    30Bu     3.141975  
      31Bu     4.143493    31Ag     4.144790    32Bu     4.266793  
      32Ag     4.286411  

    Final Occupation by Irrep:
             Ag    Bg    Au    Bu 
    DOCC [     6,    1,    1,    6 ]

  @DF-RKS Final Energy:  -154.61149795813387

   => Energetics <=

    Nuclear Repulsion Energy =             74.2164317266962570
    One-Electron Energy =                -353.0467214386137016
    Two-Electron Energy =                 147.1103537056314963
    DFT Exchange-Correlation Energy =     -22.8883717313112811
    Empirical Dispersion Energy =           0.0000000000000000
    VV10 Nonlocal Energy =                  0.0000000000000000
    XDM Dispersion Energy =                -0.0031902205366380
    Total Energy =                       -154.6114979581338673

Computation Completed


Properties will be evaluated at   0.000000,   0.000000,   0.000000 [a0]

Properties computed using the SCF density matrix

  Nuclear Dipole Moment: [e a0]
     X:    -0.0000      Y:     0.0000      Z:     0.0000

  Electronic Dipole Moment: [e a0]
     X:     0.0000      Y:     0.0000      Z:     0.0000

  Dipole Moment: [e a0]
     X:    -0.0000      Y:     0.0000      Z:     0.0000     Total:     0.0000

  Dipole Moment: [D]
     X:    -0.0000      Y:     0.0000      Z:     0.0000     Total:     0.0000


*** tstop() called on xenon at Tue Aug 13 21:10:15 2019
Module time:
	user time   =       3.86 seconds =       0.06 minutes
	system time =       0.16 seconds =       0.00 minutes
	total time  =          5 seconds =       0.08 minutes
Total time:
	user time   =       3.86 seconds =       0.06 minutes
	system time =       0.16 seconds =       0.00 minutes
	total time  =          5 seconds =       0.08 minutes

*** tstart() called on xenon
*** at Tue Aug 13 21:10:15 2019


         ------------------------------------------------------------
                                   SCF GRAD                          
                          Rob Parrish, Justin Turney,                
                       Andy Simmonett, and Alex Sokolov              
         ------------------------------------------------------------

  ==> Geometry <==

    Molecular point group: c2h
    Full point group: C2h

    Geometry (in Angstrom), charge = 0, multiplicity = 1:

       Center              X                  Y                   Z               Mass       
    ------------   -----------------  -----------------  -----------------  -----------------
         C           -0.412546000000     1.678175000000     0.000000000000    12.000000000000
         C            0.412546000000     2.561627000000     0.000000000000    12.000000000000
         H           -1.132026000000     0.890809000000     0.000000000000     1.007825032230
         H            1.134651000000     3.345770000000     0.000000000000     1.007825032230
         C            0.412546000000    -1.678175000000     0.000000000000    12.000000000000
         C           -0.412546000000    -2.561627000000     0.000000000000    12.000000000000
         H            1.132026000000    -0.890809000000     0.000000000000     1.007825032230
         H           -1.134651000000    -3.345770000000     0.000000000000     1.007825032230

  Nuclear repulsion =   74.216431726696257

  ==> Basis Set <==

  Basis Set: 6-31+G*
    Blend: 6-31+G*
    Number of shells: 40
    Number of basis function: 84
    Number of Cartesian functions: 84
    Spherical Harmonics?: false
    Max angular momentum: 2

  ==> DFJKGrad: Density-Fitted SCF Gradients <==

    Gradient:                    1
    J tasked:                  Yes
    K tasked:                   No
    wK tasked:                  No
    OpenMP threads:              1
    Integrals threads:           1
    Memory [MiB]:              375
    Schwarz Cutoff:          0E+00
    Fitting Condition:       1E-10

   => Auxiliary Basis Set <=

  Basis Set: (6-31+G* AUX)
    Blend: HEAVY-AUG-CC-PVDZ-JKFIT
    Number of shells: 148
    Number of basis function: 504
    Number of Cartesian functions: 504
    Spherical Harmonics?: false
    Max angular momentum: 3

  ==> DFT Potential <==

   => Composite Functional: B86BPBE-XDM <= 

    B86bPBE Exchange-Correlation Functional plus XDM dispersion (GGA).

    A. D. Becke and E. R. Johnson, J. Chem. Phys. 127, 154108 (2007).
    A. Otero-de-la Roza, E. R. Johnson, J. Chem. Phys. 138, 204109 (2013).


    Deriv               =              1
    GGA                 =           TRUE
    Meta                =          FALSE

    Exchange Hybrid     =          FALSE
    MP2 Hybrid          =          FALSE

   => Exchange Functionals <=

    1.0000   XC_GGA_X_B86_MGC

   => Correlation Functionals <=

    1.0000     XC_GGA_C_PBE

   => XDM Dispersion Correction Parameters <=

    XDM a1              = 0.7839
    XDM a2 (ang)        = 1.2544
    XDM volume token    = 0.0

   => Molecular Quadrature <=

    Radial Scheme          =       TREUTLER
    Pruning Scheme         =           NONE
    Nuclear Scheme         =       TREUTLER

    BS radius alpha        =              1
    Pruning alpha          =              1
    Radial Points          =             75
    Spherical Points       =            302
    Total Points           =         175950
    Total Blocks           =           1380
    Max Points             =            256
    Max Functions          =             82
    Weights Tolerance      =       1.00E-15


  -Total Gradient:
     Atom            X                  Y                   Z
    ------   -----------------  -----------------  -----------------
       1        0.008413609935     0.008619687762    -0.000000000000
       2       -0.008346249129    -0.008653004628     0.000000000000
       3        0.004379184041     0.004744024679     0.000000000000
       4       -0.004350961205    -0.004787705709    -0.000000000000
       5       -0.008413609935    -0.008619687762    -0.000000000000
       6        0.008346249129     0.008653004628     0.000000000000
       7       -0.004379184041    -0.004744024679    -0.000000000000
       8        0.004350961205     0.004787705709     0.000000000000


*** tstop() called on xenon at Tue Aug 13 21:10:16 2019
Module time:
	user time   =       1.30 seconds =       0.02 minutes
	system time =       0.01 seconds =       0.00 minutes
	total time  =          1 seconds =       0.02 minutes
Total time:
	user time   =       5.16 seconds =       0.09 minutes
	system time =       0.17 seconds =       0.00 minutes
	total time  =          6 seconds =       0.10 minutes
    Energy gradient...................................................PASSED

    Psi4 stopped on: Tuesday, 13 August 2019 09:10PM
    Psi4 wall time for execution: 0:00:06.51

*** Psi4 exiting successfully. Buy a developer a beer!
