
    -----------------------------------------------------------------------
          Psi4: An Open-Source Ab Initio Electronic Structure Package
                               Psi4 1.2a1.dev673 

                         Git: Rev {snsmp2build} 2c649ee dirty


    R. M. Parrish, L. A. Burns, D. G. A. Smith, A. C. Simmonett,
    A. E. DePrince III, E. G. Hohenstein, U. Bozkaya, A. Yu. Sokolov,
    R. Di Remigio, R. M. Richard, J. F. Gonthier, A. M. James,
    H. R. McAlexander, A. Kumar, M. Saitow, X. Wang, B. P. Pritchard,
    P. Verma, H. F. Schaefer III, K. Patkowski, R. A. King, E. F. Valeev,
    F. A. Evangelista, J. M. Turney, T. D. Crawford, and C. D. Sherrill,
    J. Chem. Theory Comput. 13(7) pp 3185--3197 (2017).
    (doi: 10.1021/acs.jctc.7b00174)

    -----------------------------------------------------------------------


    Psi4 started on: Thursday, 23 November 2017 03:50AM

    Process ID:  22217
    PSIDATADIR: /home/psilocaluser/gits/hrw-ecp/objdir16/stage/home/psilocaluser/gits/hrw-ecp/install-psi4/share/psi4
    Memory:     500.0 MiB
    Threads:    1
    
  ==> Input File <==

--------------------------------------------------------------------------
#! cc-pvdz N2 (6,6) active space Test DQG

# job description:
print('        N2 / cc-pVDZ / DQG(6,6), scf_type = CD / 1e-12, rNN = 0.5 A')

sys.path.insert(0, '../../..')
import v2rdm_casscf

molecule n2 {
0 1
n
n 1 r
}

molecule interloper {
0 1
O
H 1 1.0
H 1 1.0 2 90.0
}

set {
  basis cc-pvdz
  scf_type cd
  cholesky_tolerance 1e-12
  d_convergence      1e-10
  maxiter 500
  restricted_docc [ 2, 0, 0, 0, 0, 2, 0, 0 ]
  active          [ 1, 0, 1, 1, 0, 1, 1, 1 ]
}
set v2rdm_casscf {
  positivity dqg
  r_convergence  1e-5
  e_convergence  1e-6
  maxiter 20000
  #orbopt_frequency    1000
  #mu_update_frequency 1000
}

activate(n2)

n2.r     = 0.5
refscf   = -103.04337420425350 # TEST
refv2rdm = -103.086205379481   # TEST

energy('v2rdm-casscf', molecule=n2)

compare_values(refscf, get_variable("SCF TOTAL ENERGY"), 8, "SCF total energy") # TEST
compare_values(refv2rdm, get_variable("CURRENT ENERGY"), 5, "v2RDM-CASSCF total energy") # TEST

--------------------------------------------------------------------------
Molecule: geometry: Molecule is not complete, please use 'update_geometry'
                    once all variables are set.
Molecule: Setting geometry variable r to 0.500000

*** tstart() called on psinet
*** at Thu Nov 23 03:50:18 2017

   => Loading Basis Set <=

    Name: CC-PVDZ
    Role: ORBITAL
    Keyword: BASIS
    atoms 1-2 entry N          line   168 file /home/psilocaluser/gits/hrw-ecp/objdir16/stage/home/psilocaluser/gits/hrw-ecp/install-psi4/share/psi4/basis/cc-pvdz.gbs 


         ---------------------------------------------------------
                                   SCF
            by Justin Turney, Rob Parrish, Andy Simmonett
                             and Daniel Smith
                              RHF Reference
                        1 Threads,    500 MiB Core
         ---------------------------------------------------------

  ==> Geometry <==

    Molecular point group: d2h
    Full point group: D_inf_h

    Geometry (in Angstrom), charge = 0, multiplicity = 1:

       Center              X                  Y                   Z               Mass       
    ------------   -----------------  -----------------  -----------------  -----------------
           N          0.000000000000     0.000000000000    -0.250000000000    14.003074004780
           N          0.000000000000     0.000000000000     0.250000000000    14.003074004780

  Running in d2h symmetry.

  Rotational constants: A = ************  B =      9.63082  C =      9.63082 [cm^-1]
  Rotational constants: A = ************  B = 288724.60708  C = 288724.60708 [MHz]
  Nuclear repulsion =   51.859366441820001

  Charge       = 0
  Multiplicity = 1
  Electrons    = 14
  Nalpha       = 7
  Nbeta        = 7

  ==> Algorithm <==

  SCF Algorithm Type is CD.
  DIIS enabled.
  MOM disabled.
  Fractional occupation disabled.
  Guess Type is SAD.
  Energy threshold   = 1.00e-08
  Density threshold  = 1.00e-10
  Integral threshold = 0.00e+00

  ==> Primary Basis <==

  Basis Set: CC-PVDZ
    Blend: CC-PVDZ
    Number of shells: 12
    Number of basis function: 28
    Number of Cartesian functions: 30
    Spherical Harmonics?: true
    Max angular momentum: 2

  ==> Pre-Iterations <==

   -------------------------------------------------------
    Irrep   Nso     Nmo     Nalpha   Nbeta   Ndocc  Nsocc
   -------------------------------------------------------
     Ag         7       7       0       0       0       0
     B1g        1       1       0       0       0       0
     B2g        3       3       0       0       0       0
     B3g        3       3       0       0       0       0
     Au         1       1       0       0       0       0
     B1u        7       7       0       0       0       0
     B2u        3       3       0       0       0       0
     B3u        3       3       0       0       0       0
   -------------------------------------------------------
    Total      28      28       7       7       7       0
   -------------------------------------------------------

  ==> Integral Setup <==

  ==> CDJK: Cholesky-decomposed J/K Matrices <==

    J tasked:                     Yes
    K tasked:                     Yes
    wK tasked:                     No
    OpenMP threads:                 1
    Integrals threads:              1
    Memory (MB):                  375
    Algorithm:                   Core
    Integral Cache:              SAVE
    Schwarz Cutoff:             1E-12
    Cholesky tolerance:      1.00E-12
    No. Cholesky vectors:         342

  Minimum eigenvalue in the overlap matrix is 1.5735752976E-04.
  Using Symmetric Orthogonalization.

  SCF Guess: Superposition of Atomic Densities via on-the-fly atomic UHF.

  ==> Iterations <==

                        Total Energy        Delta E     RMS |[F,P]|

   @RHF iter   0:  -108.42829743112401   -1.08428e+02   6.40257e-01 
   @RHF iter   1:  -102.97581795763158    5.45248e+00   3.62974e-02 
   @RHF iter   2:  -103.03941457495436   -6.35966e-02   8.07286e-03 DIIS
   @RHF iter   3:  -103.04308108147875   -3.66651e-03   1.70203e-03 DIIS
   @RHF iter   4:  -103.04337121938985   -2.90138e-04   1.63419e-04 DIIS
   @RHF iter   5:  -103.04337415445153   -2.93506e-06   2.21411e-05 DIIS
   @RHF iter   6:  -103.04337420396291   -4.95114e-08   1.69924e-06 DIIS
   @RHF iter   7:  -103.04337420425007   -2.87159e-10   1.90576e-07 DIIS
   @RHF iter   8:  -103.04337420425342   -3.35376e-12   9.17552e-09 DIIS
   @RHF iter   9:  -103.04337420425341    1.42109e-14   6.30792e-10 DIIS
   @RHF iter  10:  -103.04337420425340    1.42109e-14   6.35366e-11 DIIS

  ==> Post-Iterations <==

    Orbital Energies (a.u.)
    -----------------------

    Doubly Occupied:                                                      

       1Ag   -16.484161     1B1u  -15.785893     2Ag    -1.444309  
       1B2u   -1.176599     1B3u   -1.176599     2B1u   -0.543616  
       3Ag    -0.524272  

    Virtual:                                                              

       1B3g    0.538181     1B2g    0.538181     2B2u    0.594641  
       2B3u    0.594641     3B1u    0.614128     4Ag     0.726476  
       5Ag     1.055370     2B3g    1.450590     2B2g    1.450590  
       1B1g    1.682008     6Ag     1.682008     4B1u    1.789550  
       3B2u    2.801107     3B3u    2.801107     5B1u    2.816412  
       6B1u    2.841104     1Au     2.841104     7Ag     3.148621  
       3B3g    4.716074     3B2g    4.716074     7B1u   13.525785  

    Final Occupation by Irrep:
             Ag   B1g   B2g   B3g    Au   B1u   B2u   B3u 
    DOCC [     3,    0,    0,    0,    0,    2,    1,    1 ]

  Energy converged.

  @RHF Final Energy:  -103.04337420425340

   => Energetics <=

    Nuclear Repulsion Energy =             51.8593664418200007
    One-Electron Energy =                -235.5345802017087067
    Two-Electron Energy =                  80.6318395556353238
    Total Energy =                       -103.0433742042533964



Properties will be evaluated at   0.000000,   0.000000,   0.000000 Bohr

Properties computed using the SCF density matrix

  Nuclear Dipole Moment: (a.u.)
     X:     0.0000      Y:     0.0000      Z:     0.0000

  Electronic Dipole Moment: (a.u.)
     X:     0.0000      Y:     0.0000      Z:     0.0000

  Dipole Moment: (a.u.)
     X:     0.0000      Y:     0.0000      Z:     0.0000     Total:     0.0000

  Dipole Moment: (Debye)
     X:     0.0000      Y:     0.0000      Z:     0.0000     Total:     0.0000


*** tstop() called on psinet at Thu Nov 23 03:50:19 2017
Module time:
	user time   =       0.73 seconds =       0.01 minutes
	system time =       0.03 seconds =       0.00 minutes
	total time  =          1 seconds =       0.02 minutes
Total time:
	user time   =       0.73 seconds =       0.01 minutes
	system time =       0.03 seconds =       0.00 minutes
	total time  =          1 seconds =       0.02 minutes

Reading options from the V2RDM_CASSCF block
Calling plugin v2rdm_casscf.so.



*** tstart() called on psinet
*** at Thu Nov 23 03:50:19 2017



        ****************************************************
        *                                                  *
        *    v2RDM-CASSCF (PRIVATE)                        *
        *                                                  *
        *    A variational 2-RDM-driven approach to the    *
        *    active space self-consistent field method     *
        *                                                  *
        ****************************************************


        The following papers should be cited when using v2RDM-CASSCF:

        J. Fosso-Tande, D. R. Nascimento, and A. E. DePrince III,
        Mol. Phys. 114, 423-430 (2015).

            URL: http://dx.doi.org/10.1080/00268976.2015.1078008

        J. Fosso-Tande, T.-S. Nguyen, G. Gidofalvi, and
        A. E. DePrince III, J. Chem. Theory Comput. accepted (2016).

            URL: http://dx.doi.org/10.1021/acs.jctc.6b00190



  ==> Convergence parameters <==

        r_convergence:                      1.000e-05
        e_convergence:                      1.000e-06
        cg_convergence:                     1.000e-09
        maxiter:                                20000
        cg_maxiter:                             10000

  ==> Active space details <==

        Number of frozen core orbitals:             0
        Number of restricted occupied orbitals:     4
        Number of active occupied orbitals:         3
        Number of active virtual orbitals:          3
        Number of restricted virtual orbitals:     18
        Number of frozen virtual orbitals:          0

        Irrep:             Ag, B1g, B2g, B3g,  Au, B1u, B2u, B3u 
 
        frozen_docc     [   0,   0,   0,   0,   0,   0,   0,   0 ]
        restricted_docc [   2,   0,   0,   0,   0,   2,   0,   0 ]
        active          [   1,   0,   1,   1,   0,   1,   1,   1 ]
        restricted_uocc [   4,   1,   2,   2,   1,   4,   2,   2 ]
        frozen_uocc     [   0,   0,   0,   0,   0,   0,   0,   0 ]

  ==> Orbital optimization parameters <==

        1-step algorithm:                    true
        g_convergence:                  1.000e-06
        e_convergence:                  1.000e-08
        maximum iterations:                    20
        frequency:                            500
        active-active rotations:            false
        exact diagonal Hessian:             false
        number of DIIS vectors:                 0
        print iteration info:               false

  ==> Memory requirements <==

        D2:                          0.00 mb
        Q2:                          0.00 mb
        G2:                          0.01 mb

        Total number of variables:           1668
        Total number of constraints:         1555
        Total memory requirements:        1.17 mb

    ==> Transform three-electron integrals <==


        Time for integral transformation:     0.03 s

    Molecular point group: d2h
    Full point group: D_inf_h

    Geometry (in Angstrom), charge = 0, multiplicity = 1:

       Center              X                  Y                   Z               Mass       
    ------------   -----------------  -----------------  -----------------  -----------------
           N          0.000000000000     0.000000000000    -0.250000000000    14.003074004780
           N          0.000000000000     0.000000000000     0.250000000000    14.003074004780

  -AO BASIS SET INFORMATION:
    Name                   = CC-PVDZ
    Blend                  = CC-PVDZ
    Total number of shells = 12
    Number of primitives   = 44
    Number of AO           = 30
    Number of SO           = 28
    Maximum AM             = 2
    Spherical Harmonics    = TRUE

  -Contraction Scheme:
    Atom   Type   All Primitives // Shells:
   ------ ------ --------------------------
       1     N     17s 4p 1d // 3s 2p 1d 
       2     N     17s 4p 1d // 3s 2p 1d 

  ==> AO Basis Functions <==

    [ CC-PVDZ ]
    spherical
    ****
    N   1
    S   8 1.00
                      9046.00000000           0.00070000
                      1357.00000000           0.00538900
                       309.30000000           0.02740600
                        87.73000000           0.10320700
                        28.56000000           0.27872300
                        10.21000000           0.44854000
                         3.83800000           0.27823800
                         0.74660000           0.01544000
    S   8 1.00
                      9046.00000000          -0.00015300
                      1357.00000000          -0.00120800
                       309.30000000          -0.00599200
                        87.73000000          -0.02454400
                        28.56000000          -0.06745900
                        10.21000000          -0.15807800
                         3.83800000          -0.12183100
                         0.74660000           0.54900300
    S   1 1.00
                         0.22480000           1.00000000
    P   3 1.00
                        13.55000000           0.03991900
                         2.91700000           0.21716900
                         0.79730000           0.51031900
    P   1 1.00
                         0.21850000           1.00000000
    D   1 1.00
                         0.81700000           1.00000000
    ****


    reference energy:        -103.043374204253
    frozen core energy:      -138.046901361581
    initial 2-RDM energy:     -75.246587849650

      oiter iiter        E(p)        E(d)      E gap)      mu     eps(p)     eps(d)
          0    37 -102.615771  173.801159  276.416930   1.000   89.66317   66.92747
          1    21  -91.498495 -309.998147  218.499652   1.000   18.04460   40.46646
          2    21 -101.401999 -186.264899   84.862900   1.000    6.81511   12.93090
          3    21 -103.136964 -143.644841   40.507877   1.000    9.31932    4.55937
          4    21 -102.077829 -121.998592   19.920763   1.000    7.84486    2.49494
          5    25 -100.800486 -109.774024    8.973538   1.000    5.53156    1.83528
          6    26 -100.387011 -103.677731    3.290720   1.000    4.15401    1.59505
          7    24 -100.218772 -100.814071    0.595299   1.000    3.10457    1.24873
          8    24 -100.312640  -99.169157    1.143483   1.000    2.26935    1.10668
          9    24 -100.511803  -98.854734    1.657069   1.000    1.54176    0.88186
         10    24 -100.806967  -98.615594    2.191374   1.000    0.96367    0.81350
         11    20 -101.041249  -98.902056    2.139193   1.000    0.50900    0.69601
         12    24 -101.214575  -99.756224    1.458352   1.000    0.40120    0.49133
         13    21 -101.338208 -100.372880    0.965327   1.000    0.24278    0.44928
         14    17 -101.442200 -100.489508    0.952692   1.000    0.14296    0.43507
         15    21 -101.557668 -100.399671    1.157998   1.000    0.14772    0.40888
         16    21 -101.689353 -100.296840    1.392514   1.000    0.15269    0.38607
         17    20 -101.812393 -100.291765    1.520627   1.000    0.16029    0.36480
         18    21 -101.933437 -100.370262    1.563174   1.000    0.18465    0.34664
         19    21 -102.043388 -100.509171    1.534217   1.000    0.19981    0.33135
         20    21 -102.138789 -100.658976    1.479813   1.000    0.19619    0.32154
         21    21 -102.225641 -100.783991    1.441650   1.000    0.17962    0.31500
         22    20 -102.308777 -100.861311    1.447466   1.000    0.16172    0.30810
         23    24 -102.383636 -100.926758    1.456879   1.000    0.14202    0.29945
         24    19 -102.458454 -100.965235    1.493219   1.000    0.11850    0.29355
         25    19 -102.525900 -101.009056    1.516844   1.000    0.10818    0.28162
         26    19 -102.564742 -101.128192    1.436550   1.000    0.16781    0.25199
         27    19 -102.598860 -101.435160    1.163700   1.000    0.23396    0.20565
         28    19 -102.626882 -101.856290    0.770593   1.000    0.25454    0.16681
         29    19 -102.642019 -102.275657    0.366362   1.000    0.23286    0.15411
         30    19 -102.649504 -102.585156    0.064348   1.000    0.17989    0.15945
         31    17 -102.650686 -102.737531    0.086845   1.000    0.11803    0.16505
         32    17 -102.653274 -102.741057    0.087784   1.000    0.07430    0.16260
         33    21 -102.658968 -102.633853    0.025115   1.000    0.07392    0.15411
         34    24 -102.670440 -102.462222    0.208219   1.000    0.08991    0.14515
         35    21 -102.685364 -102.277363    0.408001   1.000    0.09358    0.13978
         36    19 -102.706508 -102.119971    0.586536   1.000    0.08493    0.13772
         37    15 -102.730064 -102.012116    0.717948   1.000    0.06914    0.13695
         38    19 -102.753910 -101.958930    0.794980   1.000    0.05395    0.13611
         39    19 -102.777495 -101.953430    0.824064   1.000    0.04461    0.13482
         40    19 -102.798935 -101.986093    0.812841   1.000    0.04086    0.13360
         41    20 -102.818020 -102.041121    0.776899   1.000    0.03820    0.13294
         42    21 -102.834369 -102.102427    0.731942   1.000    0.03405    0.13277
         43    19 -102.848784 -102.157932    0.690852   1.000    0.02904    0.13269
         44    17 -102.861305 -102.199194    0.662112   1.000    0.03235    0.13071
         45    19 -102.871938 -102.249665    0.622273   1.000    0.06938    0.12397
         46    23 -102.883796 -102.361328    0.522468   1.000    0.07797    0.11668
         47    23 -102.892029 -102.433118    0.458910   1.000    0.06301    0.11529
         48    19 -102.898512 -102.437697    0.460815   1.000    0.04574    0.11527
         49    19 -102.909243 -102.390397    0.518845   1.000    0.03782    0.11521
         50    19 -102.922872 -102.329714    0.593158   1.000    0.03273    0.11547
         51    19 -102.939563 -102.284406    0.655157   1.000    0.02438    0.11578
         52    19 -102.956997 -102.266706    0.690291   1.000    0.01605    0.11556
         53    19 -102.973699 -102.273459    0.700240   1.000    0.01477    0.11480
         54    19 -102.989080 -102.294872    0.694209   1.000    0.01830    0.11396
         55    19 -103.002680 -102.318224    0.684456   1.000    0.02035    0.11346
         56    19 -103.014828 -102.334716    0.680112   1.000    0.01986    0.11335
         57    19 -103.022687 -102.340535    0.682153   1.000    0.02343    0.11088
         58    19 -103.033513 -102.365078    0.668435   1.000    0.04776    0.10550
         59    23 -103.047403 -102.446930    0.600473   1.000    0.06346    0.10025
         60    19 -103.054596 -102.535981    0.518615   1.000    0.06107    0.09476
         61    19 -103.059598 -102.616679    0.442919   1.000    0.07926    0.07357
         62    19 -103.072461 -102.787770    0.284691   1.000    0.11231    0.03797
         63    23 -103.082725 -103.037939    0.044786   1.000    0.10723    0.02100
         64    23 -103.078253 -103.236843    0.158590   1.000    0.07811    0.03385
         65    20 -103.065779 -103.339251    0.273472   1.000    0.04243    0.03522
         66    19 -103.052184 -103.345470    0.293286   1.000    0.02149    0.02887
         67    19 -103.040773 -103.278230    0.237457   1.000    0.03359    0.02116
         68    19 -103.033683 -103.172121    0.138438   1.000    0.04516    0.01393
         69    20 -103.031820 -103.062459    0.030639   1.000    0.04589    0.00861
         70    23 -103.034749 -102.976638    0.058111   1.000    0.03720    0.00882
         71    19 -103.040645 -102.929627    0.111018   1.000    0.02374    0.01147
         72    19 -103.047231 -102.924397    0.122834   1.000    0.01375    0.01179
         73    19 -103.052300 -102.950482    0.101819   1.000    0.01545    0.00973
         74    19 -103.055424 -102.993484    0.061940   1.000    0.02016    0.00616
         75    23 -103.056167 -103.039334    0.016833   1.000    0.02115    0.00291
         76    26 -103.054938 -103.076539    0.021602   1.000    0.01840    0.00337
         77    26 -103.052487 -103.098259    0.045772   1.000    0.01416    0.00499
         78    21 -103.049675 -103.102899    0.053224   1.000    0.01164    0.00541
         79    19 -103.047408 -103.093474    0.046066   1.000    0.01223    0.00463
         80    19 -103.046099 -103.075784    0.029685   1.000    0.01362    0.00331
         81    21 -103.045863 -103.056447    0.010584   1.000    0.01404    0.00221
         82    21 -103.046348 -103.040181    0.006166   1.000    0.01322    0.00221
         83    21 -103.047315 -103.029997    0.017318   1.000    0.01185    0.00270
         84    21 -103.048431 -103.026846    0.021586   1.000    0.01079    0.00287
         85    23 -103.049443 -103.029848    0.019595   1.000    0.01043    0.00264
         86    24 -103.050081 -103.036744    0.013337   1.000    0.01046    0.00222
         87    26 -103.050312 -103.044947    0.005365   1.000    0.01044    0.00189
         88    26 -103.050170 -103.052236    0.002066   1.000    0.01022    0.00182
         89    26 -103.049780 -103.057040    0.007260   1.000    0.00994    0.00190
         90    26 -103.049305 -103.058797    0.009492   1.000    0.00974    0.00193
         91    24 -103.048873 -103.057847    0.008973   1.000    0.00969    0.00186
         92    23 -103.048585 -103.055022    0.006437   1.000    0.00968    0.00173
         93    21 -103.048462 -103.051454    0.002992   1.000    0.00963    0.00161
         94    23 -103.048534 -103.048211    0.000323   1.000    0.00949    0.00156
         95    24 -103.048694 -103.045932    0.002761   1.000    0.00931    0.00155
         96    23 -103.048899 -103.044948    0.003952   1.000    0.00911    0.00156
         97    25 -103.049133 -103.045358    0.003775   1.000    0.00897    0.00151
         98    26 -103.049279 -103.046659    0.002621   1.000    0.00886    0.00143
         99    26 -103.048973 -103.048163    0.000810   1.000    0.00871    0.00145
        100    26 -103.048836 -103.049732    0.000897   1.000    0.00866    0.00137
        101    27 -103.048705 -103.050840    0.002135   1.000    0.00858    0.00132
        102    25 -103.048583 -103.051207    0.002624   1.000    0.00849    0.00129
        103    25 -103.048492 -103.050869    0.002377   1.000    0.00839    0.00125
        104    26 -103.048445 -103.050120    0.001675   1.000    0.00830    0.00127
        105    25 -103.048467 -103.049467    0.001000   1.000    0.00823    0.00119
        106    26 -103.048478 -103.048867    0.000389   1.000    0.00812    0.00122
        107    26 -103.048433 -103.049060    0.000627   1.000    0.00798    0.00144
        108    27 -103.048165 -103.050883    0.002717   1.000    0.00795    0.00120
        109    27 -103.048440 -103.051472    0.003032   1.000    0.00752    0.00111
        110    27 -103.049437 -103.051407    0.001970   1.000    0.00685    0.00111
        111    27 -103.049399 -103.051081    0.001682   1.000    0.00681    0.00100
        112    27 -103.049342 -103.049980    0.000637   1.000    0.00677    0.00095
        113    27 -103.049330 -103.048818    0.000512   1.000    0.00669    0.00092
        114    27 -103.050642 -103.047871    0.002771   1.000    0.00563    0.00101
        115    27 -103.050649 -103.047924    0.002725   1.000    0.00555    0.00089
        116    27 -103.050652 -103.047826    0.002826   1.000    0.00548    0.00091
        117    27 -103.050648 -103.048119    0.002529   1.000    0.00538    0.00091
        118    27 -103.050682 -103.048857    0.001825   1.000    0.00529    0.00088
        119    27 -103.050688 -103.049647    0.001041   1.000    0.00524    0.00081
        120    27 -103.050657 -103.050023    0.000634   1.000    0.00520    0.00077
        121    27 -103.050614 -103.049888    0.000726   1.000    0.00518    0.00075
        122    27 -103.050577 -103.049399    0.001178   1.000    0.00516    0.00073
        123    27 -103.050554 -103.048794    0.001760   1.000    0.00513    0.00071
        124    27 -103.050544 -103.048265    0.002279   1.000    0.00509    0.00070
        125    27 -103.050540 -103.047912    0.002628   1.000    0.00506    0.00069
        126    27 -103.050538 -103.047753    0.002785   1.000    0.00502    0.00068
        127    27 -103.050532 -103.047758    0.002775   1.000    0.00499    0.00066
        128    27 -103.050524 -103.047878    0.002646   1.000    0.00496    0.00065
        129    27 -103.050514 -103.048064    0.002451   1.000    0.00493    0.00064
        130    27 -103.050502 -103.048268    0.002233   1.000    0.00490    0.00063
        131    27 -103.050489 -103.048454    0.002035   1.000    0.00487    0.00062
        132    27 -103.050474 -103.048592    0.001882   1.000    0.00483    0.00065
        133    27 -103.050449 -103.048990    0.001459   1.000    0.00479    0.00067
        134    27 -103.050424 -103.049435    0.000989   1.000    0.00476    0.00061
        135    27 -103.050413 -103.049445    0.000968   1.000    0.00474    0.00060
        136    27 -103.050400 -103.049262    0.001138   1.000    0.00473    0.00058
        137    27 -103.050382 -103.048950    0.001432   1.000    0.00470    0.00057
        138    27 -103.050353 -103.048691    0.001662   1.000    0.00467    0.00062
        139    27 -103.050304 -103.048699    0.001605   1.000    0.00465    0.00055
        140    27 -103.050290 -103.048388    0.001902   1.000    0.00463    0.00054
        141    27 -103.050281 -103.048131    0.002150   1.000    0.00460    0.00054
        142    27 -103.050260 -103.048113    0.002147   1.000    0.00456    0.00058
        143    27 -103.050226 -103.048354    0.001872   1.000    0.00454    0.00052
        144    27 -103.050220 -103.048329    0.001891   1.000    0.00452    0.00051
        145    27 -103.050213 -103.048323    0.001890   1.000    0.00450    0.00050
        146    27 -103.050204 -103.048313    0.001890   1.000    0.00448    0.00049
        147    27 -103.050194 -103.048294    0.001900   1.000    0.00446    0.00049
        148    27 -103.050184 -103.048266    0.001919   1.000    0.00444    0.00048
        149    27 -103.050174 -103.048228    0.001946   1.000    0.00438    0.00054
        150    27 -103.050159 -103.048414    0.001745   1.000    0.00433    0.00053
        151    27 -103.050150 -103.048696    0.001454   1.000    0.00429    0.00050
        152    27 -103.050140 -103.048909    0.001231   1.000    0.00426    0.00048
        153    27 -103.050122 -103.048982    0.001140   1.000    0.00425    0.00046
        154    27 -103.050100 -103.048888    0.001212   1.000    0.00424    0.00045
        155    27 -103.050080 -103.048651    0.001429   1.000    0.00424    0.00044
        156    27 -103.050064 -103.048332    0.001732   1.000    0.00424    0.00044
        157    27 -103.050054 -103.048004    0.002050   1.000    0.00423    0.00043
        158    27 -103.050049 -103.047735    0.002314   1.000    0.00420    0.00043
        159    27 -103.050317 -103.047598    0.002719   1.000    0.00399    0.00045
        160    27 -103.050541 -103.047767    0.002775   1.000    0.00392    0.00043
        161    27 -103.050519 -103.047982    0.002537   1.000    0.00391    0.00041
        162    27 -103.050510 -103.048071    0.002439   1.000    0.00389    0.00041
        163    27 -103.050500 -103.048164    0.002336   1.000    0.00388    0.00040
        164    27 -103.050490 -103.048238    0.002252   1.000    0.00386    0.00040
        165    27 -103.050480 -103.048280    0.002199   1.000    0.00385    0.00040
        166    27 -103.050469 -103.048288    0.002181   1.000    0.00384    0.00039
        167    27 -103.050458 -103.048261    0.002197   1.000    0.00382    0.00039
        168    27 -103.050447 -103.048205    0.002242   1.000    0.00381    0.00038
        169    27 -103.050436 -103.048130    0.002306   1.000    0.00380    0.00038
        170    27 -103.050426 -103.048049    0.002377   1.000    0.00379    0.00038
        171    27 -103.050416 -103.047981    0.002435   1.000    0.00377    0.00041
        172    27 -103.050413 -103.048020    0.002393   1.000    0.00375    0.00038
        173    27 -103.050405 -103.048034    0.002371   1.000    0.00374    0.00037
        174    27 -103.050395 -103.048036    0.002359   1.000    0.00373    0.00036
        175    27 -103.050385 -103.048024    0.002362   1.000    0.00372    0.00040
        176    27 -103.050390 -103.048106    0.002284   1.000    0.00373    0.00039
        177    27 -103.050396 -103.048212    0.002185   1.000    0.00374    0.00037
        178    27 -103.050394 -103.048276    0.002118   1.000    0.00374    0.00037
        179    27 -103.050391 -103.048336    0.002055   1.000    0.00374    0.00035
        180    27 -103.050378 -103.048314    0.002064   1.000    0.00373    0.00034
        181    27 -103.050363 -103.048215    0.002148   1.000    0.00372    0.00039
        182    27 -103.050358 -103.048178    0.002180   1.000    0.00371    0.00035
        183    27 -103.050352 -103.048132    0.002220   1.000    0.00370    0.00033
        184    27 -103.050344 -103.048068    0.002276   1.000    0.00370    0.00039
        185    27 -103.050353 -103.048115    0.002238   1.000    0.00371    0.00036
        186    27 -103.050363 -103.048185    0.002178   1.000    0.00371    0.00047
        187    24 -103.050389 -103.048463    0.001926   1.000    0.00372    0.00036
        188    27 -103.050393 -103.048669    0.001724   1.000    0.00373    0.00035
        189    27 -103.050380 -103.048754    0.001626   1.000    0.00370    0.00044
        190    27 -103.050326 -103.048889    0.001436   1.000    0.00359    0.00039
        191    27 -103.050249 -103.048939    0.001310   1.000    0.00345    0.00039
        192    27 -103.050233 -103.048922    0.001311   1.000    0.00345    0.00041
        193    27 -103.050225 -103.048885    0.001340   1.000    0.00344    0.00041
        194    27 -103.050141 -103.048832    0.001310   1.000    0.00330    0.00042
        195    27 -103.050128 -103.048775    0.001353   1.000    0.00331    0.00031
        196    27 -103.050067 -103.048589    0.001477   1.000    0.00327    0.00037
        197    27 -103.050029 -103.048564    0.001466   1.000    0.00326    0.00044
        198    27 -103.050009 -103.048682    0.001328   1.000    0.00328    0.00040
        199    27 -103.049929 -103.048769    0.001160   1.000    0.00328    0.00043
        200    27 -103.049902 -103.049046    0.000855   1.000    0.00329    0.00045
        201    27 -103.049874 -103.049269    0.000605   1.000    0.00331    0.00041
        202    27 -103.049849 -103.049303    0.000546   1.000    0.00334    0.00034
        203    27 -103.049830 -103.049132    0.000698   1.000    0.00336    0.00029
        204    27 -103.049816 -103.048798    0.001018   1.000    0.00337    0.00026
        205    27 -103.049808 -103.048370    0.001438   1.000    0.00337    0.00035
        206    27 -103.049820 -103.048035    0.001786   1.000    0.00337    0.00027
        207    27 -103.049826 -103.047711    0.002115   1.000    0.00337    0.00024
        208    27 -103.049829 -103.047430    0.002399   1.000    0.00336    0.00023
        209    27 -103.049831 -103.047223    0.002608   1.000    0.00334    0.00023
        210    27 -103.049829 -103.047096    0.002733   1.000    0.00331    0.00023
        211    27 -103.049824 -103.047050    0.002774   1.000    0.00327    0.00023
        212    27 -103.049815 -103.047076    0.002740   1.000    0.00324    0.00023
        213    27 -103.049806 -103.047162    0.002644   1.000    0.00320    0.00023
        214    27 -103.049798 -103.047294    0.002504   1.000    0.00315    0.00033
        215    27 -103.049798 -103.047671    0.002126   1.000    0.00313    0.00027
        216    27 -103.049799 -103.048029    0.001770   1.000    0.00314    0.00024
        217    27 -103.049798 -103.048263    0.001535   1.000    0.00317    0.00023
        218    27 -103.049796 -103.048373    0.001423   1.000    0.00319    0.00022
        219    27 -103.049790 -103.048393    0.001397   1.000    0.00321    0.00022
        220    27 -103.049783 -103.048363    0.001420   1.000    0.00323    0.00022
        221    27 -103.049773 -103.048309    0.001464   1.000    0.00324    0.00022
        222    27 -103.049762 -103.048238    0.001524   1.000    0.00324    0.00021
        223    27 -103.049750 -103.048148    0.001603   1.000    0.00325    0.00021
        224    27 -103.049740 -103.048032    0.001708   1.000    0.00325    0.00020
        225    27 -103.049731 -103.047892    0.001839   1.000    0.00325    0.00020
        226    27 -103.049724 -103.047737    0.001987   1.000    0.00324    0.00019
        227    27 -103.049720 -103.047582    0.002138   1.000    0.00323    0.00019
        228    27 -103.049718 -103.047446    0.002273   1.000    0.00322    0.00019
        229    27 -103.049717 -103.047344    0.002373   1.000    0.00320    0.00019
        230    27 -103.049716 -103.047286    0.002430   1.000    0.00319    0.00019
        231    27 -103.049715 -103.047277    0.002438   1.000    0.00317    0.00019
        232    27 -103.049712 -103.047311    0.002402   1.000    0.00315    0.00019
        233    27 -103.049709 -103.047379    0.002330   1.000    0.00313    0.00019
        234    27 -103.049652 -103.047470    0.002182   1.000    0.00299    0.00023
        235    27 -103.049568 -103.047626    0.001942   1.000    0.00278    0.00026
        236    27 -103.049493 -103.047849    0.001644   1.000    0.00263    0.00025
        237    27 -103.049431 -103.048092    0.001339   1.000    0.00254    0.00026
        238    27 -103.049412 -103.048308    0.001104   1.000    0.00252    0.00022
        239    27 -103.049400 -103.048426    0.000974   1.000    0.00253    0.00021
        240    27 -103.049393 -103.048440    0.000954   1.000    0.00254    0.00020
        241    27 -103.049388 -103.048363    0.001025   1.000    0.00256    0.00019
        242    27 -103.049383 -103.048226    0.001157   1.000    0.00258    0.00019
        243    27 -103.049376 -103.048060    0.001316   1.000    0.00259    0.00018
        244    27 -103.049340 -103.047891    0.001448   1.000    0.00257    0.00020
        245    27 -103.049307 -103.047843    0.001464   1.000    0.00256    0.00029
        246    27 -103.049290 -103.047955    0.001335   1.000    0.00256    0.00029
        247    27 -103.049277 -103.048036    0.001241   1.000    0.00258    0.00024
        248    27 -103.049269 -103.048033    0.001237   1.000    0.00260    0.00019
        249    27 -103.049267 -103.047947    0.001320   1.000    0.00261    0.00018
        250    27 -103.049265 -103.047809    0.001456   1.000    0.00260    0.00017
        251    27 -103.049263 -103.047659    0.001604   1.000    0.00259    0.00017
        252    27 -103.049260 -103.047529    0.001731   1.000    0.00257    0.00017
        253    27 -103.049256 -103.047436    0.001820   1.000    0.00255    0.00016
        254    27 -103.049252 -103.047382    0.001870   1.000    0.00254    0.00016
        255    27 -103.049249 -103.047360    0.001889   1.000    0.00253    0.00016
        256    27 -103.049246 -103.047357    0.001889   1.000    0.00253    0.00016
        257    27 -103.049243 -103.047364    0.001879   1.000    0.00252    0.00016
        258    27 -103.049241 -103.047379    0.001863   1.000    0.00252    0.00016
        259    27 -103.049240 -103.047400    0.001840   1.000    0.00251    0.00016
        260    27 -103.049238 -103.047431    0.001807   1.000    0.00250    0.00015
        261    27 -103.049235 -103.047472    0.001763   1.000    0.00249    0.00015
        262    27 -103.049232 -103.047523    0.001709   1.000    0.00248    0.00015
        263    27 -103.049229 -103.047580    0.001649   1.000    0.00248    0.00015
        264    27 -103.049225 -103.047636    0.001588   1.000    0.00248    0.00015
        265    27 -103.049220 -103.047684    0.001535   1.000    0.00247    0.00015
        266    27 -103.049214 -103.047719    0.001495   1.000    0.00247    0.00015
        267    27 -103.049208 -103.047736    0.001472   1.000    0.00247    0.00015
        268    27 -103.049202 -103.047734    0.001468   1.000    0.00247    0.00015
        269    27 -103.049196 -103.047715    0.001480   1.000    0.00247    0.00015
        270    27 -103.049190 -103.047683    0.001507   1.000    0.00247    0.00015
        271    27 -103.049185 -103.047642    0.001543   1.000    0.00247    0.00014
        272    27 -103.049180 -103.047597    0.001584   1.000    0.00247    0.00014
        273    27 -103.049177 -103.047551    0.001625   1.000    0.00246    0.00014
        274    27 -103.049174 -103.047509    0.001664   1.000    0.00246    0.00014
        275    27 -103.049171 -103.047474    0.001696   1.000    0.00245    0.00014
        276    27 -103.049168 -103.047447    0.001721   1.000    0.00245    0.00014
        277    27 -103.049166 -103.047428    0.001737   1.000    0.00244    0.00014
        278    27 -103.049163 -103.047419    0.001744   1.000    0.00243    0.00014
        279    27 -103.049160 -103.047418    0.001742   1.000    0.00243    0.00014
        280    27 -103.049158 -103.047425    0.001732   1.000    0.00242    0.00014
        281    27 -103.049155 -103.047438    0.001716   1.000    0.00241    0.00014
        282    27 -103.049151 -103.047456    0.001695   1.000    0.00241    0.00014
        283    27 -103.049148 -103.047476    0.001672   1.000    0.00240    0.00014
        284    27 -103.049144 -103.047497    0.001648   1.000    0.00240    0.00014
        285    27 -103.049141 -103.047516    0.001625   1.000    0.00240    0.00014
        286    27 -103.049137 -103.047533    0.001604   1.000    0.00239    0.00014
        287    27 -103.049133 -103.047545    0.001588   1.000    0.00239    0.00014
        288    27 -103.049129 -103.047552    0.001576   1.000    0.00239    0.00013
        289    27 -103.049124 -103.047554    0.001570   1.000    0.00239    0.00013
        290    27 -103.049120 -103.047550    0.001570   1.000    0.00238    0.00013
        291    27 -103.049116 -103.047542    0.001575   1.000    0.00238    0.00013
        292    27 -103.049112 -103.047529    0.001584   1.000    0.00238    0.00013
        293    27 -103.049108 -103.047513    0.001596   1.000    0.00237    0.00013
        294    27 -103.049105 -103.047495    0.001610   1.000    0.00237    0.00013
        295    27 -103.049101 -103.047477    0.001624   1.000    0.00237    0.00013
        296    27 -103.049098 -103.047459    0.001638   1.000    0.00236    0.00013
        297    27 -103.049095 -103.047444    0.001651   1.000    0.00236    0.00013
        298    27 -103.049092 -103.047431    0.001660   1.000    0.00235    0.00013
        299    27 -103.049089 -103.047422    0.001666   1.000    0.00235    0.00013
        300    27 -103.049086 -103.047416    0.001669   1.000    0.00235    0.00013
        301    27 -103.049083 -103.047414    0.001669   1.000    0.00234    0.00013
        302    27 -103.049080 -103.047415    0.001665   1.000    0.00234    0.00013
        303    27 -103.049077 -103.047419    0.001658   1.000    0.00233    0.00013
        304    27 -103.049074 -103.047425    0.001649   1.000    0.00233    0.00013
        305    27 -103.049071 -103.047431    0.001640   1.000    0.00232    0.00013
        306    27 -103.049068 -103.047438    0.001630   1.000    0.00232    0.00013
        307    27 -103.049064 -103.047444    0.001620   1.000    0.00232    0.00013
        308    27 -103.049061 -103.047449    0.001612   1.000    0.00231    0.00012
        309    27 -103.049057 -103.047452    0.001605   1.000    0.00231    0.00012
        310    27 -103.049046 -103.047453    0.001593   1.000    0.00229    0.00013
        311    27 -103.049026 -103.047463    0.001563   1.000    0.00226    0.00013
        312    27 -103.049017 -103.047472    0.001546   1.000    0.00226    0.00012
        313    27 -103.049014 -103.047452    0.001563   1.000    0.00225    0.00012
        314    27 -103.049012 -103.047434    0.001579   1.000    0.00225    0.00012
        315    27 -103.049009 -103.047421    0.001588   1.000    0.00225    0.00012
        316    27 -103.048983 -103.047413    0.001570   1.000    0.00219    0.00014
        317    27 -103.048969 -103.047437    0.001532   1.000    0.00218    0.00012
        318    27 -103.048965 -103.047417    0.001548   1.000    0.00218    0.00012
        319    27 -103.048964 -103.047397    0.001567   1.000    0.00218    0.00012
        320    27 -103.048962 -103.047382    0.001580   1.000    0.00217    0.00012
        321    27 -103.048960 -103.047375    0.001585   1.000    0.00217    0.00012
        322    27 -103.048957 -103.047374    0.001583   1.000    0.00216    0.00012
        323    27 -103.048954 -103.047376    0.001578   1.000    0.00216    0.00012
        324    27 -103.048952 -103.047379    0.001573   1.000    0.00216    0.00012
        325    27 -103.048949 -103.047381    0.001568   1.000    0.00215    0.00012
        326    27 -103.048946 -103.047382    0.001563   1.000    0.00215    0.00012
        327    27 -103.048943 -103.047384    0.001559   1.000    0.00215    0.00012
        328    27 -103.048940 -103.047385    0.001555   1.000    0.00214    0.00012
        329    27 -103.048937 -103.047386    0.001551   1.000    0.00214    0.00012
        330    27 -103.048934 -103.047386    0.001547   1.000    0.00214    0.00012
        331    27 -103.048931 -103.047386    0.001545   1.000    0.00214    0.00011
        332    27 -103.048928 -103.047385    0.001543   1.000    0.00213    0.00011
        333    27 -103.048924 -103.047382    0.001542   1.000    0.00213    0.00011
        334    27 -103.048921 -103.047378    0.001543   1.000    0.00213    0.00011
        335    27 -103.048918 -103.047374    0.001544   1.000    0.00212    0.00011
        336    27 -103.048915 -103.047369    0.001547   1.000    0.00212    0.00011
        337    27 -103.048913 -103.047363    0.001549   1.000    0.00212    0.00011
        338    27 -103.048910 -103.047358    0.001552   1.000    0.00211    0.00011
        339    27 -103.048907 -103.047353    0.001554   1.000    0.00211    0.00011
        340    27 -103.048904 -103.047349    0.001556   1.000    0.00211    0.00011
        341    27 -103.048902 -103.047345    0.001557   1.000    0.00211    0.00011
        342    27 -103.048899 -103.047341    0.001558   1.000    0.00210    0.00011
        343    27 -103.048896 -103.047338    0.001558   1.000    0.00210    0.00011
        344    27 -103.048893 -103.047336    0.001557   1.000    0.00210    0.00011
        345    27 -103.048891 -103.047334    0.001557   1.000    0.00209    0.00011
        346    27 -103.048888 -103.047333    0.001555   1.000    0.00209    0.00011
        347    27 -103.048885 -103.047332    0.001553   1.000    0.00209    0.00011
        348    27 -103.048883 -103.047331    0.001551   1.000    0.00208    0.00011
        349    27 -103.048880 -103.047330    0.001549   1.000    0.00208    0.00011
        350    27 -103.048877 -103.047330    0.001547   1.000    0.00208    0.00011
        351    27 -103.048874 -103.047329    0.001546   1.000    0.00207    0.00011
        352    27 -103.048872 -103.047328    0.001544   1.000    0.00207    0.00011
        353    27 -103.048869 -103.047326    0.001543   1.000    0.00207    0.00011
        354    27 -103.048866 -103.047333    0.001533   1.000    0.00205    0.00021
        355    27 -103.048861 -103.047449    0.001412   1.000    0.00202    0.00017
        356    27 -103.048847 -103.047521    0.001326   1.000    0.00201    0.00014
        357    27 -103.048833 -103.047558    0.001275   1.000    0.00198    0.00018
        358    27 -103.048819 -103.047626    0.001192   1.000    0.00197    0.00020
        359    27 -103.048803 -103.047730    0.001074   1.000    0.00196    0.00017
        360    27 -103.048789 -103.047815    0.000974   1.000    0.00195    0.00019
        361    27 -103.048775 -103.047904    0.000871   1.000    0.00195    0.00023
        362    27 -103.048759 -103.047997    0.000762   1.000    0.00196    0.00017
        363    27 -103.048743 -103.048046    0.000696   1.000    0.00197    0.00015
        364    27 -103.048728 -103.048045    0.000683   1.000    0.00197    0.00013
        365    27 -103.048715 -103.047981    0.000734   1.000    0.00198    0.00012
        366    27 -103.048707 -103.047857    0.000849   1.000    0.00199    0.00012
        367    27 -103.048702 -103.047685    0.001017   1.000    0.00200    0.00011
        368    27 -103.048701 -103.047482    0.001218   1.000    0.00200    0.00010
        369    27 -103.048702 -103.047273    0.001430   1.000    0.00199    0.00016
        370    27 -103.048722 -103.047161    0.001561   1.000    0.00199    0.00012
        371    27 -103.048732 -103.047042    0.001691   1.000    0.00198    0.00011
        372    27 -103.048740 -103.046964    0.001777   1.000    0.00197    0.00014
        373    27 -103.048753 -103.046958    0.001795   1.000    0.00196    0.00011
        374    27 -103.048756 -103.046951    0.001804   1.000    0.00195    0.00010
        375    27 -103.048753 -103.046970    0.001784   1.000    0.00194    0.00010
        376    27 -103.048750 -103.047014    0.001736   1.000    0.00193    0.00010
        377    27 -103.048747 -103.047077    0.001670   1.000    0.00192    0.00010
        378    27 -103.048744 -103.047150    0.001594   1.000    0.00191    0.00010
        379    27 -103.048741 -103.047223    0.001518   1.000    0.00191    0.00009
        380    27 -103.048737 -103.047290    0.001447   1.000    0.00191    0.00009
        381    27 -103.048734 -103.047347    0.001387   1.000    0.00191    0.00009
        382    27 -103.048730 -103.047394    0.001336   1.000    0.00191    0.00009
        383    27 -103.048726 -103.047429    0.001297   1.000    0.00191    0.00009
        384    27 -103.048723 -103.047452    0.001271   1.000    0.00191    0.00009
        385    27 -103.048719 -103.047462    0.001257   1.000    0.00191    0.00009
        386    27 -103.048715 -103.047458    0.001256   1.000    0.00191    0.00009
        387    27 -103.048710 -103.047441    0.001269   1.000    0.00191    0.00009
        388    27 -103.048707 -103.047412    0.001294   1.000    0.00191    0.00009
        389    27 -103.048703 -103.047378    0.001325   1.000    0.00190    0.00018
        390    27 -103.048695 -103.047441    0.001254   1.000    0.00189    0.00019
        391    27 -103.048683 -103.047552    0.001131   1.000    0.00188    0.00015
        392    27 -103.048668 -103.047626    0.001043   1.000    0.00188    0.00013
        393    29 -103.048655 -103.047647    0.001008   1.000    0.00188    0.00011
        394    29 -103.048645 -103.047618    0.001026   1.000    0.00189    0.00010
        395    30 -103.048639 -103.047553    0.001086   1.000    0.00189    0.00009
        396    29 -103.048635 -103.047467    0.001168   1.000    0.00188    0.00023
        397    27 -103.048630 -103.047493    0.001137   1.000    0.00187    0.00013
        398    27 -103.048622 -103.047544    0.001078   1.000    0.00187    0.00012
        399    27 -103.048611 -103.047586    0.001026   1.000    0.00187    0.00012
        400    27 -103.048600 -103.047598    0.001002   1.000    0.00187    0.00011
        401    27 -103.048591 -103.047576    0.001015   1.000    0.00188    0.00009
        402    27 -103.048584 -103.047523    0.001061   1.000    0.00188    0.00009
        403    27 -103.048525 -103.047446    0.001079   1.000    0.00179    0.00012
        404    27 -103.048492 -103.047408    0.001084   1.000    0.00175    0.00012
        405    27 -103.048492 -103.047370    0.001122   1.000    0.00175    0.00009
        406    27 -103.048491 -103.047306    0.001185   1.000    0.00175    0.00009
        407    27 -103.048491 -103.047238    0.001253   1.000    0.00175    0.00008
        408    29 -103.048491 -103.047178    0.001313   1.000    0.00175    0.00008
        409    29 -103.048491 -103.047132    0.001359   1.000    0.00175    0.00008
        410    29 -103.048462 -103.047097    0.001364   1.000    0.00169    0.00011
        411    27 -103.048440 -103.047104    0.001336   1.000    0.00166    0.00010
        412    27 -103.048437 -103.047127    0.001310   1.000    0.00165    0.00008
        413    27 -103.048434 -103.047142    0.001292   1.000    0.00165    0.00008
        414    27 -103.048432 -103.047155    0.001277   1.000    0.00164    0.00008
        415    27 -103.048431 -103.047170    0.001261   1.000    0.00164    0.00008
        416    27 -103.048430 -103.047187    0.001242   1.000    0.00164    0.00008
        417    27 -103.048428 -103.047206    0.001222   1.000    0.00164    0.00008
        418    27 -103.048425 -103.047225    0.001201   1.000    0.00163    0.00008
        419    27 -103.048423 -103.047242    0.001181   1.000    0.00163    0.00008
        420    27 -103.048420 -103.047257    0.001163   1.000    0.00163    0.00008
        421    27 -103.048418 -103.047268    0.001149   1.000    0.00163    0.00008
        422    27 -103.048414 -103.047275    0.001139   1.000    0.00162    0.00019
        423    27 -103.048404 -103.047368    0.001037   1.000    0.00161    0.00012
        424    27 -103.048396 -103.047439    0.000956   1.000    0.00160    0.00013
        425    27 -103.048386 -103.047497    0.000889   1.000    0.00161    0.00012
        426    27 -103.048376 -103.047525    0.000851   1.000    0.00161    0.00011
        427    27 -103.048367 -103.047526    0.000841   1.000    0.00161    0.00010
        428    27 -103.048359 -103.047505    0.000853   1.000    0.00161    0.00009
        429    27 -103.048352 -103.047472    0.000880   1.000    0.00161    0.00008
        430    27 -103.048346 -103.047429    0.000917   1.000    0.00161    0.00008
        431    27 -103.048341 -103.047377    0.000964   1.000    0.00161    0.00008
        432    27 -103.048338 -103.047317    0.001021   1.000    0.00161    0.00008
        433    27 -103.048336 -103.047250    0.001086   1.000    0.00161    0.00008
        434    27 -103.048335 -103.047179    0.001157   1.000    0.00161    0.00008
        435    27 -103.048336 -103.047108    0.001228   1.000    0.00160    0.00007
        436    27 -103.048337 -103.047042    0.001295   1.000    0.00160    0.00007
        437    29 -103.048339 -103.046987    0.001353   1.000    0.00160    0.00007
        438    27 -103.048341 -103.046949    0.001393   1.000    0.00159    0.00008
        439    27 -103.048343 -103.046929    0.001414   1.000    0.00158    0.00008
        440    27 -103.048345 -103.046929    0.001416   1.000    0.00158    0.00008
        441    27 -103.048346 -103.046947    0.001399   1.000    0.00157    0.00008
        442    27 -103.048346 -103.046980    0.001366   1.000    0.00157    0.00007
        443    27 -103.048346 -103.047024    0.001322   1.000    0.00156    0.00007
        444    27 -103.048345 -103.047076    0.001269   1.000    0.00156    0.00007
        445    27 -103.048343 -103.047129    0.001214   1.000    0.00156    0.00007
        446    27 -103.048341 -103.047181    0.001160   1.000    0.00155    0.00007
        447    27 -103.048338 -103.047228    0.001110   1.000    0.00155    0.00008
        448    27 -103.048337 -103.047291    0.001046   1.000    0.00155    0.00012
        449    27 -103.048338 -103.047368    0.000970   1.000    0.00155    0.00008
        450    27 -103.048335 -103.047405    0.000930   1.000    0.00155    0.00008
        451    27 -103.048331 -103.047434    0.000897   1.000    0.00155    0.00008
        452    27 -103.048325 -103.047449    0.000876   1.000    0.00155    0.00008
        453    27 -103.048319 -103.047447    0.000872   1.000    0.00155    0.00007
        454    27 -103.048293 -103.047427    0.000866   1.000    0.00153    0.00008
        455    27 -103.048244 -103.047412    0.000832   1.000    0.00149    0.00011
        456    27 -103.048225 -103.047417    0.000808   1.000    0.00147    0.00009
        457    27 -103.048165 -103.047423    0.000742   1.000    0.00140    0.00020
        458    27 -103.048155 -103.047601    0.000555   1.000    0.00139    0.00020
        459    27 -103.048145 -103.047774    0.000372   1.000    0.00139    0.00018
        460    27 -103.048135 -103.047862    0.000273   1.000    0.00139    0.00015
        461    27 -103.048124 -103.047849    0.000275   1.000    0.00139    0.00012
        462    27 -103.048113 -103.047757    0.000356   1.000    0.00140    0.00010
        463    27 -103.048102 -103.047625    0.000477   1.000    0.00139    0.00009
        464    27 -103.048093 -103.047489    0.000603   1.000    0.00139    0.00009
        465    27 -103.048085 -103.047370    0.000715   1.000    0.00139    0.00009
        466    27 -103.048078 -103.047273    0.000805   1.000    0.00138    0.00008
        467    27 -103.048073 -103.047193    0.000880   1.000    0.00138    0.00007
        468    27 -103.048070 -103.047123    0.000946   1.000    0.00138    0.00007
        469    27 -103.048067 -103.047059    0.001009   1.000    0.00137    0.00007
        470    27 -103.048067 -103.046999    0.001068   1.000    0.00137    0.00007
        471    27 -103.048067 -103.046947    0.001121   1.000    0.00136    0.00008
        472    27 -103.048069 -103.046906    0.001163   1.000    0.00135    0.00010
        473    27 -103.048087 -103.046920    0.001167   1.000    0.00135    0.00009
        474    27 -103.048104 -103.046940    0.001164   1.000    0.00135    0.00008
        475    27 -103.048110 -103.046948    0.001162   1.000    0.00134    0.00009
        476    27 -103.048116 -103.046993    0.001123   1.000    0.00134    0.00009
        477    27 -103.048120 -103.047050    0.001070   1.000    0.00134    0.00007
        478    27 -103.048120 -103.047101    0.001019   1.000    0.00134    0.00007
        479    27 -103.048119 -103.047164    0.000954   1.000    0.00134    0.00006
        480    29 -103.048115 -103.047231    0.000884   1.000    0.00134    0.00006
        481    29 -103.048111 -103.047291    0.000820   1.000    0.00134    0.00006
        482    27 -103.048035 -103.047338    0.000697   1.000    0.00127    0.00012
        483    27 -103.048006 -103.047438    0.000567   1.000    0.00126    0.00010
        484    27 -103.047996 -103.047511    0.000485   1.000    0.00126    0.00008
        485    27 -103.047984 -103.047533    0.000451   1.000    0.00126    0.00007
        486    27 -103.047973 -103.047525    0.000449   1.000    0.00126    0.00007
        487    27 -103.047964 -103.047500    0.000463   1.000    0.00125    0.00007
        488    27 -103.047955 -103.047466    0.000489   1.000    0.00125    0.00007
        489    27 -103.047948 -103.047423    0.000525   1.000    0.00125    0.00007
        490    27 -103.047942 -103.047371    0.000571   1.000    0.00125    0.00006
        491    27 -103.047937 -103.047310    0.000627   1.000    0.00125    0.00006
        492    27 -103.047934 -103.047242    0.000692   1.000    0.00125    0.00006
        493    27 -103.047932 -103.047170    0.000762   1.000    0.00125    0.00005
        494    27 -103.047932 -103.047098    0.000834   1.000    0.00125    0.00005
        495    27 -103.047933 -103.047030    0.000903   1.000    0.00125    0.00005
        496    27 -103.047935 -103.046970    0.000966   1.000    0.00124    0.00006
        497    27 -103.047939 -103.046920    0.001018   1.000    0.00124    0.00006
        498    27 -103.047942 -103.046885    0.001058   1.000    0.00124    0.00006
        499    27 -103.047947 -103.046863    0.001084   1.000    0.00124    0.00006

        ==> Orbital Optimization <==

            Orbital Optimization did not converge in  20 iterations 
            Total energy change: -2.420515e-02
            Final gradient norm: 1.365437e-03

        500    27 -103.072156 -101.781379    1.290778  20.001    0.00123    0.00006
        501    38 -103.077737 -100.378078    2.699659  20.001    0.01935    0.37053
        502    27 -103.087448 -101.350692    1.736756  20.001    0.02411    0.24987
        503    27 -103.090815 -102.516855    0.573960  20.001    0.02537    0.19087
        504    27 -103.090464 -103.550422    0.459958  20.001    0.02163    0.18750
        505    27 -103.088208 -104.253567    1.165359  20.001    0.01449    0.20257
        506    27 -103.085310 -104.501686    1.416376  20.001    0.00770    0.20373
        507    27 -103.082899 -104.344420    1.261521  20.001    0.00760    0.18626
        508    27 -103.081500 -103.919585    0.838085  20.001    0.01096    0.15982
        509    25 -103.081658 -103.397870    0.316212  20.001    0.01256    0.14181
        510    26 -103.081598 -103.006882    0.074716  20.001    0.01186    0.13227
        511    26 -103.083638 -102.775038    0.308600  20.001    0.00854    0.13057
        512    27 -103.090509 -102.741176    0.349333  20.001    0.00598    0.12463
        513    27 -103.091924 -102.834537    0.257387  20.001    0.00588    0.11468
        514    27 -103.092408 -102.962189    0.130218  20.001    0.00604    0.10753
        515    27 -103.092710 -103.104202    0.011492  20.001    0.00648    0.10057
        516    27 -103.093129 -103.221981    0.128852  20.001    0.00652    0.09490
        517    27 -103.093767 -103.301929    0.208161  20.001    0.00613    0.09077
        518    27 -103.094258 -103.355955    0.261697  20.001    0.00589    0.08712
        519    27 -103.094428 -103.384054    0.289626  20.001    0.00584    0.08444
        520    27 -103.094592 -103.399256    0.304664  20.001    0.00591    0.08234
        521    27 -103.094300 -103.403212    0.308912  20.001    0.00566    0.08038
        522    27 -103.093488 -103.419130    0.325642  20.001    0.00497    0.08330
        523    29 -103.092651 -103.473961    0.381310  20.001    0.00440    0.08407
        524    29 -103.091798 -103.543283    0.451485  20.001    0.00380    0.08595
        525    29 -103.091014 -103.610968    0.519954  20.001    0.00330    0.08571
        526    29 -103.090145 -103.635153    0.545008  20.001    0.00308    0.08510
        527    27 -103.089233 -103.627935    0.538703  20.001    0.00323    0.08330
        528    27 -103.088348 -103.596009    0.507660  20.001    0.00360    0.08037
        529    27 -103.087547 -103.547267    0.459719  20.001    0.00400    0.07657
        530    27 -103.086869 -103.488594    0.401725  20.001    0.00434    0.07216
        531    27 -103.086328 -103.425368    0.339040  20.001    0.00459    0.06737
        532    26 -103.085821 -103.361167    0.275346  20.001    0.00458    0.06258
        533    26 -103.085198 -103.299817    0.214619  20.001    0.00421    0.05859
        534    26 -103.084945 -103.245323    0.160378  20.001    0.00403    0.05609
        535    27 -103.084874 -103.196498    0.111624  20.001    0.00386    0.05324
        536    27 -103.084986 -103.145612    0.060626  20.001    0.00371    0.05165
        537    27 -103.085269 -103.096095    0.010825  20.001    0.00355    0.05110
        538    26 -103.085691 -103.049708    0.035983  20.001    0.00338    0.05126
        539    26 -103.086209 -103.008880    0.077329  20.001    0.00318    0.05163
        540    26 -103.086788 -102.976307    0.110480  20.001    0.00289    0.05266
        541    27 -103.087382 -102.961602    0.125780  20.001    0.00262    0.05204
        542    27 -103.088001 -102.952178    0.135823  20.001    0.00238    0.05152
        543    27 -103.088619 -102.950022    0.138596  20.001    0.00219    0.05069
        544    27 -103.089224 -102.954485    0.134739  20.001    0.00208    0.04953
        545    27 -103.089806 -102.964835    0.124971  20.001    0.00205    0.04806
        546    27 -103.090280 -102.980285    0.109995  20.001    0.00198    0.04635
        547    27 -103.090691 -103.001143    0.089548  20.001    0.00199    0.04445
        548    27 -103.090983 -103.026099    0.064884  20.001    0.00201    0.04244
        549    27 -103.091211 -103.052933    0.038278  20.001    0.00208    0.04054
        550    27 -103.091397 -103.080505    0.010892  20.001    0.00214    0.03890
        551    27 -103.091509 -103.107820    0.016311  20.001    0.00217    0.03767
        552    27 -103.091542 -103.134959    0.043417  20.001    0.00217    0.03690
        553    27 -103.091499 -103.161364    0.069866  20.001    0.00216    0.03656
        554    27 -103.091383 -103.186189    0.094806  20.001    0.00212    0.03657
        555    27 -103.091154 -103.208440    0.117286  20.001    0.00207    0.03680
        556    27 -103.090729 -103.227613    0.136884  20.001    0.00205    0.03723
        557    27 -103.090426 -103.243917    0.153491  20.001    0.00202    0.03738
        558    27 -103.090119 -103.254097    0.163979  20.001    0.00201    0.03744
        559    27 -103.089800 -103.258161    0.168361  20.001    0.00202    0.03725
        560    27 -103.089473 -103.256628    0.167155  20.001    0.00205    0.03677
        561    27 -103.089093 -103.250377    0.161284  20.001    0.00203    0.03603
        562    27 -103.088657 -103.240764    0.152106  20.001    0.00200    0.03510
        563    27 -103.088353 -103.228908    0.140556  20.001    0.00206    0.03397
        564    27 -103.088108 -103.217259    0.129151  20.001    0.00214    0.03258
        565    27 -103.087892 -103.202428    0.114536  20.001    0.00220    0.03117
        566    27 -103.087708 -103.185429    0.097721  20.001    0.00223    0.02993
        567    27 -103.087525 -103.167953    0.080428  20.001    0.00217    0.02930
        568    27 -103.087436 -103.154987    0.067552  20.001    0.00214    0.02865
        569    27 -103.087423 -103.140503    0.053080  20.001    0.00216    0.02780
        570    26 -103.087459 -103.123367    0.035909  20.001    0.00220    0.02668
        571    26 -103.087540 -103.103692    0.016152  20.001    0.00217    0.02613
        572    27 -103.087654 -103.085338    0.002316  20.001    0.00210    0.02593
        573    27 -103.087748 -103.069525    0.018224  20.001    0.00197    0.02578
        574    27 -103.087699 -103.057548    0.030151  20.001    0.00178    0.02603
        575    27 -103.087878 -103.053596    0.034282  20.001    0.00176    0.02538
        576    27 -103.088012 -103.051064    0.036948  20.001    0.00173    0.02477
        577    27 -103.088172 -103.051799    0.036373  20.001    0.00174    0.02406
        578    27 -103.088343 -103.054111    0.034231  20.001    0.00175    0.02321
        579    27 -103.088514 -103.056565    0.031949  20.001    0.00176    0.02255
        580    27 -103.088679 -103.060187    0.028493  20.001    0.00178    0.02154
        581    27 -103.088835 -103.062827    0.026008  20.001    0.00179    0.02073
        582    27 -103.088977 -103.066399    0.022578  20.001    0.00179    0.01996
        583    27 -103.089057 -103.071515    0.017542  20.001    0.00176    0.01926
        584    27 -103.089124 -103.078818    0.010306  20.001    0.00175    0.01860
        585    29 -103.089134 -103.088161    0.000972  20.001    0.00174    0.01848
        586    29 -103.089064 -103.101392    0.012329  20.001    0.00177    0.01785
        587    29 -103.089060 -103.114544    0.025484  20.001    0.00178    0.01734
        588    29 -103.089021 -103.125070    0.036049  20.001    0.00179    0.01683
        589    29 -103.088952 -103.132630    0.043678  20.001    0.00180    0.01645
        590    29 -103.088859 -103.138137    0.049278  20.001    0.00180    0.01617
        591    29 -103.088747 -103.142119    0.053372  20.001    0.00179    0.01601
        592    29 -103.088620 -103.145706    0.057087  20.001    0.00177    0.01601
        593    29 -103.088470 -103.150026    0.061557  20.001    0.00176    0.01569
        594    29 -103.088305 -103.152215    0.063910  20.001    0.00175    0.01547
        595    27 -103.088136 -103.152426    0.064291  20.001    0.00175    0.01524
        596    27 -103.087972 -103.151018    0.063046  20.001    0.00174    0.01496
        597    27 -103.087818 -103.148469    0.060651  20.001    0.00173    0.01463
        598    27 -103.087677 -103.144980    0.057303  20.001    0.00173    0.01423
        599    27 -103.087553 -103.140640    0.053087  20.001    0.00173    0.01376
        600    27 -103.087447 -103.135484    0.048037  20.001    0.00174    0.01323
        601    27 -103.087362 -103.129528    0.042166  20.001    0.00175    0.01264
        602    27 -103.087297 -103.122810    0.035513  20.001    0.00176    0.01202
        603    27 -103.087253 -103.115417    0.028164  20.001    0.00177    0.01140
        604    27 -103.087230 -103.107502    0.020273  20.001    0.00178    0.01083
        605    27 -103.087228 -103.099281    0.012053  20.001    0.00179    0.01035
        606    27 -103.087246 -103.091014    0.003768  20.001    0.00179    0.01001
        607    27 -103.087284 -103.082997    0.004287  20.001    0.00177    0.00998
        608    27 -103.087334 -103.076456    0.010877  20.001    0.00173    0.01075
        609    27 -103.087380 -103.074161    0.013219  20.001    0.00168    0.01047
        610    27 -103.087441 -103.072928    0.014513  20.001    0.00164    0.01015
        611    27 -103.087516 -103.071349    0.016168  20.001    0.00162    0.01013
        612    27 -103.087600 -103.069981    0.017619  20.001    0.00161    0.01003
        613    27 -103.087686 -103.068835    0.018850  20.001    0.00162    0.00981
        614    27 -103.087770 -103.068047    0.019723  20.001    0.00162    0.00947
        615    27 -103.087848 -103.067791    0.020057  20.001    0.00163    0.00903
        616    27 -103.087917 -103.068235    0.019682  20.001    0.00163    0.00858
        617    27 -103.087976 -103.069503    0.018472  20.001    0.00162    0.00816
        618    27 -103.088021 -103.071633    0.016388  20.001    0.00162    0.00779
        619    27 -103.088053 -103.074567    0.013486  20.001    0.00161    0.00747
        620    27 -103.088072 -103.078155    0.009916  20.001    0.00161    0.00721
        621    27 -103.088078 -103.082184    0.005894  20.001    0.00160    0.00736
        622    27 -103.088062 -103.087911    0.000151  20.001    0.00159    0.00699
        623    27 -103.088031 -103.092785    0.004754  20.001    0.00159    0.00690
        624    27 -103.087990 -103.096806    0.008816  20.001    0.00159    0.00683
        625    27 -103.087942 -103.099923    0.011981  20.001    0.00159    0.00714
        626    27 -103.087882 -103.103485    0.015603  20.001    0.00159    0.00683
        627    27 -103.087819 -103.105312    0.017493  20.001    0.00159    0.00675
        628    27 -103.087757 -103.105996    0.018239  20.001    0.00160    0.00665
        629    27 -103.087698 -103.105689    0.017991  20.001    0.00160    0.00653
        630    27 -103.087645 -103.104650    0.017005  20.001    0.00161    0.00639
        631    27 -103.087600 -103.103148    0.015549  20.001    0.00161    0.00626
        632    27 -103.087560 -103.101402    0.013842  20.001    0.00160    0.00614
        633    27 -103.087526 -103.099559    0.012033  20.001    0.00160    0.00604
        634    27 -103.087496 -103.097700    0.010203  20.001    0.00159    0.00595
        635    27 -103.087470 -103.095859    0.008389  20.001    0.00159    0.00587
        636    27 -103.087447 -103.094042    0.006595  20.001    0.00158    0.00578
        637    27 -103.087427 -103.092244    0.004817  20.001    0.00158    0.00569
        638    27 -103.087409 -103.090456    0.003046  20.001    0.00157    0.00559
        639    27 -103.087394 -103.088680    0.001286  20.001    0.00156    0.00549
        640    27 -103.087382 -103.086921    0.000461  20.001    0.00156    0.00540
        641    27 -103.087373 -103.085192    0.002181  20.001    0.00156    0.00531
        642    27 -103.087368 -103.083513    0.003855  20.001    0.00156    0.00524
        643    27 -103.087366 -103.081903    0.005463  20.001    0.00156    0.00519
        644    27 -103.087368 -103.080390    0.006979  20.001    0.00156    0.00515
        645    27 -103.087375 -103.078993    0.008381  20.001    0.00156    0.00513
        646    27 -103.087384 -103.077736    0.009648  20.001    0.00156    0.00511
        647    27 -103.087397 -103.076638    0.010759  20.001    0.00156    0.00510
        648    27 -103.087414 -103.075715    0.011699  20.001    0.00156    0.00515
        649    27 -103.087431 -103.075758    0.011672  20.001    0.00157    0.00526
        650    27 -103.087448 -103.076296    0.011152  20.001    0.00159    0.00530
        651    27 -103.087467 -103.076552    0.010915  20.001    0.00161    0.00531
        652    27 -103.087487 -103.076610    0.010877  20.001    0.00163    0.00530
        653    27 -103.087508 -103.076415    0.011092  20.001    0.00164    0.00564
        654    27 -103.087528 -103.077190    0.010339  20.001    0.00165    0.00611
        655    27 -103.087547 -103.079122    0.008425  20.001    0.00166    0.00559
        656    27 -103.087559 -103.080338    0.007220  20.001    0.00166    0.00554
        657    27 -103.087433 -103.082454    0.004979  20.001    0.00150    0.00589
        658    29 -103.087394 -103.086022    0.001372  20.001    0.00147    0.00588
        659    27 -103.087349 -103.089789    0.002440  20.001    0.00145    0.00623
        660    29 -103.087290 -103.093483    0.006192  20.001    0.00143    0.00653
        661    29 -103.087213 -103.096730    0.009517  20.001    0.00141    0.00628
        662    29 -103.087126 -103.097957    0.010831  20.001    0.00139    0.00674
        663    27 -103.087035 -103.098801    0.011767  20.001    0.00138    0.00685
        664    27 -103.086941 -103.099222    0.012281  20.001    0.00137    0.00682
        665    27 -103.086846 -103.098885    0.012039  20.001    0.00136    0.00682
        666    27 -103.086750 -103.098237    0.011487  20.001    0.00135    0.00676
        667    27 -103.086658 -103.097397    0.010739  20.001    0.00133    0.00665
        668    27 -103.086571 -103.096471    0.009900  20.001    0.00130    0.00657
        669    27 -103.086489 -103.095784    0.009296  20.001    0.00124    0.00805
        670    27 -103.086350 -103.097765    0.011415  20.001    0.00113    0.00774
        671    27 -103.086221 -103.100514    0.014293  20.001    0.00106    0.00800
        672    27 -103.086100 -103.102924    0.016824  20.001    0.00101    0.00842
        673    24 -103.085977 -103.104437    0.018459  20.001    0.00096    0.00884
        674    24 -103.085848 -103.106044    0.020196  20.001    0.00093    0.00886
        675    27 -103.085721 -103.106834    0.021113  20.001    0.00092    0.00867
        676    27 -103.085606 -103.107251    0.021646  20.001    0.00091    0.00828
        677    27 -103.085504 -103.106827    0.021323  20.001    0.00091    0.00782
        678    27 -103.085419 -103.105615    0.020196  20.001    0.00091    0.00737
        679    27 -103.085352 -103.103778    0.018427  20.001    0.00091    0.00698
        680    27 -103.085303 -103.101507    0.016205  20.001    0.00090    0.00670
        681    27 -103.085276 -103.099331    0.014055  20.001    0.00085    0.00752
        682    27 -103.085301 -103.100414    0.015113  20.001    0.00079    0.00764
        683    27 -103.085337 -103.100082    0.014745  20.001    0.00077    0.00766
        684    27 -103.085367 -103.098259    0.012892  20.001    0.00076    0.00769
        685    27 -103.085388 -103.096785    0.011397  20.001    0.00075    0.00774
        686    27 -103.085393 -103.096295    0.010903  20.001    0.00074    0.00757
        687    27 -103.085395 -103.095788    0.010393  20.001    0.00073    0.00749
        688    27 -103.085362 -103.095849    0.010486  20.001    0.00070    0.00724
        689    24 -103.085316 -103.097910    0.012594  20.001    0.00069    0.00688
        690    27 -103.085256 -103.099338    0.014083  20.001    0.00069    0.00661
        691    27 -103.085177 -103.099986    0.014809  20.001    0.00069    0.00644
        692    27 -103.085105 -103.099877    0.014772  20.001    0.00068    0.00634
        693    27 -103.085032 -103.098932    0.013900  20.001    0.00066    0.00626
        694    27 -103.084961 -103.097478    0.012516  20.001    0.00064    0.00614
        695    27 -103.084890 -103.095793    0.010903  20.001    0.00061    0.00596
        696    27 -103.084839 -103.094296    0.009458  20.001    0.00059    0.00567
        697    27 -103.084799 -103.092525    0.007726  20.001    0.00058    0.00535
        698    27 -103.084769 -103.090764    0.005995  20.001    0.00056    0.00510
        699    27 -103.084757 -103.089429    0.004672  20.001    0.00050    0.00639
        700    27 -103.084795 -103.089870    0.005076  20.001    0.00045    0.00623
        701    27 -103.084827 -103.088707    0.003880  20.001    0.00041    0.00657
        702    27 -103.084850 -103.088218    0.003368  20.001    0.00039    0.00659
        703    27 -103.084865 -103.088713    0.003848  20.001    0.00038    0.00624
        704    27 -103.084863 -103.090088    0.005225  20.001    0.00038    0.00563
        705    27 -103.084850 -103.092283    0.007433  20.001    0.00037    0.00518
        706    27 -103.084829 -103.095088    0.010259  20.001    0.00037    0.00474
        707    27 -103.084798 -103.096407    0.011609  20.001    0.00037    0.00462
        708    27 -103.084760 -103.096692    0.011932  20.001    0.00037    0.00464
        709    27 -103.084698 -103.096260    0.011563  20.001    0.00035    0.00473
        710    27 -103.084639 -103.095774    0.011135  20.001    0.00035    0.00474
        711    27 -103.084587 -103.094507    0.009920  20.001    0.00035    0.00463
        712    27 -103.084542 -103.092836    0.008294  20.001    0.00036    0.00439
        713    27 -103.084506 -103.090980    0.006474  20.001    0.00037    0.00410
        714    27 -103.084479 -103.089643    0.005164  20.001    0.00038    0.00377
        715    27 -103.084462 -103.088027    0.003565  20.001    0.00039    0.00352
        716    27 -103.084452 -103.086522    0.002069  20.001    0.00039    0.00338
        717    27 -103.084447 -103.085260    0.000813  20.001    0.00038    0.00335
        718    27 -103.084412 -103.084372    0.000040  20.001    0.00033    0.00350
        719    27 -103.084404 -103.084120    0.000285  20.001    0.00031    0.00342
        720    27 -103.084387 -103.083545    0.000843  20.001    0.00029    0.00345
        721    29 -103.084372 -103.082955    0.001418  20.001    0.00028    0.00344
        722    29 -103.084373 -103.082249    0.002125  20.001    0.00027    0.00337
        723    29 -103.084377 -103.081223    0.003154  20.001    0.00027    0.00330
        724    29 -103.084385 -103.080030    0.004355  20.001    0.00027    0.00322
        725    29 -103.084395 -103.078746    0.005649  20.001    0.00026    0.00313
        726    29 -103.084409 -103.077459    0.006950  20.001    0.00026    0.00306
        727    29 -103.084426 -103.076250    0.008176  20.001    0.00027    0.00300
        728    29 -103.084445 -103.075209    0.009236  20.001    0.00027    0.00295
        729    29 -103.084467 -103.074463    0.010004  20.001    0.00027    0.00291
        730    29 -103.084492 -103.073908    0.010584  20.001    0.00027    0.00289
        731    29 -103.084519 -103.073594    0.010925  20.001    0.00028    0.00286
        732    29 -103.084548 -103.073558    0.010989  20.001    0.00028    0.00293
        733    29 -103.084576 -103.074234    0.010341  20.001    0.00028    0.00286
        734    29 -103.084602 -103.074938    0.009663  20.001    0.00028    0.00293
        735    27 -103.084623 -103.075978    0.008645  20.001    0.00028    0.00286
        736    29 -103.084642 -103.076772    0.007871  20.001    0.00027    0.00287
        737    27 -103.084659 -103.077558    0.007101  20.001    0.00027    0.00286
        738    27 -103.084672 -103.078306    0.006366  20.001    0.00027    0.00283
        739    27 -103.084683 -103.079029    0.005654  20.001    0.00027    0.00277
        740    27 -103.084691 -103.079711    0.004980  20.001    0.00027    0.00270
        741    27 -103.084697 -103.080337    0.004360  20.001    0.00027    0.00261
        742    27 -103.084702 -103.080896    0.003806  20.001    0.00027    0.00251
        743    27 -103.084705 -103.081380    0.003324  20.001    0.00027    0.00240
        744    27 -103.084706 -103.081796    0.002910  20.001    0.00027    0.00230
        745    27 -103.084707 -103.082157    0.002551  20.001    0.00027    0.00221
        746    27 -103.084707 -103.082480    0.002228  20.001    0.00027    0.00214
        747    27 -103.084707 -103.082785    0.001922  20.001    0.00027    0.00208
        748    27 -103.084706 -103.083093    0.001614  20.001    0.00027    0.00204
        749    27 -103.084706 -103.083417    0.001288  20.001    0.00027    0.00201
        750    27 -103.084704 -103.083770    0.000935  20.001    0.00026    0.00199
        751    27 -103.084703 -103.084157    0.000546  20.001    0.00026    0.00197
        752    27 -103.084701 -103.084581    0.000121  20.001    0.00026    0.00196
        753    27 -103.084699 -103.085042    0.000343  20.001    0.00026    0.00195
        754    27 -103.084696 -103.085538    0.000842  20.001    0.00026    0.00195
        755    27 -103.084692 -103.086063    0.001371  20.001    0.00026    0.00195
        756    27 -103.084686 -103.086610    0.001924  20.001    0.00026    0.00196
        757    27 -103.084679 -103.087170    0.002490  20.001    0.00026    0.00196
        758    27 -103.084671 -103.087730    0.003060  20.001    0.00026    0.00196
        759    27 -103.084660 -103.088277    0.003617  20.001    0.00026    0.00196
        760    27 -103.084648 -103.088793    0.004146  20.001    0.00025    0.00194
        761    29 -103.084633 -103.089259    0.004626  20.001    0.00025    0.00192
        762    30 -103.084617 -103.089666    0.005049  20.001    0.00025    0.00189
        763    29 -103.084600 -103.089990    0.005390  20.001    0.00025    0.00185
        764    29 -103.084581 -103.090219    0.005637  20.001    0.00025    0.00181
        765    29 -103.084562 -103.090344    0.005782  20.001    0.00025    0.00177
        766    29 -103.084542 -103.090358    0.005816  20.001    0.00025    0.00172
        767    29 -103.084523 -103.090258    0.005735  20.001    0.00024    0.00167
        768    29 -103.084504 -103.090046    0.005542  20.001    0.00024    0.00163
        769    29 -103.084486 -103.089726    0.005240  20.001    0.00024    0.00158
        770    29 -103.084469 -103.089304    0.004835  20.001    0.00024    0.00154
        771    29 -103.084454 -103.088792    0.004339  20.001    0.00024    0.00149
        772    29 -103.084441 -103.088199    0.003758  20.001    0.00024    0.00144
[...]
       4953    24 -103.086205 -103.086190    0.000015  19.830    0.00001    0.00001
       4954    24 -103.086205 -103.086190    0.000015  19.830    0.00001    0.00001
       4955    24 -103.086205 -103.086190    0.000015  19.830    0.00001    0.00001
       4956    25 -103.086205 -103.086190    0.000015  19.830    0.00001    0.00001
       4957    24 -103.086205 -103.086190    0.000014  19.830    0.00001    0.00001
       4958    24 -103.086205 -103.086190    0.000014  19.830    0.00001    0.00001
       4959    24 -103.086205 -103.086191    0.000014  19.830    0.00001    0.00001
       4960    25 -103.086205 -103.086191    0.000014  19.830    0.00001    0.00001
       4961    24 -103.086205 -103.086191    0.000014  19.830    0.00001    0.00001
       4962    25 -103.086205 -103.086191    0.000014  19.830    0.00001    0.00001
       4963    25 -103.086205 -103.086191    0.000014  19.830    0.00001    0.00001
       4964    25 -103.086205 -103.086191    0.000014  19.830    0.00001    0.00001
       4965    25 -103.086205 -103.086191    0.000014  19.830    0.00001    0.00001
       4966    24 -103.086205 -103.086191    0.000014  19.830    0.00001    0.00001
       4967    24 -103.086205 -103.086191    0.000014  19.830    0.00001    0.00001
       4968    25 -103.086205 -103.086191    0.000013  19.830    0.00001    0.00001
       4969    24 -103.086205 -103.086191    0.000013  19.830    0.00001    0.00001
       4970    24 -103.086205 -103.086191    0.000013  19.830    0.00001    0.00001
       4971    25 -103.086205 -103.086191    0.000013  19.830    0.00001    0.00001
       4972    25 -103.086205 -103.086191    0.000013  19.830    0.00001    0.00001
       4973    24 -103.086205 -103.086191    0.000013  19.830    0.00001    0.00001
       4974    25 -103.086205 -103.086191    0.000013  19.830    0.00001    0.00001
       4975    24 -103.086205 -103.086191    0.000013  19.830    0.00001    0.00001
       4976    25 -103.086205 -103.086191    0.000013  19.830    0.00001    0.00001
       4977    24 -103.086205 -103.086191    0.000013  19.830    0.00001    0.00001
       4978    24 -103.086205 -103.086191    0.000014  19.830    0.00001    0.00001
       4979    25 -103.086205 -103.086191    0.000014  19.830    0.00001    0.00001
       4980    25 -103.086205 -103.086191    0.000014  19.830    0.00001    0.00001
       4981    24 -103.086205 -103.086191    0.000014  19.830    0.00001    0.00001
       4982    24 -103.086205 -103.086191    0.000014  19.830    0.00001    0.00001
       4983    24 -103.086205 -103.086191    0.000014  19.830    0.00001    0.00001
       4984    24 -103.086205 -103.086191    0.000014  19.830    0.00001    0.00001
       4985    25 -103.086205 -103.086191    0.000014  19.830    0.00001    0.00001
       4986    25 -103.086205 -103.086191    0.000014  19.830    0.00001    0.00001
       4987    25 -103.086205 -103.086191    0.000014  19.830    0.00001    0.00001
       4988    24 -103.086205 -103.086191    0.000014  19.830    0.00001    0.00001
       4989    24 -103.086205 -103.086190    0.000014  19.830    0.00001    0.00001
       4990    24 -103.086205 -103.086190    0.000014  19.830    0.00001    0.00001
       4991    24 -103.086205 -103.086190    0.000014  19.830    0.00001    0.00001
       4992    25 -103.086205 -103.086190    0.000014  19.830    0.00001    0.00001
       4993    24 -103.086205 -103.086190    0.000014  19.830    0.00001    0.00001
       4994    24 -103.086205 -103.086190    0.000014  19.830    0.00001    0.00001
       4995    24 -103.086205 -103.086190    0.000014  19.830    0.00001    0.00001
       4996    25 -103.086205 -103.086190    0.000014  19.830    0.00001    0.00001
       4997    24 -103.086205 -103.086190    0.000014  19.830    0.00001    0.00001
       4998    25 -103.086205 -103.086190    0.000014  19.830    0.00001    0.00001
       4999    25 -103.086205 -103.086190    0.000014  19.830    0.00001    0.00001

        ==> Orbital Optimization <==

            Orbital Optimization converged in  18 iterations 
            Total energy change: -4.093096e-09
            Final gradient norm: 9.321394e-07

       5000    24 -103.086205 -103.087778    0.001574   9.511    0.00001    0.00001
       5001    30 -103.086198 -103.087587    0.001389   9.511    0.00003    0.00027
       5002    26 -103.086187 -103.087305    0.001117   9.511    0.00003    0.00020
       5003    26 -103.086177 -103.087023    0.000846   9.511    0.00003    0.00016
       5004    23 -103.086170 -103.086762    0.000592   9.511    0.00003    0.00013
       5005    26 -103.086168 -103.086531    0.000363   9.511    0.00003    0.00012
       5006    27 -103.086168 -103.086335    0.000167   9.511    0.00003    0.00013
       5007    23 -103.086170 -103.086186    0.000017   9.511    0.00003    0.00013
       5008    26 -103.086172 -103.086090    0.000082   9.511    0.00002    0.00012
       5009    26 -103.086176 -103.086037    0.000138   9.511    0.00002    0.00011
       5010    27 -103.086179 -103.086019    0.000160   9.511    0.00002    0.00009
       5011    26 -103.086182 -103.086021    0.000162   9.511    0.00002    0.00008
       5012    27 -103.086185 -103.086031    0.000155   9.511    0.00002    0.00007
       5013    26 -103.086188 -103.086039    0.000149   9.511    0.00002    0.00007
       5014    24 -103.086190 -103.086038    0.000152   9.511    0.00002    0.00008
       5015    23 -103.086192 -103.086027    0.000165   9.511    0.00002    0.00009
       5016    25 -103.086193 -103.086002    0.000191   9.511    0.00002    0.00010
       5017    23 -103.086195 -103.085966    0.000229   9.511    0.00002    0.00011
       5018    24 -103.086197 -103.085923    0.000274   9.511    0.00002    0.00011
       5019    23 -103.086199 -103.085877    0.000322   9.511    0.00002    0.00011
       5020    25 -103.086202 -103.085834    0.000367   9.511    0.00001    0.00011
       5021    26 -103.086204 -103.085800    0.000405   9.511    0.00001    0.00010
       5022    24 -103.086207 -103.085777    0.000431   9.511    0.00001    0.00010
       5023    24 -103.086210 -103.085769    0.000441   9.511    0.00001    0.00009
       5024    23 -103.086213 -103.085778    0.000436   9.511    0.00001    0.00009
       5025    24 -103.086216 -103.085802    0.000414   9.511    0.00001    0.00008
       5026    26 -103.086218 -103.085840    0.000378   9.511    0.00001    0.00007
       5027    26 -103.086220 -103.085889    0.000331   9.511    0.00001    0.00006
       5028    27 -103.086222 -103.085946    0.000276   9.511    0.00001    0.00005
       5029    26 -103.086223 -103.086007    0.000215   9.511    0.00001    0.00004
       5030    25 -103.086223 -103.086069    0.000154   9.511    0.00001    0.00003
       5031    27 -103.086223 -103.086130    0.000093   9.511    0.00001    0.00003
       5032    23 -103.086222 -103.086186    0.000036   9.511    0.00001    0.00003
       5033    23 -103.086221 -103.086237    0.000016   9.511    0.00001    0.00004
       5034    23 -103.086220 -103.086282    0.000062   9.511    0.00001    0.00004
       5035    23 -103.086219 -103.086321    0.000102   9.511    0.00001    0.00005
       5036    23 -103.086217 -103.086352    0.000135   9.511    0.00001    0.00005
       5037    24 -103.086215 -103.086378    0.000163   9.511    0.00001    0.00006
       5038    23 -103.086214 -103.086398    0.000185   9.511    0.00001    0.00006
       5039    27 -103.086212 -103.086413    0.000202   9.511    0.00001    0.00007
       5040    27 -103.086210 -103.086424    0.000214   9.511    0.00001    0.00007
       5041    27 -103.086208 -103.086430    0.000222   9.511    0.00001    0.00007
       5042    24 -103.086206 -103.086432    0.000226   9.511    0.00001    0.00007
       5043    24 -103.086204 -103.086430    0.000226   9.511    0.00001    0.00007
       5044    24 -103.086202 -103.086424    0.000222   9.511    0.00001    0.00006
       5045    24 -103.086201 -103.086415    0.000214   9.511    0.00001    0.00006
       5046    26 -103.086199 -103.086402    0.000203   9.511    0.00001    0.00005
       5047    26 -103.086198 -103.086384    0.000187   9.511    0.00001    0.00004
       5048    27 -103.086196 -103.086364    0.000168   9.511    0.00001    0.00004
       5049    26 -103.086195 -103.086340    0.000145   9.511    0.00001    0.00003
       5050    26 -103.086194 -103.086314    0.000119   9.511    0.00001    0.00002
       5051    26 -103.086194 -103.086285    0.000091   9.511    0.00001    0.00002
       5052    27 -103.086194 -103.086255    0.000062   9.511    0.00001    0.00002
       5053    26 -103.086194 -103.086225    0.000031   9.511    0.00001    0.00002
       5054    27 -103.086194 -103.086194    0.000000   9.511    0.00001    0.00002
       5055    26 -103.086195 -103.086165    0.000030   9.511    0.00001    0.00003
       5056    24 -103.086195 -103.086137    0.000059   9.511    0.00001    0.00003
       5057    27 -103.086196 -103.086112    0.000085   9.511    0.00001    0.00004
       5058    24 -103.086197 -103.086089    0.000108   9.511    0.00001    0.00004
       5059    24 -103.086199 -103.086070    0.000129   9.511    0.00001    0.00004
       5060    25 -103.086200 -103.086055    0.000145   9.511    0.00001    0.00004
       5061    24 -103.086201 -103.086043    0.000158   9.511    0.00001    0.00005
       5062    24 -103.086203 -103.086036    0.000167   9.511    0.00001    0.00005
       5063    23 -103.086204 -103.086032    0.000172   9.511    0.00001    0.00004
       5064    24 -103.086205 -103.086033    0.000173   9.511    0.00001    0.00004
       5065    24 -103.086207 -103.086037    0.000170   9.511    0.00001    0.00004
       5066    24 -103.086208 -103.086044    0.000164   9.511    0.00001    0.00004
       5067    21 -103.086209 -103.086054    0.000155   9.511    0.00001    0.00003
       5068    21 -103.086210 -103.086067    0.000142   9.511    0.00001    0.00003
       5069    21 -103.086210 -103.086083    0.000128   9.511    0.00001    0.00002
       5070    21 -103.086211 -103.086100    0.000111   9.511    0.00001    0.00002
       5071    23 -103.086212 -103.086119    0.000093   9.511    0.00001    0.00002
       5072    24 -103.086212 -103.086139    0.000073   9.511    0.00001    0.00001
       5073    23 -103.086212 -103.086160    0.000052   9.511    0.00001    0.00001
       5074    24 -103.086212 -103.086181    0.000031   9.511    0.00001    0.00001
       5075    24 -103.086212 -103.086202    0.000010   9.511    0.00001    0.00002
       5076    24 -103.086212 -103.086222    0.000011   9.511    0.00001    0.00002
       5077    23 -103.086211 -103.086242    0.000031   9.511    0.00001    0.00002
       5078    21 -103.086211 -103.086260    0.000049   9.511    0.00000    0.00003
       5079    21 -103.086210 -103.086277    0.000067   9.511    0.00000    0.00003
       5080    24 -103.086209 -103.086291    0.000082   9.511    0.00000    0.00003
       5081    24 -103.086209 -103.086303    0.000095   9.511    0.00000    0.00003
       5082    24 -103.086208 -103.086313    0.000105   9.511    0.00000    0.00003
       5083    24 -103.086207 -103.086320    0.000113   9.511    0.00001    0.00003
       5084    24 -103.086206 -103.086324    0.000118   9.511    0.00001    0.00003
       5085    24 -103.086205 -103.086326    0.000121   9.511    0.00001    0.00003
       5086    24 -103.086204 -103.086325    0.000120   9.511    0.00001    0.00003
       5087    24 -103.086203 -103.086321    0.000117   9.511    0.00001    0.00002
       5088    24 -103.086203 -103.086315    0.000112   9.511    0.00001    0.00002
       5089    24 -103.086202 -103.086306    0.000104   9.511    0.00001    0.00002
       5090    24 -103.086201 -103.086296    0.000095   9.511    0.00001    0.00002
       5091    24 -103.086201 -103.086285    0.000084   9.511    0.00001    0.00001
       5092    24 -103.086201 -103.086272    0.000071   9.511    0.00001    0.00001
       5093    24 -103.086200 -103.086258    0.000058   9.511    0.00001    0.00001
       5094    24 -103.086200 -103.086244    0.000044   9.511    0.00001    0.00001
       5095    24 -103.086200 -103.086230    0.000030   9.511    0.00001    0.00001
       5096    24 -103.086200 -103.086216    0.000015   9.511    0.00001    0.00001
       5097    24 -103.086201 -103.086202    0.000002   9.511    0.00001    0.00001
       5098    24 -103.086201 -103.086190    0.000011   9.511    0.00001    0.00002
       5099    23 -103.086201 -103.086178    0.000023   9.511    0.00001    0.00002
       5100    24 -103.086202 -103.086168    0.000034   9.511    0.00001    0.00002
       5101    23 -103.086202 -103.086159    0.000043   9.511    0.00001    0.00002
       5102    24 -103.086203 -103.086152    0.000051   9.511    0.00001    0.00002
       5103    24 -103.086203 -103.086146    0.000057   9.511    0.00001    0.00002
       5104    24 -103.086204 -103.086142    0.000062   9.511    0.00001    0.00002
       5105    24 -103.086204 -103.086139    0.000065   9.511    0.00001    0.00002
       5106    25 -103.086205 -103.086138    0.000066   9.511    0.00001    0.00002
       5107    24 -103.086205 -103.086138    0.000067   9.511    0.00001    0.00002
       5108    24 -103.086205 -103.086140    0.000065   9.511    0.00001    0.00002
       5109    24 -103.086206 -103.086143    0.000063   9.511    0.00001    0.00002
       5110    24 -103.086206 -103.086147    0.000059   9.511    0.00001    0.00001
       5111    24 -103.086206 -103.086152    0.000054   9.511    0.00001    0.00001
       5112    25 -103.086207 -103.086158    0.000049   9.511    0.00001    0.00001
       5113    24 -103.086207 -103.086164    0.000043   9.511    0.00001    0.00001
       5114    24 -103.086207 -103.086170    0.000037   9.511    0.00001    0.00001
       5115    24 -103.086207 -103.086176    0.000030   9.511    0.00000    0.00001
       5116    24 -103.086207 -103.086183    0.000024   9.511    0.00000    0.00001
       5117    24 -103.086207 -103.086189    0.000018   9.511    0.00000    0.00001
       5118    24 -103.086206 -103.086195    0.000012   9.511    0.00000    0.00001
       5119    24 -103.086206 -103.086200    0.000006   9.511    0.00000    0.00001
       5120    24 -103.086206 -103.086205    0.000001   9.511    0.00000    0.00001
       5121    24 -103.086206 -103.086209    0.000003   9.511    0.00000    0.00001
       5122    24 -103.086206 -103.086212    0.000007   9.511    0.00001    0.00002
       5123    24 -103.086205 -103.086215    0.000010   9.511    0.00001    0.00002
       5124    24 -103.086205 -103.086217    0.000012   9.511    0.00001    0.00002
       5125    24 -103.086205 -103.086218    0.000013   9.511    0.00001    0.00002
       5126    24 -103.086205 -103.086219    0.000014   9.511    0.00001    0.00001
       5127    24 -103.086204 -103.086218    0.000014   9.511    0.00001    0.00001
       5128    24 -103.086204 -103.086217    0.000013   9.511    0.00001    0.00001
       5129    24 -103.086204 -103.086216    0.000012   9.511    0.00001    0.00001
       5130    24 -103.086204 -103.086214    0.000010   9.511    0.00001    0.00001
       5131    24 -103.086204 -103.086211    0.000008   9.511    0.00001    0.00001
       5132    24 -103.086203 -103.086208    0.000005   9.511    0.00001    0.00001
       5133    24 -103.086203 -103.086205    0.000002   9.511    0.00001    0.00001
       5134    24 -103.086203 -103.086202    0.000001   9.511    0.00001    0.00001
       5135    24 -103.086203 -103.086199    0.000004   9.511    0.00001    0.00000
       5136    25 -103.086203 -103.086196    0.000008   9.511    0.00001    0.00000
       5137    24 -103.086203 -103.086193    0.000011   9.511    0.00001    0.00001
       5138    24 -103.086204 -103.086190    0.000014   9.511    0.00001    0.00001
       5139    24 -103.086204 -103.086187    0.000016   9.511    0.00001    0.00001
       5140    24 -103.086204 -103.086185    0.000019   9.511    0.00001    0.00001
       5141    24 -103.086204 -103.086183    0.000021   9.511    0.00001    0.00001
       5142    24 -103.086204 -103.086182    0.000022   9.511    0.00001    0.00001
       5143    24 -103.086204 -103.086181    0.000023   9.511    0.00001    0.00001
       5144    24 -103.086205 -103.086181    0.000024   9.511    0.00001    0.00001
       5145    23 -103.086205 -103.086181    0.000024   9.511    0.00001    0.00001
       5146    24 -103.086205 -103.086182    0.000023   9.511    0.00001    0.00001
       5147    23 -103.086205 -103.086183    0.000022   9.511    0.00001    0.00001
       5148    21 -103.086205 -103.086185    0.000021   9.511    0.00001    0.00001
       5149    24 -103.086205 -103.086187    0.000019   9.511    0.00001    0.00001
       5150    20 -103.086206 -103.086189    0.000016   9.511    0.00001    0.00001
       5151    24 -103.086206 -103.086192    0.000013   9.511    0.00001    0.00001
       5152    19 -103.086206 -103.086195    0.000011   9.511    0.00001    0.00001
       5153    24 -103.086206 -103.086199    0.000007   9.511    0.00001    0.00001
       5154    21 -103.086206 -103.086202    0.000004   9.511    0.00000    0.00001
       5155    24 -103.086206 -103.086205    0.000001   9.511    0.00000    0.00000

        ==> Orbital Optimization <==

            Orbital Optimization converged in  12 iterations 
            Total energy change: -6.546941e-10
            Final gradient norm: 8.915105e-07


      v2RDM iterations converged!

      v2RDM total spin [S(S+1)]:            -0.000001
    * v2RDM total energy:           -103.086205775772


 # Natural Orbital Occupation Numbers (alpha) #
 Irrep: 1
      1:  1.0000000
      2:  1.0000000
      3:  0.9980393
      4:  0.0000000
      5:  0.0000000
      6:  0.0000000
      7:  0.0000000

 Irrep: 2
      1:  0.0000000

 Irrep: 3
      1:  0.0042515
      2:  0.0000000
      3:  0.0000000

 Irrep: 4
      1:  0.0042515
      2:  0.0000000
      3:  0.0000000

 Irrep: 5
      1:  0.0000000

 Irrep: 6
      1:  1.0000000
      2:  1.0000000
      3:  0.0016437
      4:  0.0000000
      5:  0.0000000
      6:  0.0000000
      7:  0.0000000

 Irrep: 7
      1:  0.9959071
      2:  0.0000000
      3:  0.0000000

 Irrep: 8
      1:  0.9959071
      2:  0.0000000
      3:  0.0000000


 # Natural Orbital Occupation Numbers (beta) #
 Irrep: 1
      1:  1.0000000
      2:  1.0000000
      3:  0.9980393
      4:  0.0000000
      5:  0.0000000
      6:  0.0000000
      7:  0.0000000

 Irrep: 2
      1:  0.0000000

 Irrep: 3
      1:  0.0042515
      2:  0.0000000
      3:  0.0000000

 Irrep: 4
      1:  0.0042515
      2:  0.0000000
      3:  0.0000000

 Irrep: 5
      1:  0.0000000

 Irrep: 6
      1:  1.0000000
      2:  1.0000000
      3:  0.0016437
      4:  0.0000000
      5:  0.0000000
      6:  0.0000000
      7:  0.0000000

 Irrep: 7
      1:  0.9959071
      2:  0.0000000
      3:  0.0000000

 Irrep: 8
      1:  0.9959071
      2:  0.0000000
      3:  0.0000000


  ==> Iteration count <==

      Microiterations:                  126172
      Macroiterations:                    5156
      Orbital optimization steps:           11

  ==> Wall time <==

      Microiterations:                    7.37 s
      Macroiterations:                    3.88 s
      Orbital optimization:               1.35 s
      Total:                             13.02 s


*** tstop() called on psinet at Thu Nov 23 03:50:32 2017
Module time:
	user time   =      13.01 seconds =       0.22 minutes
	system time =       0.04 seconds =       0.00 minutes
	total time  =         13 seconds =       0.22 minutes
Total time:
	user time   =      13.74 seconds =       0.23 minutes
	system time =       0.07 seconds =       0.00 minutes
	total time  =         14 seconds =       0.23 minutes
	SCF total energy..................................................PASSED
	v2RDM-CASSCF total energy.........................................PASSED

*** Psi4 exiting successfully. Buy a developer a beer!
