
    -----------------------------------------------------------------------
          Psi4: An Open-Source Ab Initio Electronic Structure Package
                               Psi4 (inplace)

                         Git: Rev (inplace)


    R. M. Parrish, L. A. Burns, D. G. A. Smith, A. C. Simmonett,
    A. E. DePrince III, E. G. Hohenstein, U. Bozkaya, A. Yu. Sokolov,
    R. Di Remigio, R. M. Richard, J. F. Gonthier, A. M. James,
    H. R. McAlexander, A. Kumar, M. Saitow, X. Wang, B. P. Pritchard,
    P. Verma, H. F. Schaefer III, K. Patkowski, R. A. King, E. F. Valeev,
    F. A. Evangelista, J. M. Turney, T. D. Crawford, and C. D. Sherrill,
    J. Chem. Theory Comput. 13(7) pp 3185--3197 (2017).
    (doi: 10.1021/acs.jctc.7b00174)

    -----------------------------------------------------------------------


    Psi4 started on: Wednesday, 13 June 2018 08:16PM

    Process ID: 73936
    Host:       Daniels-MacBook-Pro.local
    PSIDATADIR: /Users/daniel/Gits/psi4ds/psi4/share/psi4
    Memory:     500.0 MiB
    Threads:    1
    
  ==> Input File <==

--------------------------------------------------------------------------
#! Tests CAM gradients with and without XC pieces to narrow grid error

func_reference = psi4.Matrix.from_list([                         #TEST
       [   0.000000000000,  -0.000000000000,  -0.052360092488],  #TEST
       [  -0.000000000000,   0.000000000000,   0.052360092488]]) #TEST
cam_b3lyp_reference = psi4.Matrix.from_list([                    #TEST
       [   0.000000000000,  -0.000000000000,  -0.109138077779],  #TEST
       [   0.000000000000,  -0.000000000000,   0.109137316634]]) #TEST

molecule {
    H  0.000  0.000  0.000
    F  0.000  0.000  1.100
}


set {
    scf_type              df
    basis                 cc-pvdz
    dft_radial_points     120
    dft_spherical_points  434
    e_convergence         12
    d_convergence         12
    points 5
}

func = {
    "name": "random",
    "x_hf": {
        "alpha": 0.6,
        "beta": 0.9,
        "omega": 0.2
    },
}

anl_grad = gradient('scf', dft_functional=func, dertype=1)
fd_grad = gradient('scf', dft_functional=func, dertype=0)
compare_matrices(func_reference, anl_grad, 6, "Analytic vs Reference CAM-like Gradients")    #TEST
compare_matrices(anl_grad, fd_grad, 6, "Analytic vs FD CAM Gradients")    #TEST

anl_grad = gradient('scf', dft_functional="CAM-B3LYP", dertype=1)
fd_grad = gradient('scf', dft_functional="CAM-B3LYP", dertype=0)
compare_matrices(cam_b3lyp_reference, anl_grad, 6, "Analytic vs Reference CAM Gradients")    #TEST
compare_matrices(anl_grad, fd_grad, 5, "Analytic vs FD CAM Gradients")    #TEST

--------------------------------------------------------------------------
gradient() will perform analytic gradient computation.

*** tstart() called on Daniels-MacBook-Pro.local
*** at Wed Jun 13 20:16:01 2018

   => Loading Basis Set <=

    Name: CC-PVDZ
    Role: ORBITAL
    Keyword: BASIS
    atoms 1 entry H          line    22 file /Users/daniel/Gits/psi4ds/psi4/share/psi4/basis/cc-pvdz.gbs 
    atoms 2 entry F          line   228 file /Users/daniel/Gits/psi4ds/psi4/share/psi4/basis/cc-pvdz.gbs 

    There are an even number of electrons - assuming singlet.
    Specify the multiplicity in the molecule input block.


         ---------------------------------------------------------
                                   SCF
            by Justin Turney, Rob Parrish, Andy Simmonett
                             and Daniel Smith
                              RKS Reference
                        1 Threads,    500 MiB Core
         ---------------------------------------------------------

  ==> Geometry <==

    Molecular point group: c2v
    Full point group: C_inf_v

    Geometry (in Angstrom), charge = 0, multiplicity = 1:

       Center              X                  Y                   Z               Mass       
    ------------   -----------------  -----------------  -----------------  -----------------
         H            0.000000000000     0.000000000000    -1.044586879591     1.007825032070
         F            0.000000000000     0.000000000000     0.055413120409    18.998403224000

  Running in c2v symmetry.

  Rotational constants: A = ************  B =     14.55707  C =     14.55707 [cm^-1]
  Rotational constants: A = ************  B = 436410.11018  C = 436410.11018 [MHz]
  Nuclear repulsion =    4.329631706645454

  Charge       = 0
  Multiplicity = 1
  Electrons    = 10
  Nalpha       = 5
  Nbeta        = 5

  ==> Algorithm <==

  SCF Algorithm Type is DF.
  DIIS enabled.
  MOM disabled.
  Fractional occupation disabled.
  Guess Type is SAD.
  Energy threshold   = 1.00e-12
  Density threshold  = 1.00e-12
  Integral threshold = 0.00e+00

  ==> Primary Basis <==

  Basis Set: CC-PVDZ
    Blend: CC-PVDZ
    Number of shells: 9
    Number of basis function: 19
    Number of Cartesian functions: 20
    Spherical Harmonics?: true
    Max angular momentum: 2

   => Loading Basis Set <=

    Name: (CC-PVDZ AUX)
    Role: JKFIT
    Keyword: DF_BASIS_SCF
    atoms 1 entry H          line    51 file /Users/daniel/Gits/psi4ds/psi4/share/psi4/basis/cc-pvdz-jkfit.gbs 
    atoms 2 entry F          line   271 file /Users/daniel/Gits/psi4ds/psi4/share/psi4/basis/cc-pvdz-jkfit.gbs 

  ==> Pre-Iterations <==

   -------------------------------------------------------
    Irrep   Nso     Nmo     Nalpha   Nbeta   Ndocc  Nsocc
   -------------------------------------------------------
     A1        10      10       0       0       0       0
     A2         1       1       0       0       0       0
     B1         4       4       0       0       0       0
     B2         4       4       0       0       0       0
   -------------------------------------------------------
    Total      19      19       5       5       5       0
   -------------------------------------------------------

  ==> Integral Setup <==

  ==> DiskDFJK: Density-Fitted J/K Matrices <==

    J tasked:                  Yes
    K tasked:                  Yes
    wK tasked:                 Yes
    Omega:               2.000E-01
    OpenMP threads:              1
    Integrals threads:           1
    Memory (MB):               375
    Algorithm:                Core
    Integral Cache:           NONE
    Schwarz Cutoff:          1E-12
    Fitting Condition:       1E-12

   => Auxiliary Basis Set <=

  Basis Set: (CC-PVDZ AUX)
    Blend: CC-PVDZ-JKFIT
    Number of shells: 33
    Number of basis function: 93
    Number of Cartesian functions: 106
    Spherical Harmonics?: true
    Max angular momentum: 3

  Minimum eigenvalue in the overlap matrix is 7.4937690937E-02.
  Using Symmetric Orthogonalization.

  SCF Guess: Superposition of Atomic Densities via on-the-fly atomic UHF.

  ==> Iterations <==

                           Total Energy        Delta E     RMS |[F,P]|

   @DF-RKS iter   0:   -96.69766051859504   -9.66977e+01   8.15021e-02 
   @DF-RKS iter   1:   -96.85116082891491   -1.53500e-01   1.90770e-02 
   @DF-RKS iter   2:   -96.87999141366835   -2.88306e-02   4.42583e-03 DIIS
   @DF-RKS iter   3:   -96.88149025971879   -1.49885e-03   1.46503e-03 DIIS
   @DF-RKS iter   4:   -96.88174905414076   -2.58794e-04   5.56572e-04 DIIS
   @DF-RKS iter   5:   -96.88177160905069   -2.25549e-05   2.65627e-04 DIIS
   @DF-RKS iter   6:   -96.88177612009488   -4.51104e-06   1.84300e-05 DIIS
   @DF-RKS iter   7:   -96.88177617407784   -5.39830e-08   2.20630e-06 DIIS
   @DF-RKS iter   8:   -96.88177617457455   -4.96712e-10   1.33739e-07 DIIS
   @DF-RKS iter   9:   -96.88177617457583   -1.27898e-12   1.23042e-08 DIIS
   @DF-RKS iter  10:   -96.88177617457582    1.42109e-14   1.14416e-09 DIIS
   @DF-RKS iter  11:   -96.88177617457576    5.68434e-14   1.15720e-10 DIIS
   @DF-RKS iter  12:   -96.88177617457580   -4.26326e-14   7.86417e-12 DIIS
   @DF-RKS iter  13:   -96.88177617457579    1.42109e-14   7.77408e-13 DIIS

  ==> Post-Iterations <==

    Orbital Energies [Eh]
    ---------------------

    Doubly Occupied:                                                      

       1A1   -24.640199     2A1    -1.300098     3A1    -0.578951  
       1B1    -0.481353     1B2    -0.481353  

    Virtual:                                                              

       4A1     0.172634     5A1     0.719109     2B2     1.384830  
       2B1     1.384830     6A1     1.497326     3B1     1.646535  
       3B2     1.646535     7A1     2.040388     8A1     2.247063  
       1A2     4.018631     9A1     4.018631     4B1     4.123888  
       4B2     4.123888    10A1     4.754458  

    Final Occupation by Irrep:
             A1    A2    B1    B2 
    DOCC [     3,    0,    1,    1 ]

  Energy converged.

  @DF-RKS Final Energy:   -96.88177617457579

   => Energetics <=

    Nuclear Repulsion Energy =              4.3296317066454542
    One-Electron Energy =                -147.4589088249204565
    Two-Electron Energy =                  46.2475009436992224
    Total Energy =                        -96.8817761745757906



Properties will be evaluated at   0.000000,   0.000000,   0.000000 [a0]

Properties computed using the SCF density matrix

  Nuclear Dipole Moment: [e a0]
     X:     0.0000      Y:     0.0000      Z:    -1.0315

  Electronic Dipole Moment: [e a0]
     X:     0.0000      Y:     0.0000      Z:     0.3280

  Dipole Moment: [e a0]
     X:     0.0000      Y:     0.0000      Z:    -0.7036     Total:     0.7036

  Dipole Moment: [D]
     X:     0.0000      Y:     0.0000      Z:    -1.7883     Total:     1.7883


*** tstop() called on Daniels-MacBook-Pro.local at Wed Jun 13 20:16:01 2018
Module time:
	user time   =       0.45 seconds =       0.01 minutes
	system time =       0.02 seconds =       0.00 minutes
	total time  =          0 seconds =       0.00 minutes
Total time:
	user time   =       0.45 seconds =       0.01 minutes
	system time =       0.02 seconds =       0.00 minutes
	total time  =          0 seconds =       0.00 minutes

*** tstart() called on Daniels-MacBook-Pro.local
*** at Wed Jun 13 20:16:01 2018


         ------------------------------------------------------------
                                   SCF GRAD                          
                          Rob Parrish, Justin Turney,                
                       Andy Simmonett, and Alex Sokolov              
         ------------------------------------------------------------

  ==> Geometry <==

    Molecular point group: c2v
    Full point group: C_inf_v

    Geometry (in Angstrom), charge = 0, multiplicity = 1:

       Center              X                  Y                   Z               Mass       
    ------------   -----------------  -----------------  -----------------  -----------------
         H            0.000000000000     0.000000000000    -1.044586879591     1.007825032070
         F            0.000000000000     0.000000000000     0.055413120409    18.998403224000

  Nuclear repulsion =    4.329631706645454

  ==> Basis Set <==

  Basis Set: CC-PVDZ
    Blend: CC-PVDZ
    Number of shells: 9
    Number of basis function: 19
    Number of Cartesian functions: 20
    Spherical Harmonics?: true
    Max angular momentum: 2

  ==> DFJKGrad: Density-Fitted SCF Gradients <==

    Gradient:                    1
    J tasked:                  Yes
    K tasked:                  Yes
    wK tasked:                 Yes
    Omega:               2.000E-01
    OpenMP threads:              1
    Integrals threads:           1
    Memory (MB):               375
    Schwarz Cutoff:          0E+00
    Fitting Condition:       1E-12

   => Auxiliary Basis Set <=

  Basis Set: (CC-PVDZ AUX)
    Blend: CC-PVDZ-JKFIT
    Number of shells: 33
    Number of basis function: 93
    Number of Cartesian functions: 106
    Spherical Harmonics?: true
    Max angular momentum: 3


  -Total Gradient:
     Atom            X                  Y                   Z
    ------   -----------------  -----------------  -----------------
       1        0.000000000000    -0.000000000000    -0.052360092486
       2       -0.000000000000     0.000000000000     0.052360092486


*** tstop() called on Daniels-MacBook-Pro.local at Wed Jun 13 20:16:02 2018
Module time:
	user time   =       0.18 seconds =       0.00 minutes
	system time =       0.01 seconds =       0.00 minutes
	total time  =          1 seconds =       0.02 minutes
Total time:
	user time   =       0.63 seconds =       0.01 minutes
	system time =       0.03 seconds =       0.00 minutes
	total time  =          1 seconds =       0.02 minutes
gradient() will perform gradient computation by finite difference of analytic energies.

-------------------------------------------------------------

  Using finite-differences of energies to determine gradients (fd_geoms_1_0).
	Generating geometries for use with 5-point formula.
	Displacement size will be 5.00e-03.
	Number of atoms is 2.
	Number of symmetric SALC's is 1.
	Number of displacements (including reference) is 5.
	Translations projected? 1. Rotations projected? 1.

-------------------------------------------------------------

  //>>>>>>>>>>>>>>>>>>>>>>>>>>>>>>>>>>>//
  //    Loading displacement 1 of 5    //
  //<<<<<<<<<<<<<<<<<<<<<<<<<<<<<<<<<<<//

*** tstart() called on Daniels-MacBook-Pro.local
*** at Wed Jun 13 20:16:02 2018

   => Loading Basis Set <=

    Name: CC-PVDZ
    Role: ORBITAL
    Keyword: BASIS
    atoms 1 entry H          line    22 file /Users/daniel/Gits/psi4ds/psi4/share/psi4/basis/cc-pvdz.gbs 
    atoms 2 entry F          line   228 file /Users/daniel/Gits/psi4ds/psi4/share/psi4/basis/cc-pvdz.gbs 


         ---------------------------------------------------------
                                   SCF
            by Justin Turney, Rob Parrish, Andy Simmonett
                             and Daniel Smith
                              RKS Reference
                        1 Threads,    500 MiB Core
         ---------------------------------------------------------

  ==> Geometry <==

    Molecular point group: c2v
    Full point group: C_inf_v

    Geometry (in Angstrom), charge = 0, multiplicity = 1:

       Center              X                  Y                   Z               Mass       
    ------------   -----------------  -----------------  -----------------  -----------------
         H            0.000000000000     0.000000000000    -1.049723583128     1.007825032070
         F            0.000000000000     0.000000000000     0.055685611646    18.998403224000

  Running in c2v symmetry.

  Rotational constants: A = ************  B =     14.41496  C =     14.41496 [cm^-1]
  Rotational constants: A = ************  B = 432149.51317  C = 432149.51317 [MHz]
  Nuclear repulsion =    4.308445143955978

  Charge       = 0
  Multiplicity = 1
  Electrons    = 10
  Nalpha       = 5
  Nbeta        = 5

  ==> Algorithm <==

  SCF Algorithm Type is DF.
  DIIS enabled.
  MOM disabled.
  Fractional occupation disabled.
  Guess Type is SAD.
  Energy threshold   = 1.00e-12
  Density threshold  = 1.00e-12
  Integral threshold = 0.00e+00

  ==> Primary Basis <==

  Basis Set: CC-PVDZ
    Blend: CC-PVDZ
    Number of shells: 9
    Number of basis function: 19
    Number of Cartesian functions: 20
    Spherical Harmonics?: true
    Max angular momentum: 2

   => Loading Basis Set <=

    Name: (CC-PVDZ AUX)
    Role: JKFIT
    Keyword: DF_BASIS_SCF
    atoms 1 entry H          line    51 file /Users/daniel/Gits/psi4ds/psi4/share/psi4/basis/cc-pvdz-jkfit.gbs 
    atoms 2 entry F          line   271 file /Users/daniel/Gits/psi4ds/psi4/share/psi4/basis/cc-pvdz-jkfit.gbs 

  ==> Pre-Iterations <==

   -------------------------------------------------------
    Irrep   Nso     Nmo     Nalpha   Nbeta   Ndocc  Nsocc
   -------------------------------------------------------
     A1        10      10       0       0       0       0
     A2         1       1       0       0       0       0
     B1         4       4       0       0       0       0
     B2         4       4       0       0       0       0
   -------------------------------------------------------
    Total      19      19       5       5       5       0
   -------------------------------------------------------

  ==> Integral Setup <==

  ==> DiskDFJK: Density-Fitted J/K Matrices <==

    J tasked:                  Yes
    K tasked:                  Yes
    wK tasked:                 Yes
    Omega:               2.000E-01
    OpenMP threads:              1
    Integrals threads:           1
    Memory (MB):               375
    Algorithm:                Core
    Integral Cache:           NONE
    Schwarz Cutoff:          1E-12
    Fitting Condition:       1E-12

   => Auxiliary Basis Set <=

  Basis Set: (CC-PVDZ AUX)
    Blend: CC-PVDZ-JKFIT
    Number of shells: 33
    Number of basis function: 93
    Number of Cartesian functions: 106
    Spherical Harmonics?: true
    Max angular momentum: 3

  Minimum eigenvalue in the overlap matrix is 7.5761064583E-02.
  Using Symmetric Orthogonalization.

  SCF Guess: Superposition of Atomic Densities via on-the-fly atomic UHF.

  ==> Iterations <==

                           Total Energy        Delta E     RMS |[F,P]|

   @DF-RKS iter   0:   -96.59925040960192   -9.65993e+01   7.97566e-02 
   @DF-RKS iter   1:   -96.86549672063126   -2.66246e-01   1.93056e-02 
   @DF-RKS iter   2:   -96.87407312722011   -8.57641e-03   1.38170e-02 DIIS
   @DF-RKS iter   3:   -96.88108985969558   -7.01673e-03   1.27441e-03 DIIS
   @DF-RKS iter   4:   -96.88120896035780   -1.19101e-04   4.06559e-04 DIIS
   @DF-RKS iter   5:   -96.88122915739504   -2.01970e-05   5.93097e-05 DIIS
   @DF-RKS iter   6:   -96.88122958945802   -4.32063e-07   6.00672e-06 DIIS
   @DF-RKS iter   7:   -96.88122959331726   -3.85924e-09   4.62019e-07 DIIS
   @DF-RKS iter   8:   -96.88122959333337   -1.61151e-11   3.14758e-08 DIIS
   @DF-RKS iter   9:   -96.88122959333336    1.42109e-14   2.22527e-09 DIIS
   @DF-RKS iter  10:   -96.88122959333350   -1.42109e-13   1.77324e-10 DIIS
   @DF-RKS iter  11:   -96.88122959333337    1.27898e-13   2.61924e-11 DIIS
   @DF-RKS iter  12:   -96.88122959333340   -2.84217e-14   2.03603e-12 DIIS
   @DF-RKS iter  13:   -96.88122959333346   -5.68434e-14   2.68698e-13 DIIS

  ==> Post-Iterations <==

    Orbital Energies [Eh]
    ---------------------

    Doubly Occupied:                                                      

       1A1   -24.640594     2A1    -1.299341     3A1    -0.577839  
       1B1    -0.481256     1B2    -0.481256  

    Virtual:                                                              

       4A1     0.171438     5A1     0.716248     2B1     1.383400  
       2B2     1.383400     6A1     1.499393     3B1     1.646925  
       3B2     1.646925     7A1     2.031144     8A1     2.247283  
       9A1     4.018725     1A2     4.018725     4B1     4.120518  
       4B2     4.120518    10A1     4.745844  

    Final Occupation by Irrep:
             A1    A2    B1    B2 
    DOCC [     3,    0,    1,    1 ]

  Energy converged.

  @DF-RKS Final Energy:   -96.88122959333346

   => Energetics <=

    Nuclear Repulsion Energy =              4.3084451439559777
    One-Electron Energy =                -147.4187754038740650
    Two-Electron Energy =                  46.2291006665846496
    Total Energy =                        -96.8812295933334440



Properties will be evaluated at   0.000000,   0.000000,   0.000000 [a0]

Properties computed using the SCF density matrix

  Nuclear Dipole Moment: [e a0]
     X:     0.0000      Y:     0.0000      Z:    -1.0366

  Electronic Dipole Moment: [e a0]
     X:     0.0000      Y:     0.0000      Z:     0.3323

  Dipole Moment: [e a0]
     X:     0.0000      Y:     0.0000      Z:    -0.7044     Total:     0.7044

  Dipole Moment: [D]
     X:     0.0000      Y:     0.0000      Z:    -1.7903     Total:     1.7903


*** tstop() called on Daniels-MacBook-Pro.local at Wed Jun 13 20:16:02 2018
Module time:
	user time   =       0.46 seconds =       0.01 minutes
	system time =       0.02 seconds =       0.00 minutes
	total time  =          0 seconds =       0.00 minutes
Total time:
	user time   =       1.11 seconds =       0.02 minutes
	system time =       0.05 seconds =       0.00 minutes
	total time  =          1 seconds =       0.02 minutes

  //>>>>>>>>>>>>>>>>>>>>>>>>>>>>>>>>>>>//
  //    Loading displacement 2 of 5    //
  //<<<<<<<<<<<<<<<<<<<<<<<<<<<<<<<<<<<//

*** tstart() called on Daniels-MacBook-Pro.local
*** at Wed Jun 13 20:16:02 2018

   => Loading Basis Set <=

    Name: CC-PVDZ
    Role: ORBITAL
    Keyword: BASIS
    atoms 1 entry H          line    22 file /Users/daniel/Gits/psi4ds/psi4/share/psi4/basis/cc-pvdz.gbs 
    atoms 2 entry F          line   228 file /Users/daniel/Gits/psi4ds/psi4/share/psi4/basis/cc-pvdz.gbs 


         ---------------------------------------------------------
                                   SCF
            by Justin Turney, Rob Parrish, Andy Simmonett
                             and Daniel Smith
                              RKS Reference
                        1 Threads,    500 MiB Core
         ---------------------------------------------------------

  ==> Geometry <==

    Molecular point group: c2v
    Full point group: C_inf_v

    Geometry (in Angstrom), charge = 0, multiplicity = 1:

       Center              X                  Y                   Z               Mass       
    ------------   -----------------  -----------------  -----------------  -----------------
         H            0.000000000000     0.000000000000    -1.047155231360     1.007825032070
         F            0.000000000000     0.000000000000     0.055549366027    18.998403224000

  Running in c2v symmetry.

  Rotational constants: A = ************  B =     14.48575  C =     14.48575 [cm^-1]
  Rotational constants: A = ************  B = 434271.97423  C = 434271.97423 [MHz]
  Nuclear repulsion =    4.319012443218919

  Charge       = 0
  Multiplicity = 1
  Electrons    = 10
  Nalpha       = 5
  Nbeta        = 5

  ==> Algorithm <==

  SCF Algorithm Type is DF.
  DIIS enabled.
  MOM disabled.
  Fractional occupation disabled.
  Guess Type is SAD.
  Energy threshold   = 1.00e-12
  Density threshold  = 1.00e-12
  Integral threshold = 0.00e+00

  ==> Primary Basis <==

  Basis Set: CC-PVDZ
    Blend: CC-PVDZ
    Number of shells: 9
    Number of basis function: 19
    Number of Cartesian functions: 20
    Spherical Harmonics?: true
    Max angular momentum: 2

   => Loading Basis Set <=

    Name: (CC-PVDZ AUX)
    Role: JKFIT
    Keyword: DF_BASIS_SCF
    atoms 1 entry H          line    51 file /Users/daniel/Gits/psi4ds/psi4/share/psi4/basis/cc-pvdz-jkfit.gbs 
    atoms 2 entry F          line   271 file /Users/daniel/Gits/psi4ds/psi4/share/psi4/basis/cc-pvdz-jkfit.gbs 

  ==> Pre-Iterations <==

   -------------------------------------------------------
    Irrep   Nso     Nmo     Nalpha   Nbeta   Ndocc  Nsocc
   -------------------------------------------------------
     A1        10      10       0       0       0       0
     A2         1       1       0       0       0       0
     B1         4       4       0       0       0       0
     B2         4       4       0       0       0       0
   -------------------------------------------------------
    Total      19      19       5       5       5       0
   -------------------------------------------------------

  ==> Integral Setup <==

  ==> DiskDFJK: Density-Fitted J/K Matrices <==

    J tasked:                  Yes
    K tasked:                  Yes
    wK tasked:                 Yes
    Omega:               2.000E-01
    OpenMP threads:              1
    Integrals threads:           1
    Memory (MB):               375
    Algorithm:                Core
    Integral Cache:           NONE
    Schwarz Cutoff:          1E-12
    Fitting Condition:       1E-12

   => Auxiliary Basis Set <=

  Basis Set: (CC-PVDZ AUX)
    Blend: CC-PVDZ-JKFIT
    Number of shells: 33
    Number of basis function: 93
    Number of Cartesian functions: 106
    Spherical Harmonics?: true
    Max angular momentum: 3

  Minimum eigenvalue in the overlap matrix is 7.5349080281E-02.
  Using Symmetric Orthogonalization.

  SCF Guess: Superposition of Atomic Densities via on-the-fly atomic UHF.

  ==> Iterations <==

                           Total Energy        Delta E     RMS |[F,P]|

   @DF-RKS iter   0:   -96.60840750925578   -9.66084e+01   8.00106e-02 
   @DF-RKS iter   1:   -96.86411351243946   -2.55706e-01   1.99440e-02 
   @DF-RKS iter   2:   -96.87330126966279   -9.18776e-03   1.47744e-02 DIIS
   @DF-RKS iter   3:   -96.88133472358658   -8.03345e-03   1.22947e-03 DIIS
   @DF-RKS iter   4:   -96.88147744764288   -1.42724e-04   4.81178e-04 DIIS
   @DF-RKS iter   5:   -96.88150534315743   -2.78955e-05   5.27619e-05 DIIS
   @DF-RKS iter   6:   -96.88150570298050   -3.59823e-07   5.85749e-06 DIIS
   @DF-RKS iter   7:   -96.88150570651391   -3.53340e-09   4.14205e-07 DIIS
   @DF-RKS iter   8:   -96.88150570652628   -1.23777e-11   3.62715e-08 DIIS
   @DF-RKS iter   9:   -96.88150570652641   -1.27898e-13   2.02115e-09 DIIS
   @DF-RKS iter  10:   -96.88150570652630    1.13687e-13   1.30329e-10 DIIS
   @DF-RKS iter  11:   -96.88150570652637   -7.10543e-14   1.49939e-11 DIIS
   @DF-RKS iter  12:   -96.88150570652635    1.42109e-14   8.68694e-13 DIIS

  ==> Post-Iterations <==

    Orbital Energies [Eh]
    ---------------------

    Doubly Occupied:                                                      

       1A1   -24.640396     2A1    -1.299718     3A1    -0.578394  
       1B2    -0.481304     1B1    -0.481304  

    Virtual:                                                              

       4A1     0.172037     5A1     0.717671     2B2     1.384111  
       2B1     1.384111     6A1     1.498359     3B2     1.646733  
       3B1     1.646733     7A1     2.035773     8A1     2.247152  
       1A2     4.018679     9A1     4.018679     4B1     4.122196  
       4B2     4.122196    10A1     4.750153  

    Final Occupation by Irrep:
             A1    A2    B1    B2 
    DOCC [     3,    0,    1,    1 ]

  Energy converged.

  @DF-RKS Final Energy:   -96.88150570652635

   => Energetics <=

    Nuclear Repulsion Energy =              4.3190124432189192
    One-Electron Energy =                -147.4388039185845116
    Two-Electron Energy =                  46.2382857688392264
    Total Energy =                        -96.8815057065263545



Properties will be evaluated at   0.000000,   0.000000,   0.000000 [a0]

Properties computed using the SCF density matrix

  Nuclear Dipole Moment: [e a0]
     X:     0.0000      Y:     0.0000      Z:    -1.0341

  Electronic Dipole Moment: [e a0]
     X:     0.0000      Y:     0.0000      Z:     0.3301

  Dipole Moment: [e a0]
     X:     0.0000      Y:     0.0000      Z:    -0.7040     Total:     0.7040

  Dipole Moment: [D]
     X:     0.0000      Y:     0.0000      Z:    -1.7893     Total:     1.7893


*** tstop() called on Daniels-MacBook-Pro.local at Wed Jun 13 20:16:03 2018
Module time:
	user time   =       0.44 seconds =       0.01 minutes
	system time =       0.01 seconds =       0.00 minutes
	total time  =          1 seconds =       0.02 minutes
Total time:
	user time   =       1.57 seconds =       0.03 minutes
	system time =       0.06 seconds =       0.00 minutes
	total time  =          2 seconds =       0.03 minutes

  //>>>>>>>>>>>>>>>>>>>>>>>>>>>>>>>>>>>//
  //    Loading displacement 3 of 5    //
  //<<<<<<<<<<<<<<<<<<<<<<<<<<<<<<<<<<<//

*** tstart() called on Daniels-MacBook-Pro.local
*** at Wed Jun 13 20:16:03 2018

   => Loading Basis Set <=

    Name: CC-PVDZ
    Role: ORBITAL
    Keyword: BASIS
    atoms 1 entry H          line    22 file /Users/daniel/Gits/psi4ds/psi4/share/psi4/basis/cc-pvdz.gbs 
    atoms 2 entry F          line   228 file /Users/daniel/Gits/psi4ds/psi4/share/psi4/basis/cc-pvdz.gbs 


         ---------------------------------------------------------
                                   SCF
            by Justin Turney, Rob Parrish, Andy Simmonett
                             and Daniel Smith
                              RKS Reference
                        1 Threads,    500 MiB Core
         ---------------------------------------------------------

  ==> Geometry <==

    Molecular point group: c2v
    Full point group: C_inf_v

    Geometry (in Angstrom), charge = 0, multiplicity = 1:

       Center              X                  Y                   Z               Mass       
    ------------   -----------------  -----------------  -----------------  -----------------
         H            0.000000000000     0.000000000000    -1.042018527823     1.007825032070
         F            0.000000000000     0.000000000000     0.055276874790    18.998403224000

  Running in c2v symmetry.

  Rotational constants: A = ************  B =     14.62892  C =     14.62892 [cm^-1]
  Rotational constants: A = ************  B = 438564.07574  C = 438564.07574 [MHz]
  Nuclear repulsion =    4.340303318477075

  Charge       = 0
  Multiplicity = 1
  Electrons    = 10
  Nalpha       = 5
  Nbeta        = 5

  ==> Algorithm <==

  SCF Algorithm Type is DF.
  DIIS enabled.
  MOM disabled.
  Fractional occupation disabled.
  Guess Type is SAD.
  Energy threshold   = 1.00e-12
  Density threshold  = 1.00e-12
  Integral threshold = 0.00e+00

  ==> Primary Basis <==

  Basis Set: CC-PVDZ
    Blend: CC-PVDZ
    Number of shells: 9
    Number of basis function: 19
    Number of Cartesian functions: 20
    Spherical Harmonics?: true
    Max angular momentum: 2

   => Loading Basis Set <=

    Name: (CC-PVDZ AUX)
    Role: JKFIT
    Keyword: DF_BASIS_SCF
    atoms 1 entry H          line    51 file /Users/daniel/Gits/psi4ds/psi4/share/psi4/basis/cc-pvdz-jkfit.gbs 
    atoms 2 entry F          line   271 file /Users/daniel/Gits/psi4ds/psi4/share/psi4/basis/cc-pvdz-jkfit.gbs 

  ==> Pre-Iterations <==

   -------------------------------------------------------
    Irrep   Nso     Nmo     Nalpha   Nbeta   Ndocc  Nsocc
   -------------------------------------------------------
     A1        10      10       0       0       0       0
     A2         1       1       0       0       0       0
     B1         4       4       0       0       0       0
     B2         4       4       0       0       0       0
   -------------------------------------------------------
    Total      19      19       5       5       5       0
   -------------------------------------------------------

  ==> Integral Setup <==

  ==> DiskDFJK: Density-Fitted J/K Matrices <==

    J tasked:                  Yes
    K tasked:                  Yes
    wK tasked:                 Yes
    Omega:               2.000E-01
    OpenMP threads:              1
    Integrals threads:           1
    Memory (MB):               375
    Algorithm:                Core
    Integral Cache:           NONE
    Schwarz Cutoff:          1E-12
    Fitting Condition:       1E-12

   => Auxiliary Basis Set <=

  Basis Set: (CC-PVDZ AUX)
    Blend: CC-PVDZ-JKFIT
    Number of shells: 33
    Number of basis function: 93
    Number of Cartesian functions: 106
    Spherical Harmonics?: true
    Max angular momentum: 3

  Minimum eigenvalue in the overlap matrix is 7.4526911201E-02.
  Using Symmetric Orthogonalization.

  SCF Guess: Superposition of Atomic Densities via on-the-fly atomic UHF.

  ==> Iterations <==

                           Total Energy        Delta E     RMS |[F,P]|

   @DF-RKS iter   0:   -96.60486975504088   -9.66049e+01   8.06453e-02 
   @DF-RKS iter   1:   -96.86621183089527   -2.61342e-01   1.93014e-02 
   @DF-RKS iter   2:   -96.87490876760715   -8.69694e-03   1.37966e-02 DIIS
   @DF-RKS iter   3:   -96.88189541052495   -6.98664e-03   1.27360e-03 DIIS
   @DF-RKS iter   4:   -96.88201888374975   -1.23473e-04   4.19637e-04 DIIS
   @DF-RKS iter   5:   -96.88204045912650   -2.15754e-05   5.82859e-05 DIIS
   @DF-RKS iter   6:   -96.88204088579621   -4.26670e-07   6.07883e-06 DIIS
   @DF-RKS iter   7:   -96.88204088977531   -3.97910e-09   4.51293e-07 DIIS
   @DF-RKS iter   8:   -96.88204088979045   -1.51346e-11   3.19090e-08 DIIS
   @DF-RKS iter   9:   -96.88204088979057   -1.27898e-13   2.16249e-09 DIIS
   @DF-RKS iter  10:   -96.88204088979053    4.26326e-14   1.68456e-10 DIIS
   @DF-RKS iter  11:   -96.88204088979055   -1.42109e-14   2.44833e-11 DIIS
   @DF-RKS iter  12:   -96.88204088979046    8.52651e-14   1.97974e-12 DIIS
   @DF-RKS iter  13:   -96.88204088979055   -8.52651e-14   2.68927e-13 DIIS

  ==> Post-Iterations <==

    Orbital Energies [Eh]
    ---------------------

    Doubly Occupied:                                                      

       1A1   -24.640001     2A1    -1.300484     3A1    -0.579509  
       1B1    -0.481402     1B2    -0.481402  

    Virtual:                                                              

       4A1     0.173228     5A1     0.720562     2B1     1.385555  
       2B2     1.385555     6A1     1.496292     3B2     1.646331  
       3B1     1.646331     7A1     2.044985     8A1     2.247020  
       9A1     4.018582     1A2     4.018582     4B2     4.125596  
       4B1     4.125596    10A1     4.758758  

    Final Occupation by Irrep:
             A1    A2    B1    B2 
    DOCC [     3,    0,    1,    1 ]

  Energy converged.

  @DF-RKS Final Energy:   -96.88204088979055

   => Energetics <=

    Nuclear Repulsion Energy =              4.3403033184770754
    One-Electron Energy =                -147.4790905544013242
    Two-Electron Energy =                  46.2567463461337027
    PCM Polarization Energy =               0.0000000000000000
    Total Energy =                        -96.8820408897905452

    Alert: EFP and PCM quantities not currently incorporated into SCF psivars.

Properties will be evaluated at   0.000000,   0.000000,   0.000000 [a0]

Properties computed using the SCF density matrix

  Nuclear Dipole Moment: [e a0]
     X:     0.0000      Y:     0.0000      Z:    -1.0290

  Electronic Dipole Moment: [e a0]
     X:     0.0000      Y:     0.0000      Z:     0.3259

  Dipole Moment: [e a0]
     X:     0.0000      Y:     0.0000      Z:    -0.7031     Total:     0.7031

  Dipole Moment: [D]
     X:     0.0000      Y:     0.0000      Z:    -1.7872     Total:     1.7872


*** tstop() called on Daniels-MacBook-Pro.local at Wed Jun 13 20:16:03 2018
Module time:
	user time   =       0.44 seconds =       0.01 minutes
	system time =       0.02 seconds =       0.00 minutes
	total time  =          0 seconds =       0.00 minutes
Total time:
	user time   =       2.03 seconds =       0.03 minutes
	system time =       0.08 seconds =       0.00 minutes
	total time  =          2 seconds =       0.03 minutes

  //>>>>>>>>>>>>>>>>>>>>>>>>>>>>>>>>>>>//
  //    Loading displacement 4 of 5    //
  //<<<<<<<<<<<<<<<<<<<<<<<<<<<<<<<<<<<//

*** tstart() called on Daniels-MacBook-Pro.local
*** at Wed Jun 13 20:16:03 2018

   => Loading Basis Set <=

    Name: CC-PVDZ
    Role: ORBITAL
    Keyword: BASIS
    atoms 1 entry H          line    22 file /Users/daniel/Gits/psi4ds/psi4/share/psi4/basis/cc-pvdz.gbs 
    atoms 2 entry F          line   228 file /Users/daniel/Gits/psi4ds/psi4/share/psi4/basis/cc-pvdz.gbs 


         ---------------------------------------------------------
                                   SCF
            by Justin Turney, Rob Parrish, Andy Simmonett
                             and Daniel Smith
                              RKS Reference
                        1 Threads,    500 MiB Core
         ---------------------------------------------------------

  ==> Geometry <==

    Molecular point group: c2v
    Full point group: C_inf_v

    Geometry (in Angstrom), charge = 0, multiplicity = 1:

       Center              X                  Y                   Z               Mass       
    ------------   -----------------  -----------------  -----------------  -----------------
         H            0.000000000000     0.000000000000    -1.039450176055     1.007825032070
         F            0.000000000000     0.000000000000     0.055140629171    18.998403224000

  Running in c2v symmetry.

  Rotational constants: A = ************  B =     14.70130  C =     14.70130 [cm^-1]
  Rotational constants: A = ************  B = 440734.02756  C = 440734.02756 [MHz]
  Nuclear repulsion =    4.351027666752925

  Charge       = 0
  Multiplicity = 1
  Electrons    = 10
  Nalpha       = 5
  Nbeta        = 5

  ==> Algorithm <==

  SCF Algorithm Type is DF.
  DIIS enabled.
  MOM disabled.
  Fractional occupation disabled.
  Guess Type is SAD.
  Energy threshold   = 1.00e-12
  Density threshold  = 1.00e-12
  Integral threshold = 0.00e+00

  ==> Primary Basis <==

  Basis Set: CC-PVDZ
    Blend: CC-PVDZ
    Number of shells: 9
    Number of basis function: 19
    Number of Cartesian functions: 20
    Spherical Harmonics?: true
    Max angular momentum: 2

   => Loading Basis Set <=

    Name: (CC-PVDZ AUX)
    Role: JKFIT
    Keyword: DF_BASIS_SCF
    atoms 1 entry H          line    51 file /Users/daniel/Gits/psi4ds/psi4/share/psi4/basis/cc-pvdz-jkfit.gbs 
    atoms 2 entry F          line   271 file /Users/daniel/Gits/psi4ds/psi4/share/psi4/basis/cc-pvdz-jkfit.gbs 

  ==> Pre-Iterations <==

   -------------------------------------------------------
    Irrep   Nso     Nmo     Nalpha   Nbeta   Ndocc  Nsocc
   -------------------------------------------------------
     A1        10      10       0       0       0       0
     A2         1       1       0       0       0       0
     B1         4       4       0       0       0       0
     B2         4       4       0       0       0       0
   -------------------------------------------------------
    Total      19      19       5       5       5       0
   -------------------------------------------------------

  ==> Integral Setup <==

  ==> DiskDFJK: Density-Fitted J/K Matrices <==

    J tasked:                  Yes
    K tasked:                  Yes
    wK tasked:                 Yes
    Omega:               2.000E-01
    OpenMP threads:              1
    Integrals threads:           1
    Memory (MB):               375
    Algorithm:                Core
    Integral Cache:           NONE
    Schwarz Cutoff:          1E-12
    Fitting Condition:       1E-12

   => Auxiliary Basis Set <=

  Basis Set: (CC-PVDZ AUX)
    Blend: CC-PVDZ-JKFIT
    Number of shells: 33
    Number of basis function: 93
    Number of Cartesian functions: 106
    Spherical Harmonics?: true
    Max angular momentum: 3

  Minimum eigenvalue in the overlap matrix is 7.4116755575E-02.
  Using Symmetric Orthogonalization.

  SCF Guess: Superposition of Atomic Densities via on-the-fly atomic UHF.

  ==> Iterations <==

                           Total Energy        Delta E     RMS |[F,P]|

   @DF-RKS iter   0:   -96.61071481136841   -9.66107e+01   8.09224e-02 
   @DF-RKS iter   1:   -96.86557282711803   -2.54858e-01   1.96431e-02 
   @DF-RKS iter   2:   -96.87461617396113   -9.04335e-03   1.43089e-02 DIIS
   @DF-RKS iter   3:   -96.88213638473380   -7.52021e-03   1.24820e-03 DIIS
   @DF-RKS iter   4:   -96.88227335045065   -1.36966e-04   4.62218e-04 DIIS
   @DF-RKS iter   5:   -96.88229935168710   -2.60012e-05   5.47029e-05 DIIS
   @DF-RKS iter   6:   -96.88229973885132   -3.87164e-07   5.99204e-06 DIIS
   @DF-RKS iter   7:   -96.88229974264330   -3.79198e-09   4.23118e-07 DIIS
   @DF-RKS iter   8:   -96.88229974265639   -1.30882e-11   3.44644e-08 DIIS
   @DF-RKS iter   9:   -96.88229974265637    1.42109e-14   2.03272e-09 DIIS
   @DF-RKS iter  10:   -96.88229974265636    1.42109e-14   1.35322e-10 DIIS
   @DF-RKS iter  11:   -96.88229974265637   -1.42109e-14   1.66633e-11 DIIS
   @DF-RKS iter  12:   -96.88229974265643   -5.68434e-14   1.28417e-12 DIIS
   @DF-RKS iter  13:   -96.88229974265631    1.13687e-13   2.48950e-13 DIIS

  ==> Post-Iterations <==

    Orbital Energies [Eh]
    ---------------------

    Doubly Occupied:                                                      

       1A1   -24.639803     2A1    -1.300873     3A1    -0.580069  
       1B1    -0.481454     1B2    -0.481454  

    Virtual:                                                              

       4A1     0.173821     5A1     0.722031     2B1     1.386286  
       2B2     1.386286     6A1     1.495258     3B1     1.646122  
       3B2     1.646122     7A1     2.049562     8A1     2.247026  
       9A1     4.018532     1A2     4.018532     4B2     4.127317  
       4B1     4.127317    10A1     4.763053  

    Final Occupation by Irrep:
             A1    A2    B1    B2 
    DOCC [     3,    0,    1,    1 ]

  Energy converged.

  @DF-RKS Final Energy:   -96.88229974265631

   => Energetics <=

    Nuclear Repulsion Energy =              4.3510276667529251
    One-Electron Energy =                -147.4993495424257048
    Two-Electron Energy =                  46.2660221330164774
    Total Energy =                        -96.8822997426563148



Properties will be evaluated at   0.000000,   0.000000,   0.000000 [a0]

Properties computed using the SCF density matrix

  Nuclear Dipole Moment: [e a0]
     X:     0.0000      Y:     0.0000      Z:    -1.0265

  Electronic Dipole Moment: [e a0]
     X:     0.0000      Y:     0.0000      Z:     0.3237

  Dipole Moment: [e a0]
     X:     0.0000      Y:     0.0000      Z:    -0.7027     Total:     0.7027

  Dipole Moment: [D]
     X:     0.0000      Y:     0.0000      Z:    -1.7862     Total:     1.7862


*** tstop() called on Daniels-MacBook-Pro.local at Wed Jun 13 20:16:04 2018
Module time:
	user time   =       0.43 seconds =       0.01 minutes
	system time =       0.02 seconds =       0.00 minutes
	total time  =          1 seconds =       0.02 minutes
Total time:
	user time   =       2.48 seconds =       0.04 minutes
	system time =       0.10 seconds =       0.00 minutes
	total time  =          3 seconds =       0.05 minutes

  //>>>>>>>>>>>>>>>>>>>>>>>>>>>>>>>>>>>//
  //    Loading displacement 5 of 5    //
  //<<<<<<<<<<<<<<<<<<<<<<<<<<<<<<<<<<<//

*** tstart() called on Daniels-MacBook-Pro.local
*** at Wed Jun 13 20:16:04 2018

   => Loading Basis Set <=

    Name: CC-PVDZ
    Role: ORBITAL
    Keyword: BASIS
    atoms 1 entry H          line    22 file /Users/daniel/Gits/psi4ds/psi4/share/psi4/basis/cc-pvdz.gbs 
    atoms 2 entry F          line   228 file /Users/daniel/Gits/psi4ds/psi4/share/psi4/basis/cc-pvdz.gbs 


         ---------------------------------------------------------
                                   SCF
            by Justin Turney, Rob Parrish, Andy Simmonett
                             and Daniel Smith
                              RKS Reference
                        1 Threads,    500 MiB Core
         ---------------------------------------------------------

  ==> Geometry <==

    Molecular point group: c2v
    Full point group: C_inf_v

    Geometry (in Angstrom), charge = 0, multiplicity = 1:

       Center              X                  Y                   Z               Mass       
    ------------   -----------------  -----------------  -----------------  -----------------
         H            0.000000000000     0.000000000000    -1.044586879591     1.007825032070
         F            0.000000000000     0.000000000000     0.055413120409    18.998403224000

  Running in c2v symmetry.

  Rotational constants: A = ************  B =     14.55707  C =     14.55707 [cm^-1]
  Rotational constants: A = ************  B = 436410.11018  C = 436410.11018 [MHz]
  Nuclear repulsion =    4.329631706645454

  Charge       = 0
  Multiplicity = 1
  Electrons    = 10
  Nalpha       = 5
  Nbeta        = 5

  ==> Algorithm <==

  SCF Algorithm Type is DF.
  DIIS enabled.
  MOM disabled.
  Fractional occupation disabled.
  Guess Type is SAD.
  Energy threshold   = 1.00e-12
  Density threshold  = 1.00e-12
  Integral threshold = 0.00e+00

  ==> Primary Basis <==

  Basis Set: CC-PVDZ
    Blend: CC-PVDZ
    Number of shells: 9
    Number of basis function: 19
    Number of Cartesian functions: 20
    Spherical Harmonics?: true
    Max angular momentum: 2

   => Loading Basis Set <=

    Name: (CC-PVDZ AUX)
    Role: JKFIT
    Keyword: DF_BASIS_SCF
    atoms 1 entry H          line    51 file /Users/daniel/Gits/psi4ds/psi4/share/psi4/basis/cc-pvdz-jkfit.gbs 
    atoms 2 entry F          line   271 file /Users/daniel/Gits/psi4ds/psi4/share/psi4/basis/cc-pvdz-jkfit.gbs 

  ==> Pre-Iterations <==

   -------------------------------------------------------
    Irrep   Nso     Nmo     Nalpha   Nbeta   Ndocc  Nsocc
   -------------------------------------------------------
     A1        10      10       0       0       0       0
     A2         1       1       0       0       0       0
     B1         4       4       0       0       0       0
     B2         4       4       0       0       0       0
   -------------------------------------------------------
    Total      19      19       5       5       5       0
   -------------------------------------------------------

  ==> Integral Setup <==

  ==> DiskDFJK: Density-Fitted J/K Matrices <==

    J tasked:                  Yes
    K tasked:                  Yes
    wK tasked:                 Yes
    Omega:               2.000E-01
    OpenMP threads:              1
    Integrals threads:           1
    Memory (MB):               375
    Algorithm:                Core
    Integral Cache:           NONE
    Schwarz Cutoff:          1E-12
    Fitting Condition:       1E-12

   => Auxiliary Basis Set <=

  Basis Set: (CC-PVDZ AUX)
    Blend: CC-PVDZ-JKFIT
    Number of shells: 33
    Number of basis function: 93
    Number of Cartesian functions: 106
    Spherical Harmonics?: true
    Max angular momentum: 3

  Minimum eigenvalue in the overlap matrix is 7.4937690937E-02.
  Using Symmetric Orthogonalization.

  SCF Guess: Superposition of Atomic Densities via on-the-fly atomic UHF.

  ==> Iterations <==

                           Total Energy        Delta E     RMS |[F,P]|

   @DF-RKS iter   0:   -96.69766051859514   -9.66977e+01   8.15021e-02 
   @DF-RKS iter   1:   -96.85116082891500   -1.53500e-01   1.90770e-02 
   @DF-RKS iter   2:   -96.87999141366832   -2.88306e-02   4.42583e-03 DIIS
   @DF-RKS iter   3:   -96.88149025971873   -1.49885e-03   1.46503e-03 DIIS
   @DF-RKS iter   4:   -96.88174905414078   -2.58794e-04   5.56572e-04 DIIS
   @DF-RKS iter   5:   -96.88177160905076   -2.25549e-05   2.65627e-04 DIIS
   @DF-RKS iter   6:   -96.88177612009491   -4.51104e-06   1.84300e-05 DIIS
   @DF-RKS iter   7:   -96.88177617407781   -5.39829e-08   2.20630e-06 DIIS
   @DF-RKS iter   8:   -96.88177617457450   -4.96684e-10   1.33739e-07 DIIS
   @DF-RKS iter   9:   -96.88177617457585   -1.35003e-12   1.23042e-08 DIIS
   @DF-RKS iter  10:   -96.88177617457580    4.26326e-14   1.14416e-09 DIIS
   @DF-RKS iter  11:   -96.88177617457583   -2.84217e-14   1.15720e-10 DIIS
   @DF-RKS iter  12:   -96.88177617457576    7.10543e-14   7.86421e-12 DIIS
   @DF-RKS iter  13:   -96.88177617457579   -2.84217e-14   7.77547e-13 DIIS

  ==> Post-Iterations <==

    Orbital Energies [Eh]
    ---------------------

    Doubly Occupied:                                                      

       1A1   -24.640199     2A1    -1.300098     3A1    -0.578951  
       1B1    -0.481353     1B2    -0.481353  

    Virtual:                                                              

       4A1     0.172634     5A1     0.719109     2B2     1.384830  
       2B1     1.384830     6A1     1.497326     3B2     1.646535  
       3B1     1.646535     7A1     2.040388     8A1     2.247063  
       1A2     4.018631     9A1     4.018631     4B1     4.123888  
       4B2     4.123888    10A1     4.754458  

    Final Occupation by Irrep:
             A1    A2    B1    B2 
    DOCC [     3,    0,    1,    1 ]

  Energy converged.

  @DF-RKS Final Energy:   -96.88177617457579

   => Energetics <=

    Nuclear Repulsion Energy =              4.3296317066454542
    One-Electron Energy =                -147.4589088249205133
    Two-Electron Energy =                  46.2475009436992792
    Total Energy =                        -96.8817761745757906



Properties will be evaluated at   0.000000,   0.000000,   0.000000 [a0]

Properties computed using the SCF density matrix

  Nuclear Dipole Moment: [e a0]
     X:     0.0000      Y:     0.0000      Z:    -1.0315

  Electronic Dipole Moment: [e a0]
     X:     0.0000      Y:     0.0000      Z:     0.3280

  Dipole Moment: [e a0]
     X:     0.0000      Y:     0.0000      Z:    -0.7036     Total:     0.7036

  Dipole Moment: [D]
     X:     0.0000      Y:     0.0000      Z:    -1.7883     Total:     1.7883


*** tstop() called on Daniels-MacBook-Pro.local at Wed Jun 13 20:16:04 2018
Module time:
	user time   =       0.43 seconds =       0.01 minutes
	system time =       0.01 seconds =       0.00 minutes
	total time  =          0 seconds =       0.00 minutes
Total time:
	user time   =       2.93 seconds =       0.05 minutes
	system time =       0.11 seconds =       0.00 minutes
	total time  =          3 seconds =       0.05 minutes

-------------------------------------------------------------

  Computing gradient from energies (fd_1_0).
	Using 5-point formula.
	Energy without displacement:  -96.8817761746
	Check energies below for precision!
	Forces are for mass-weighted, symmetry-adapted cartesians (in au).

	 Coord      Energy(-2)        Energy(-1)        Energy(+1)        Energy(+2)            Force
	    0    -96.8812295933    -96.8815057065    -96.8820408898    -96.8822997427     -0.0535219465

	Gradient written.

-------------------------------------------------------------
  ## F-D gradient (Symmetry 0) ##
  Irrep: 1 Size: 2 x 3

                 1                   2                   3

    1     0.00000000000000     0.00000000000000    -0.05236009320195
    2     0.00000000000000     0.00000000000000     0.05236009320195



	Analytic vs Reference CAM-like Gradients..........................PASSED
	Analytic vs FD CAM Gradients......................................PASSED
gradient() will perform analytic gradient computation.

*** tstart() called on Daniels-MacBook-Pro.local
*** at Wed Jun 13 20:16:04 2018

   => Loading Basis Set <=

    Name: CC-PVDZ
    Role: ORBITAL
    Keyword: BASIS
    atoms 1 entry H          line    22 file /Users/daniel/Gits/psi4ds/psi4/share/psi4/basis/cc-pvdz.gbs 
    atoms 2 entry F          line   228 file /Users/daniel/Gits/psi4ds/psi4/share/psi4/basis/cc-pvdz.gbs 


         ---------------------------------------------------------
                                   SCF
            by Justin Turney, Rob Parrish, Andy Simmonett
                             and Daniel Smith
                              RKS Reference
                        1 Threads,    500 MiB Core
         ---------------------------------------------------------

  ==> Geometry <==

    Molecular point group: c2v
    Full point group: C_inf_v

    Geometry (in Angstrom), charge = 0, multiplicity = 1:

       Center              X                  Y                   Z               Mass       
    ------------   -----------------  -----------------  -----------------  -----------------
         H            0.000000000000     0.000000000000    -1.044586879591     1.007825032070
         F            0.000000000000     0.000000000000     0.055413120409    18.998403224000

  Running in c2v symmetry.

  Rotational constants: A = ************  B =     14.55707  C =     14.55707 [cm^-1]
  Rotational constants: A = ************  B = 436410.11018  C = 436410.11018 [MHz]
  Nuclear repulsion =    4.329631706645454

  Charge       = 0
  Multiplicity = 1
  Electrons    = 10
  Nalpha       = 5
  Nbeta        = 5

  ==> Algorithm <==

  SCF Algorithm Type is DF.
  DIIS enabled.
  MOM disabled.
  Fractional occupation disabled.
  Guess Type is SAD.
  Energy threshold   = 1.00e-12
  Density threshold  = 1.00e-12
  Integral threshold = 0.00e+00

  ==> Primary Basis <==

  Basis Set: CC-PVDZ
    Blend: CC-PVDZ
    Number of shells: 9
    Number of basis function: 19
    Number of Cartesian functions: 20
    Spherical Harmonics?: true
    Max angular momentum: 2

  ==> DFT Potential <==

   => Composite Functional: CAM-B3LYP <= 

    CAM-B3LYP Hyb-GGA Exchange-Correlation Functional

    T. Yanai, D. P. Tew, and N. C. Handy, Chem. Phys. Lett. 393, 51 (2004)

    Deriv               =              1
    GGA                 =           TRUE
    Meta                =          FALSE

    Exchange Hybrid     =           TRUE
    MP2 Hybrid          =          FALSE

   => Exchange Functionals <=

    0.3500         Becke 88 [omega = 0.3300]
    0.4600   Short-range recipe for exchange GGA functionals [omega = 0.3300]

   => Exact (HF) Exchange <=

    0.4600            HF,LR [omega = 0.3300]
    0.1900               HF 

   => Correlation Functionals <=

    0.1900   Vosko, Wilk & Nusair (VWN5)
    0.8100   Lee, Yang & Parr

   => Molecular Quadrature <=

    Radial Scheme       =       TREUTLER
    Pruning Scheme      =           FLAT
    Nuclear Scheme      =       TREUTLER

    BS radius alpha     =              1
    Pruning alpha       =              1
    Radial Points       =            120
    Spherical Points    =            434
    Total Points        =         101292
    Total Blocks        =            802
    Max Points          =            256
    Max Functions       =             19

   => Loading Basis Set <=

    Name: (CC-PVDZ AUX)
    Role: JKFIT
    Keyword: DF_BASIS_SCF
    atoms 1 entry H          line    51 file /Users/daniel/Gits/psi4ds/psi4/share/psi4/basis/cc-pvdz-jkfit.gbs 
    atoms 2 entry F          line   271 file /Users/daniel/Gits/psi4ds/psi4/share/psi4/basis/cc-pvdz-jkfit.gbs 

  ==> Pre-Iterations <==

   -------------------------------------------------------
    Irrep   Nso     Nmo     Nalpha   Nbeta   Ndocc  Nsocc
   -------------------------------------------------------
     A1        10      10       0       0       0       0
     A2         1       1       0       0       0       0
     B1         4       4       0       0       0       0
     B2         4       4       0       0       0       0
   -------------------------------------------------------
    Total      19      19       5       5       5       0
   -------------------------------------------------------

  ==> Integral Setup <==

  ==> DiskDFJK: Density-Fitted J/K Matrices <==

    J tasked:                  Yes
    K tasked:                  Yes
    wK tasked:                 Yes
    Omega:               3.300E-01
    OpenMP threads:              1
    Integrals threads:           1
    Memory (MB):               375
    Algorithm:                Core
    Integral Cache:           NONE
    Schwarz Cutoff:          1E-12
    Fitting Condition:       1E-12

   => Auxiliary Basis Set <=

  Basis Set: (CC-PVDZ AUX)
    Blend: CC-PVDZ-JKFIT
    Number of shells: 33
    Number of basis function: 93
    Number of Cartesian functions: 106
    Spherical Harmonics?: true
    Max angular momentum: 3

  Minimum eigenvalue in the overlap matrix is 7.4937690937E-02.
  Using Symmetric Orthogonalization.

  SCF Guess: Superposition of Atomic Densities via on-the-fly atomic UHF.

  ==> Iterations <==

                           Total Energy        Delta E     RMS |[F,P]|

   @DF-RKS iter   0:  -100.27322089704755   -1.00273e+02   6.97502e-02 
   @DF-RKS iter   1:  -100.33752733294725   -6.43064e-02   2.98035e-02 
   @DF-RKS iter   2:  -100.33246486457395    5.06247e-03   3.69837e-02 DIIS
   @DF-RKS iter   3:  -100.38758257939952   -5.51177e-02   1.45425e-03 DIIS
   @DF-RKS iter   4:  -100.38766419846206   -8.16191e-05   4.91160e-04 DIIS
   @DF-RKS iter   5:  -100.38767472321909   -1.05248e-05   4.56194e-05 DIIS
   @DF-RKS iter   6:  -100.38767485344205   -1.30223e-07   1.90872e-06 DIIS
   @DF-RKS iter   7:  -100.38767485398456   -5.42514e-10   3.37628e-07 DIIS
   @DF-RKS iter   8:  -100.38767485399218   -7.61702e-12   1.48867e-08 DIIS
   @DF-RKS iter   9:  -100.38767485399210    8.52651e-14   1.54056e-09 DIIS
   @DF-RKS iter  10:  -100.38767485399215   -5.68434e-14   2.60648e-11 DIIS
   @DF-RKS iter  11:  -100.38767485399217   -1.42109e-14   2.62020e-12 DIIS
   @DF-RKS iter  12:  -100.38767485399212    4.26326e-14   8.34097e-14 DIIS

  ==> Post-Iterations <==

    Orbital Energies [Eh]
    ---------------------

    Doubly Occupied:                                                      

       1A1   -24.737873     2A1    -1.206971     3A1    -0.550760  
       1B2    -0.437923     1B1    -0.437923  

    Virtual:                                                              

       4A1     0.043325     5A1     0.523490     2B2     1.145603  
       2B1     1.145603     6A1     1.267129     3B2     1.437235  
       3B1     1.437235     7A1     1.765664     8A1     2.008506  
       9A1     3.691382     1A2     3.691382     4B1     3.796435  
       4B2     3.796435    10A1     4.418151  

    Final Occupation by Irrep:
             A1    A2    B1    B2 
    DOCC [     3,    0,    1,    1 ]

  Energy converged.

  @DF-RKS Final Energy:  -100.38767485399212

   => Energetics <=

    Nuclear Repulsion Energy =              4.3296317066454542
    One-Electron Energy =                -149.2031835538074631
    Two-Electron Energy =                  52.4750712906151975
    DFT Exchange-Correlation Energy =      -7.9891942974452901
    Empirical Dispersion Energy =           0.0000000000000000
    VV10 Nonlocal Energy =                  0.0000000000000000
    Total Energy =                       -100.3876748539921095



Properties will be evaluated at   0.000000,   0.000000,   0.000000 [a0]

Properties computed using the SCF density matrix

  Nuclear Dipole Moment: [e a0]
     X:     0.0000      Y:     0.0000      Z:    -1.0315

  Electronic Dipole Moment: [e a0]
     X:     0.0000      Y:     0.0000      Z:     0.2107

  Dipole Moment: [e a0]
     X:     0.0000      Y:     0.0000      Z:    -0.8208     Total:     0.8208

  Dipole Moment: [D]
     X:     0.0000      Y:     0.0000      Z:    -2.0863     Total:     2.0863


*** tstop() called on Daniels-MacBook-Pro.local at Wed Jun 13 20:16:08 2018
Module time:
	user time   =       4.08 seconds =       0.07 minutes
	system time =       0.13 seconds =       0.00 minutes
	total time  =          4 seconds =       0.07 minutes
Total time:
	user time   =       7.04 seconds =       0.12 minutes
	system time =       0.24 seconds =       0.00 minutes
	total time  =          7 seconds =       0.12 minutes

*** tstart() called on Daniels-MacBook-Pro.local
*** at Wed Jun 13 20:16:08 2018


         ------------------------------------------------------------
                                   SCF GRAD                          
                          Rob Parrish, Justin Turney,                
                       Andy Simmonett, and Alex Sokolov              
         ------------------------------------------------------------

  ==> Geometry <==

    Molecular point group: c2v
    Full point group: C_inf_v

    Geometry (in Angstrom), charge = 0, multiplicity = 1:

       Center              X                  Y                   Z               Mass       
    ------------   -----------------  -----------------  -----------------  -----------------
         H            0.000000000000     0.000000000000    -1.044586879591     1.007825032070
         F            0.000000000000     0.000000000000     0.055413120409    18.998403224000

  Nuclear repulsion =    4.329631706645454

  ==> Basis Set <==

  Basis Set: CC-PVDZ
    Blend: CC-PVDZ
    Number of shells: 9
    Number of basis function: 19
    Number of Cartesian functions: 20
    Spherical Harmonics?: true
    Max angular momentum: 2

  ==> DFJKGrad: Density-Fitted SCF Gradients <==

    Gradient:                    1
    J tasked:                  Yes
    K tasked:                  Yes
    wK tasked:                 Yes
    Omega:               3.300E-01
    OpenMP threads:              1
    Integrals threads:           1
    Memory (MB):               375
    Schwarz Cutoff:          0E+00
    Fitting Condition:       1E-12

   => Auxiliary Basis Set <=

  Basis Set: (CC-PVDZ AUX)
    Blend: CC-PVDZ-JKFIT
    Number of shells: 33
    Number of basis function: 93
    Number of Cartesian functions: 106
    Spherical Harmonics?: true
    Max angular momentum: 3

  ==> DFT Potential <==

   => Composite Functional: CAM-B3LYP <= 

    CAM-B3LYP Hyb-GGA Exchange-Correlation Functional

    T. Yanai, D. P. Tew, and N. C. Handy, Chem. Phys. Lett. 393, 51 (2004)

    Deriv               =              1
    GGA                 =           TRUE
    Meta                =          FALSE

    Exchange Hybrid     =           TRUE
    MP2 Hybrid          =          FALSE

   => Exchange Functionals <=

    0.3500         Becke 88 [omega = 0.3300]
    0.4600   Short-range recipe for exchange GGA functionals [omega = 0.3300]

   => Exact (HF) Exchange <=

    0.4600            HF,LR [omega = 0.3300]
    0.1900               HF 

   => Correlation Functionals <=

    0.1900   Vosko, Wilk & Nusair (VWN5)
    0.8100   Lee, Yang & Parr

   => Molecular Quadrature <=

    Radial Scheme       =       TREUTLER
    Pruning Scheme      =           FLAT
    Nuclear Scheme      =       TREUTLER

    BS radius alpha     =              1
    Pruning alpha       =              1
    Radial Points       =            120
    Spherical Points    =            434
    Total Points        =         101292
    Total Blocks        =            802
    Max Points          =            256
    Max Functions       =             19


  -Total Gradient:
     Atom            X                  Y                   Z
    ------   -----------------  -----------------  -----------------
       1        0.000000000000    -0.000000000000    -0.109138077776
       2        0.000000000000    -0.000000000000     0.109137316631


*** tstop() called on Daniels-MacBook-Pro.local at Wed Jun 13 20:16:09 2018
Module time:
	user time   =       0.63 seconds =       0.01 minutes
	system time =       0.02 seconds =       0.00 minutes
	total time  =          1 seconds =       0.02 minutes
Total time:
	user time   =       7.68 seconds =       0.13 minutes
	system time =       0.26 seconds =       0.00 minutes
	total time  =          8 seconds =       0.13 minutes
gradient() will perform gradient computation by finite difference of analytic energies.

-------------------------------------------------------------

  Using finite-differences of energies to determine gradients (fd_geoms_1_0).
	Generating geometries for use with 5-point formula.
	Displacement size will be 5.00e-03.
	Number of atoms is 2.
	Number of symmetric SALC's is 1.
	Number of displacements (including reference) is 5.
	Translations projected? 1. Rotations projected? 1.

-------------------------------------------------------------

  //>>>>>>>>>>>>>>>>>>>>>>>>>>>>>>>>>>>//
  //    Loading displacement 1 of 5    //
  //<<<<<<<<<<<<<<<<<<<<<<<<<<<<<<<<<<<//

*** tstart() called on Daniels-MacBook-Pro.local
*** at Wed Jun 13 20:16:09 2018

   => Loading Basis Set <=

    Name: CC-PVDZ
    Role: ORBITAL
    Keyword: BASIS
    atoms 1 entry H          line    22 file /Users/daniel/Gits/psi4ds/psi4/share/psi4/basis/cc-pvdz.gbs 
    atoms 2 entry F          line   228 file /Users/daniel/Gits/psi4ds/psi4/share/psi4/basis/cc-pvdz.gbs 


         ---------------------------------------------------------
                                   SCF
            by Justin Turney, Rob Parrish, Andy Simmonett
                             and Daniel Smith
                              RKS Reference
                        1 Threads,    500 MiB Core
         ---------------------------------------------------------

  ==> Geometry <==

    Molecular point group: c2v
    Full point group: C_inf_v

    Geometry (in Angstrom), charge = 0, multiplicity = 1:

       Center              X                  Y                   Z               Mass       
    ------------   -----------------  -----------------  -----------------  -----------------
         H            0.000000000000     0.000000000000    -1.049723583128     1.007825032070
         F            0.000000000000     0.000000000000     0.055685611646    18.998403224000

  Running in c2v symmetry.

  Rotational constants: A = ************  B =     14.41496  C =     14.41496 [cm^-1]
  Rotational constants: A = ************  B = 432149.51317  C = 432149.51317 [MHz]
  Nuclear repulsion =    4.308445143955978

  Charge       = 0
  Multiplicity = 1
  Electrons    = 10
  Nalpha       = 5
  Nbeta        = 5

  ==> Algorithm <==

  SCF Algorithm Type is DF.
  DIIS enabled.
  MOM disabled.
  Fractional occupation disabled.
  Guess Type is SAD.
  Energy threshold   = 1.00e-12
  Density threshold  = 1.00e-12
  Integral threshold = 0.00e+00

  ==> Primary Basis <==

  Basis Set: CC-PVDZ
    Blend: CC-PVDZ
    Number of shells: 9
    Number of basis function: 19
    Number of Cartesian functions: 20
    Spherical Harmonics?: true
    Max angular momentum: 2

  ==> DFT Potential <==

   => Composite Functional: CAM-B3LYP <= 

    CAM-B3LYP Hyb-GGA Exchange-Correlation Functional

    T. Yanai, D. P. Tew, and N. C. Handy, Chem. Phys. Lett. 393, 51 (2004)

    Deriv               =              1
    GGA                 =           TRUE
    Meta                =          FALSE

    Exchange Hybrid     =           TRUE
    MP2 Hybrid          =          FALSE

   => Exchange Functionals <=

    0.3500         Becke 88 [omega = 0.3300]
    0.4600   Short-range recipe for exchange GGA functionals [omega = 0.3300]

   => Exact (HF) Exchange <=

    0.4600            HF,LR [omega = 0.3300]
    0.1900               HF 

   => Correlation Functionals <=

    0.1900   Vosko, Wilk & Nusair (VWN5)
    0.8100   Lee, Yang & Parr

   => Molecular Quadrature <=

    Radial Scheme       =       TREUTLER
    Pruning Scheme      =           FLAT
    Nuclear Scheme      =       TREUTLER

    BS radius alpha     =              1
    Pruning alpha       =              1
    Radial Points       =            120
    Spherical Points    =            434
    Total Points        =         101292
    Total Blocks        =            804
    Max Points          =            256
    Max Functions       =             19

   => Loading Basis Set <=

    Name: (CC-PVDZ AUX)
    Role: JKFIT
    Keyword: DF_BASIS_SCF
    atoms 1 entry H          line    51 file /Users/daniel/Gits/psi4ds/psi4/share/psi4/basis/cc-pvdz-jkfit.gbs 
    atoms 2 entry F          line   271 file /Users/daniel/Gits/psi4ds/psi4/share/psi4/basis/cc-pvdz-jkfit.gbs 

  ==> Pre-Iterations <==

   -------------------------------------------------------
    Irrep   Nso     Nmo     Nalpha   Nbeta   Ndocc  Nsocc
   -------------------------------------------------------
     A1        10      10       0       0       0       0
     A2         1       1       0       0       0       0
     B1         4       4       0       0       0       0
     B2         4       4       0       0       0       0
   -------------------------------------------------------
    Total      19      19       5       5       5       0
   -------------------------------------------------------

  ==> Integral Setup <==

  ==> DiskDFJK: Density-Fitted J/K Matrices <==

    J tasked:                  Yes
    K tasked:                  Yes
    wK tasked:                 Yes
    Omega:               3.300E-01
    OpenMP threads:              1
    Integrals threads:           1
    Memory (MB):               375
    Algorithm:                Core
    Integral Cache:           NONE
    Schwarz Cutoff:          1E-12
    Fitting Condition:       1E-12

   => Auxiliary Basis Set <=

  Basis Set: (CC-PVDZ AUX)
    Blend: CC-PVDZ-JKFIT
    Number of shells: 33
    Number of basis function: 93
    Number of Cartesian functions: 106
    Spherical Harmonics?: true
    Max angular momentum: 3

  Minimum eigenvalue in the overlap matrix is 7.5761064583E-02.
  Using Symmetric Orthogonalization.

  SCF Guess: Superposition of Atomic Densities via on-the-fly atomic UHF.

  ==> Iterations <==

                           Total Energy        Delta E     RMS |[F,P]|

   @DF-RKS iter   0:  -100.19453039821653   -1.00195e+02   6.79417e-02 
   @DF-RKS iter   1:  -100.36303864888966   -1.68508e-01   2.25108e-02 
   @DF-RKS iter   2:  -100.35704328255969    5.99537e-03   2.69603e-02 DIIS
   @DF-RKS iter   3:  -100.38651782913622   -2.94745e-02   1.03655e-03 DIIS
   @DF-RKS iter   4:  -100.38655008672207   -3.22576e-05   1.86848e-04 DIIS
   @DF-RKS iter   5:  -100.38655145362031   -1.36690e-06   1.39476e-05 DIIS
   @DF-RKS iter   6:  -100.38655146311920   -9.49889e-09   8.84439e-07 DIIS
   @DF-RKS iter   7:  -100.38655146318679   -6.75868e-11   1.34443e-07 DIIS
   @DF-RKS iter   8:  -100.38655146318796   -1.16529e-12   9.22708e-09 DIIS
   @DF-RKS iter   9:  -100.38655146318803   -7.10543e-14   5.05179e-10 DIIS
   @DF-RKS iter  10:  -100.38655146318787    1.56319e-13   9.57472e-12 DIIS
   @DF-RKS iter  11:  -100.38655146318796   -8.52651e-14   7.41050e-13 DIIS

  ==> Post-Iterations <==

    Orbital Energies [Eh]
    ---------------------

    Doubly Occupied:                                                      

       1A1   -24.737944     2A1    -1.205988     3A1    -0.549676  
       1B1    -0.437584     1B2    -0.437584  

    Virtual:                                                              

       4A1     0.041565     5A1     0.521275     2B1     1.144702  
       2B2     1.144702     6A1     1.268955     3B1     1.437434  
       3B2     1.437434     7A1     1.757451     8A1     2.008549  
       9A1     3.691711     1A2     3.691711     4B1     3.793386  
       4B2     3.793386    10A1     4.409955  

    Final Occupation by Irrep:
             A1    A2    B1    B2 
    DOCC [     3,    0,    1,    1 ]

  Energy converged.

  @DF-RKS Final Energy:  -100.38655146318796

   => Energetics <=

    Nuclear Repulsion Energy =              4.3084451439559777
    One-Electron Energy =                -149.1648416668301991
    Two-Electron Energy =                  52.4576205835256815
    DFT Exchange-Correlation Energy =      -7.9877755238394057
    Empirical Dispersion Energy =           0.0000000000000000
    VV10 Nonlocal Energy =                  0.0000000000000000
    Total Energy =                       -100.3865514631879563



Properties will be evaluated at   0.000000,   0.000000,   0.000000 [a0]

Properties computed using the SCF density matrix

  Nuclear Dipole Moment: [e a0]
     X:     0.0000      Y:     0.0000      Z:    -1.0366

  Electronic Dipole Moment: [e a0]
     X:     0.0000      Y:     0.0000      Z:     0.2130

  Dipole Moment: [e a0]
     X:     0.0000      Y:     0.0000      Z:    -0.8236     Total:     0.8236

  Dipole Moment: [D]
     X:     0.0000      Y:     0.0000      Z:    -2.0934     Total:     2.0934


*** tstop() called on Daniels-MacBook-Pro.local at Wed Jun 13 20:16:13 2018
Module time:
	user time   =       3.96 seconds =       0.07 minutes
	system time =       0.14 seconds =       0.00 minutes
	total time  =          4 seconds =       0.07 minutes
Total time:
	user time   =      11.66 seconds =       0.19 minutes
	system time =       0.40 seconds =       0.01 minutes
	total time  =         12 seconds =       0.20 minutes

  //>>>>>>>>>>>>>>>>>>>>>>>>>>>>>>>>>>>//
  //    Loading displacement 2 of 5    //
  //<<<<<<<<<<<<<<<<<<<<<<<<<<<<<<<<<<<//

*** tstart() called on Daniels-MacBook-Pro.local
*** at Wed Jun 13 20:16:13 2018

   => Loading Basis Set <=

    Name: CC-PVDZ
    Role: ORBITAL
    Keyword: BASIS
    atoms 1 entry H          line    22 file /Users/daniel/Gits/psi4ds/psi4/share/psi4/basis/cc-pvdz.gbs 
    atoms 2 entry F          line   228 file /Users/daniel/Gits/psi4ds/psi4/share/psi4/basis/cc-pvdz.gbs 


         ---------------------------------------------------------
                                   SCF
            by Justin Turney, Rob Parrish, Andy Simmonett
                             and Daniel Smith
                              RKS Reference
                        1 Threads,    500 MiB Core
         ---------------------------------------------------------

  ==> Geometry <==

    Molecular point group: c2v
    Full point group: C_inf_v

    Geometry (in Angstrom), charge = 0, multiplicity = 1:

       Center              X                  Y                   Z               Mass       
    ------------   -----------------  -----------------  -----------------  -----------------
         H            0.000000000000     0.000000000000    -1.047155231360     1.007825032070
         F            0.000000000000     0.000000000000     0.055549366027    18.998403224000

  Running in c2v symmetry.

  Rotational constants: A = ************  B =     14.48575  C =     14.48575 [cm^-1]
  Rotational constants: A = ************  B = 434271.97423  C = 434271.97423 [MHz]
  Nuclear repulsion =    4.319012443218919

  Charge       = 0
  Multiplicity = 1
  Electrons    = 10
  Nalpha       = 5
  Nbeta        = 5

  ==> Algorithm <==

  SCF Algorithm Type is DF.
  DIIS enabled.
  MOM disabled.
  Fractional occupation disabled.
  Guess Type is SAD.
  Energy threshold   = 1.00e-12
  Density threshold  = 1.00e-12
  Integral threshold = 0.00e+00

  ==> Primary Basis <==

  Basis Set: CC-PVDZ
    Blend: CC-PVDZ
    Number of shells: 9
    Number of basis function: 19
    Number of Cartesian functions: 20
    Spherical Harmonics?: true
    Max angular momentum: 2

  ==> DFT Potential <==

   => Composite Functional: CAM-B3LYP <= 

    CAM-B3LYP Hyb-GGA Exchange-Correlation Functional

    T. Yanai, D. P. Tew, and N. C. Handy, Chem. Phys. Lett. 393, 51 (2004)

    Deriv               =              1
    GGA                 =           TRUE
    Meta                =          FALSE

    Exchange Hybrid     =           TRUE
    MP2 Hybrid          =          FALSE

   => Exchange Functionals <=

    0.3500         Becke 88 [omega = 0.3300]
    0.4600   Short-range recipe for exchange GGA functionals [omega = 0.3300]

   => Exact (HF) Exchange <=

    0.4600            HF,LR [omega = 0.3300]
    0.1900               HF 

   => Correlation Functionals <=

    0.1900   Vosko, Wilk & Nusair (VWN5)
    0.8100   Lee, Yang & Parr

   => Molecular Quadrature <=

    Radial Scheme       =       TREUTLER
    Pruning Scheme      =           FLAT
    Nuclear Scheme      =       TREUTLER

    BS radius alpha     =              1
    Pruning alpha       =              1
    Radial Points       =            120
    Spherical Points    =            434
    Total Points        =         101292
    Total Blocks        =            803
    Max Points          =            256
    Max Functions       =             19

   => Loading Basis Set <=

    Name: (CC-PVDZ AUX)
    Role: JKFIT
    Keyword: DF_BASIS_SCF
    atoms 1 entry H          line    51 file /Users/daniel/Gits/psi4ds/psi4/share/psi4/basis/cc-pvdz-jkfit.gbs 
    atoms 2 entry F          line   271 file /Users/daniel/Gits/psi4ds/psi4/share/psi4/basis/cc-pvdz-jkfit.gbs 

  ==> Pre-Iterations <==

   -------------------------------------------------------
    Irrep   Nso     Nmo     Nalpha   Nbeta   Ndocc  Nsocc
   -------------------------------------------------------
     A1        10      10       0       0       0       0
     A2         1       1       0       0       0       0
     B1         4       4       0       0       0       0
     B2         4       4       0       0       0       0
   -------------------------------------------------------
    Total      19      19       5       5       5       0
   -------------------------------------------------------

  ==> Integral Setup <==

  ==> DiskDFJK: Density-Fitted J/K Matrices <==

    J tasked:                  Yes
    K tasked:                  Yes
    wK tasked:                 Yes
    Omega:               3.300E-01
    OpenMP threads:              1
    Integrals threads:           1
    Memory (MB):               375
    Algorithm:                Core
    Integral Cache:           NONE
    Schwarz Cutoff:          1E-12
    Fitting Condition:       1E-12

   => Auxiliary Basis Set <=

  Basis Set: (CC-PVDZ AUX)
    Blend: CC-PVDZ-JKFIT
    Number of shells: 33
    Number of basis function: 93
    Number of Cartesian functions: 106
    Spherical Harmonics?: true
    Max angular momentum: 3

  Minimum eigenvalue in the overlap matrix is 7.5349080281E-02.
  Using Symmetric Orthogonalization.

  SCF Guess: Superposition of Atomic Densities via on-the-fly atomic UHF.

  ==> Iterations <==

                           Total Energy        Delta E     RMS |[F,P]|

   @DF-RKS iter   0:  -100.19713905830386   -1.00197e+02   6.82874e-02 
   @DF-RKS iter   1:  -100.36495547574671   -1.67816e-01   2.20334e-02 
   @DF-RKS iter   2:  -100.35934512865084    5.61035e-03   2.61612e-02 DIIS
   @DF-RKS iter   3:  -100.38708168237561   -2.77366e-02   1.03337e-03 DIIS
   @DF-RKS iter   4:  -100.38711409112132   -3.24087e-05   1.59792e-04 DIIS
   @DF-RKS iter   5:  -100.38711508474310   -9.93622e-07   1.13127e-05 DIIS
   @DF-RKS iter   6:  -100.38711509077963   -6.03653e-09   6.52476e-07 DIIS
   @DF-RKS iter   7:  -100.38711509081797   -3.83409e-11   1.27912e-07 DIIS
   @DF-RKS iter   8:  -100.38711509081894   -9.66338e-13   9.23746e-09 DIIS
   @DF-RKS iter   9:  -100.38711509081891    2.84217e-14   4.91704e-10 DIIS
   @DF-RKS iter  10:  -100.38711509081897   -5.68434e-14   8.51581e-12 DIIS
   @DF-RKS iter  11:  -100.38711509081895    1.42109e-14   6.49341e-13 DIIS

  ==> Post-Iterations <==

    Orbital Energies [Eh]
    ---------------------

    Doubly Occupied:                                                      

       1A1   -24.737908     2A1    -1.206477     3A1    -0.550217  
       1B2    -0.437753     1B1    -0.437753  

    Virtual:                                                              

       4A1     0.042446     5A1     0.522375     2B2     1.145150  
       2B1     1.145150     6A1     1.268042     3B2     1.437336  
       3B1     1.437336     7A1     1.761565     8A1     2.008507  
       9A1     3.691547     1A2     3.691547     4B2     3.794903  
       4B1     3.794903    10A1     4.414055  

    Final Occupation by Irrep:
             A1    A2    B1    B2 
    DOCC [     3,    0,    1,    1 ]

  Energy converged.

  @DF-RKS Final Energy:  -100.38711509081895

   => Energetics <=

    Nuclear Repulsion Energy =              4.3190124432189192
    One-Electron Energy =                -149.1839733869113900
    Two-Electron Energy =                  52.4663288364640508
    DFT Exchange-Correlation Energy =      -7.9884829835905364
    Empirical Dispersion Energy =           0.0000000000000000
    VV10 Nonlocal Energy =                  0.0000000000000000
    Total Energy =                       -100.3871150908189520



Properties will be evaluated at   0.000000,   0.000000,   0.000000 [a0]

Properties computed using the SCF density matrix

  Nuclear Dipole Moment: [e a0]
     X:     0.0000      Y:     0.0000      Z:    -1.0341

  Electronic Dipole Moment: [e a0]
     X:     0.0000      Y:     0.0000      Z:     0.2119

  Dipole Moment: [e a0]
     X:     0.0000      Y:     0.0000      Z:    -0.8222     Total:     0.8222

  Dipole Moment: [D]
     X:     0.0000      Y:     0.0000      Z:    -2.0899     Total:     2.0899


*** tstop() called on Daniels-MacBook-Pro.local at Wed Jun 13 20:16:17 2018
Module time:
	user time   =       3.92 seconds =       0.07 minutes
	system time =       0.12 seconds =       0.00 minutes
	total time  =          4 seconds =       0.07 minutes
Total time:
	user time   =      15.61 seconds =       0.26 minutes
	system time =       0.52 seconds =       0.01 minutes
[...]
       4B2     3.797982    10A1     4.422241  

    Final Occupation by Irrep:
             A1    A2    B1    B2 
    DOCC [     3,    0,    1,    1 ]

  Energy converged.

  @DF-RKS Final Energy:  -100.38823065793106

   => Energetics <=

    Nuclear Repulsion Energy =              4.3403033184770754
    One-Electron Energy =                -149.2224726440299207
    Two-Electron Energy =                  52.4838481592070849
    DFT Exchange-Correlation Energy =      -7.9899094915852960
    Empirical Dispersion Energy =           0.0000000000000000
    VV10 Nonlocal Energy =                  0.0000000000000000
    PCM Polarization Energy =               0.0000000000000000
    Total Energy =                       -100.3882306579310466

    Alert: EFP and PCM quantities not currently incorporated into SCF psivars.

Properties will be evaluated at   0.000000,   0.000000,   0.000000 [a0]

Properties computed using the SCF density matrix

  Nuclear Dipole Moment: [e a0]
     X:     0.0000      Y:     0.0000      Z:    -1.0290

  Electronic Dipole Moment: [e a0]
     X:     0.0000      Y:     0.0000      Z:     0.2096

  Dipole Moment: [e a0]
     X:     0.0000      Y:     0.0000      Z:    -0.8194     Total:     0.8194

  Dipole Moment: [D]
     X:     0.0000      Y:     0.0000      Z:    -2.0828     Total:     2.0828


*** tstop() called on Daniels-MacBook-Pro.local at Wed Jun 13 20:16:21 2018
Module time:
	user time   =       4.07 seconds =       0.07 minutes
	system time =       0.12 seconds =       0.00 minutes
	total time  =          4 seconds =       0.07 minutes
Total time:
	user time   =      19.70 seconds =       0.33 minutes
	system time =       0.64 seconds =       0.01 minutes
	total time  =         20 seconds =       0.33 minutes

  //>>>>>>>>>>>>>>>>>>>>>>>>>>>>>>>>>>>//
  //    Loading displacement 4 of 5    //
  //<<<<<<<<<<<<<<<<<<<<<<<<<<<<<<<<<<<//

*** tstart() called on Daniels-MacBook-Pro.local
*** at Wed Jun 13 20:16:21 2018

   => Loading Basis Set <=

    Name: CC-PVDZ
    Role: ORBITAL
    Keyword: BASIS
    atoms 1 entry H          line    22 file /Users/daniel/Gits/psi4ds/psi4/share/psi4/basis/cc-pvdz.gbs 
    atoms 2 entry F          line   228 file /Users/daniel/Gits/psi4ds/psi4/share/psi4/basis/cc-pvdz.gbs 


         ---------------------------------------------------------
                                   SCF
            by Justin Turney, Rob Parrish, Andy Simmonett
                             and Daniel Smith
                              RKS Reference
                        1 Threads,    500 MiB Core
         ---------------------------------------------------------

  ==> Geometry <==

    Molecular point group: c2v
    Full point group: C_inf_v

    Geometry (in Angstrom), charge = 0, multiplicity = 1:

       Center              X                  Y                   Z               Mass       
    ------------   -----------------  -----------------  -----------------  -----------------
         H            0.000000000000     0.000000000000    -1.039450176055     1.007825032070
         F            0.000000000000     0.000000000000     0.055140629171    18.998403224000

  Running in c2v symmetry.

  Rotational constants: A = ************  B =     14.70130  C =     14.70130 [cm^-1]
  Rotational constants: A = ************  B = 440734.02756  C = 440734.02756 [MHz]
  Nuclear repulsion =    4.351027666752925

  Charge       = 0
  Multiplicity = 1
  Electrons    = 10
  Nalpha       = 5
  Nbeta        = 5

  ==> Algorithm <==

  SCF Algorithm Type is DF.
  DIIS enabled.
  MOM disabled.
  Fractional occupation disabled.
  Guess Type is SAD.
  Energy threshold   = 1.00e-12
  Density threshold  = 1.00e-12
  Integral threshold = 0.00e+00

  ==> Primary Basis <==

  Basis Set: CC-PVDZ
    Blend: CC-PVDZ
    Number of shells: 9
    Number of basis function: 19
    Number of Cartesian functions: 20
    Spherical Harmonics?: true
    Max angular momentum: 2

  ==> DFT Potential <==

   => Composite Functional: CAM-B3LYP <= 

    CAM-B3LYP Hyb-GGA Exchange-Correlation Functional

    T. Yanai, D. P. Tew, and N. C. Handy, Chem. Phys. Lett. 393, 51 (2004)

    Deriv               =              1
    GGA                 =           TRUE
    Meta                =          FALSE

    Exchange Hybrid     =           TRUE
    MP2 Hybrid          =          FALSE

   => Exchange Functionals <=

    0.3500         Becke 88 [omega = 0.3300]
    0.4600   Short-range recipe for exchange GGA functionals [omega = 0.3300]

   => Exact (HF) Exchange <=

    0.4600            HF,LR [omega = 0.3300]
    0.1900               HF 

   => Correlation Functionals <=

    0.1900   Vosko, Wilk & Nusair (VWN5)
    0.8100   Lee, Yang & Parr

   => Molecular Quadrature <=

    Radial Scheme       =       TREUTLER
    Pruning Scheme      =           FLAT
    Nuclear Scheme      =       TREUTLER

    BS radius alpha     =              1
    Pruning alpha       =              1
    Radial Points       =            120
    Spherical Points    =            434
    Total Points        =         101292
    Total Blocks        =            804
    Max Points          =            256
    Max Functions       =             19

   => Loading Basis Set <=

    Name: (CC-PVDZ AUX)
    Role: JKFIT
    Keyword: DF_BASIS_SCF
    atoms 1 entry H          line    51 file /Users/daniel/Gits/psi4ds/psi4/share/psi4/basis/cc-pvdz-jkfit.gbs 
    atoms 2 entry F          line   271 file /Users/daniel/Gits/psi4ds/psi4/share/psi4/basis/cc-pvdz-jkfit.gbs 

  ==> Pre-Iterations <==

   -------------------------------------------------------
    Irrep   Nso     Nmo     Nalpha   Nbeta   Ndocc  Nsocc
   -------------------------------------------------------
     A1        10      10       0       0       0       0
     A2         1       1       0       0       0       0
     B1         4       4       0       0       0       0
     B2         4       4       0       0       0       0
   -------------------------------------------------------
    Total      19      19       5       5       5       0
   -------------------------------------------------------

  ==> Integral Setup <==

  ==> DiskDFJK: Density-Fitted J/K Matrices <==

    J tasked:                  Yes
    K tasked:                  Yes
    wK tasked:                 Yes
    Omega:               3.300E-01
    OpenMP threads:              1
    Integrals threads:           1
    Memory (MB):               375
    Algorithm:                Core
    Integral Cache:           NONE
    Schwarz Cutoff:          1E-12
    Fitting Condition:       1E-12

   => Auxiliary Basis Set <=

  Basis Set: (CC-PVDZ AUX)
    Blend: CC-PVDZ-JKFIT
    Number of shells: 33
    Number of basis function: 93
    Number of Cartesian functions: 106
    Spherical Harmonics?: true
    Max angular momentum: 3

  Minimum eigenvalue in the overlap matrix is 7.4116755575E-02.
  Using Symmetric Orthogonalization.

  SCF Guess: Superposition of Atomic Densities via on-the-fly atomic UHF.

  ==> Iterations <==

                           Total Energy        Delta E     RMS |[F,P]|

   @DF-RKS iter   0:  -100.20068364922665   -1.00201e+02   6.93210e-02 
   @DF-RKS iter   1:  -100.36654617330626   -1.65863e-01   2.20967e-02 
   @DF-RKS iter   2:  -100.36128838834881    5.25778e-03   2.60679e-02 DIIS
   @DF-RKS iter   3:  -100.38874894841096   -2.74606e-02   1.03388e-03 DIIS
   @DF-RKS iter   4:  -100.38878140704772   -3.24586e-05   1.59485e-04 DIIS
   @DF-RKS iter   5:  -100.38878240019255   -9.93145e-07   1.11578e-05 DIIS
   @DF-RKS iter   6:  -100.38878240615172   -5.95917e-09   6.64568e-07 DIIS
   @DF-RKS iter   7:  -100.38878240619125   -3.95346e-11   1.25407e-07 DIIS
   @DF-RKS iter   8:  -100.38878240619216   -9.09495e-13   9.21680e-09 DIIS
   @DF-RKS iter   9:  -100.38878240619215    1.42109e-14   4.78685e-10 DIIS
   @DF-RKS iter  10:  -100.38878240619215    0.00000e+00   8.25830e-12 DIIS
   @DF-RKS iter  11:  -100.38878240619213    1.42109e-14   6.35070e-13 DIIS

  ==> Post-Iterations <==

    Orbital Energies [Eh]
    ---------------------

    Doubly Occupied:                                                      

       1A1   -24.737802     2A1    -1.207971     3A1    -0.551849  
       1B2    -0.438267     1B1    -0.438267  

    Virtual:                                                              

       4A1     0.045080     5A1     0.525763     2B2     1.146523  
       2B1     1.146523     6A1     1.265305     3B2     1.437019  
       3B1     1.437019     7A1     1.773806     8A1     2.008641  
       1A2     3.691048     9A1     3.691048     4B2     3.799543  
       4B1     3.799543    10A1     4.426326  

    Final Occupation by Irrep:
             A1    A2    B1    B2 
    DOCC [     3,    0,    1,    1 ]

  Energy converged.

  @DF-RKS Final Energy:  -100.38878240619213

   => Energetics <=

    Nuclear Repulsion Energy =              4.3510276667529251
    One-Electron Energy =                -149.2418411381653982
    Two-Electron Energy =                  52.4926596576801572
    DFT Exchange-Correlation Energy =      -7.9906285924597942
    Empirical Dispersion Energy =           0.0000000000000000
    VV10 Nonlocal Energy =                  0.0000000000000000
    Total Energy =                       -100.3887824061921350



Properties will be evaluated at   0.000000,   0.000000,   0.000000 [a0]

Properties computed using the SCF density matrix

  Nuclear Dipole Moment: [e a0]
     X:     0.0000      Y:     0.0000      Z:    -1.0265

  Electronic Dipole Moment: [e a0]
     X:     0.0000      Y:     0.0000      Z:     0.2085

  Dipole Moment: [e a0]
     X:     0.0000      Y:     0.0000      Z:    -0.8180     Total:     0.8180

  Dipole Moment: [D]
     X:     0.0000      Y:     0.0000      Z:    -2.0792     Total:     2.0792


*** tstop() called on Daniels-MacBook-Pro.local at Wed Jun 13 20:16:25 2018
Module time:
	user time   =       3.90 seconds =       0.06 minutes
	system time =       0.13 seconds =       0.00 minutes
	total time  =          4 seconds =       0.07 minutes
Total time:
	user time   =      23.62 seconds =       0.39 minutes
	system time =       0.77 seconds =       0.01 minutes
	total time  =         24 seconds =       0.40 minutes

  //>>>>>>>>>>>>>>>>>>>>>>>>>>>>>>>>>>>//
  //    Loading displacement 5 of 5    //
  //<<<<<<<<<<<<<<<<<<<<<<<<<<<<<<<<<<<//

*** tstart() called on Daniels-MacBook-Pro.local
*** at Wed Jun 13 20:16:25 2018

   => Loading Basis Set <=

    Name: CC-PVDZ
    Role: ORBITAL
    Keyword: BASIS
    atoms 1 entry H          line    22 file /Users/daniel/Gits/psi4ds/psi4/share/psi4/basis/cc-pvdz.gbs 
    atoms 2 entry F          line   228 file /Users/daniel/Gits/psi4ds/psi4/share/psi4/basis/cc-pvdz.gbs 


         ---------------------------------------------------------
                                   SCF
            by Justin Turney, Rob Parrish, Andy Simmonett
                             and Daniel Smith
                              RKS Reference
                        1 Threads,    500 MiB Core
         ---------------------------------------------------------

  ==> Geometry <==

    Molecular point group: c2v
    Full point group: C_inf_v

    Geometry (in Angstrom), charge = 0, multiplicity = 1:

       Center              X                  Y                   Z               Mass       
    ------------   -----------------  -----------------  -----------------  -----------------
         H            0.000000000000     0.000000000000    -1.044586879591     1.007825032070
         F            0.000000000000     0.000000000000     0.055413120409    18.998403224000

  Running in c2v symmetry.

  Rotational constants: A = ************  B =     14.55707  C =     14.55707 [cm^-1]
  Rotational constants: A = ************  B = 436410.11018  C = 436410.11018 [MHz]
  Nuclear repulsion =    4.329631706645454

  Charge       = 0
  Multiplicity = 1
  Electrons    = 10
  Nalpha       = 5
  Nbeta        = 5

  ==> Algorithm <==

  SCF Algorithm Type is DF.
  DIIS enabled.
  MOM disabled.
  Fractional occupation disabled.
  Guess Type is SAD.
  Energy threshold   = 1.00e-12
  Density threshold  = 1.00e-12
  Integral threshold = 0.00e+00

  ==> Primary Basis <==

  Basis Set: CC-PVDZ
    Blend: CC-PVDZ
    Number of shells: 9
    Number of basis function: 19
    Number of Cartesian functions: 20
    Spherical Harmonics?: true
    Max angular momentum: 2

  ==> DFT Potential <==

   => Composite Functional: CAM-B3LYP <= 

    CAM-B3LYP Hyb-GGA Exchange-Correlation Functional

    T. Yanai, D. P. Tew, and N. C. Handy, Chem. Phys. Lett. 393, 51 (2004)

    Deriv               =              1
    GGA                 =           TRUE
    Meta                =          FALSE

    Exchange Hybrid     =           TRUE
    MP2 Hybrid          =          FALSE

   => Exchange Functionals <=

    0.3500         Becke 88 [omega = 0.3300]
    0.4600   Short-range recipe for exchange GGA functionals [omega = 0.3300]

   => Exact (HF) Exchange <=

    0.4600            HF,LR [omega = 0.3300]
    0.1900               HF 

   => Correlation Functionals <=

    0.1900   Vosko, Wilk & Nusair (VWN5)
    0.8100   Lee, Yang & Parr

   => Molecular Quadrature <=

    Radial Scheme       =       TREUTLER
    Pruning Scheme      =           FLAT
    Nuclear Scheme      =       TREUTLER

    BS radius alpha     =              1
    Pruning alpha       =              1
    Radial Points       =            120
    Spherical Points    =            434
    Total Points        =         101292
    Total Blocks        =            802
    Max Points          =            256
    Max Functions       =             19

   => Loading Basis Set <=

    Name: (CC-PVDZ AUX)
    Role: JKFIT
    Keyword: DF_BASIS_SCF
    atoms 1 entry H          line    51 file /Users/daniel/Gits/psi4ds/psi4/share/psi4/basis/cc-pvdz-jkfit.gbs 
    atoms 2 entry F          line   271 file /Users/daniel/Gits/psi4ds/psi4/share/psi4/basis/cc-pvdz-jkfit.gbs 

  ==> Pre-Iterations <==

   -------------------------------------------------------
    Irrep   Nso     Nmo     Nalpha   Nbeta   Ndocc  Nsocc
   -------------------------------------------------------
     A1        10      10       0       0       0       0
     A2         1       1       0       0       0       0
     B1         4       4       0       0       0       0
     B2         4       4       0       0       0       0
   -------------------------------------------------------
    Total      19      19       5       5       5       0
   -------------------------------------------------------

  ==> Integral Setup <==

  ==> DiskDFJK: Density-Fitted J/K Matrices <==

    J tasked:                  Yes
    K tasked:                  Yes
    wK tasked:                 Yes
    Omega:               3.300E-01
    OpenMP threads:              1
    Integrals threads:           1
    Memory (MB):               375
    Algorithm:                Core
    Integral Cache:           NONE
    Schwarz Cutoff:          1E-12
    Fitting Condition:       1E-12

   => Auxiliary Basis Set <=

  Basis Set: (CC-PVDZ AUX)
    Blend: CC-PVDZ-JKFIT
    Number of shells: 33
    Number of basis function: 93
    Number of Cartesian functions: 106
    Spherical Harmonics?: true
    Max angular momentum: 3

  Minimum eigenvalue in the overlap matrix is 7.4937690937E-02.
  Using Symmetric Orthogonalization.

  SCF Guess: Superposition of Atomic Densities via on-the-fly atomic UHF.

  ==> Iterations <==

                           Total Energy        Delta E     RMS |[F,P]|

   @DF-RKS iter   0:  -100.27322089704759   -1.00273e+02   6.97502e-02 
   @DF-RKS iter   1:  -100.33752733294722   -6.43064e-02   2.98035e-02 
   @DF-RKS iter   2:  -100.33246486457389    5.06247e-03   3.69837e-02 DIIS
   @DF-RKS iter   3:  -100.38758257939939   -5.51177e-02   1.45425e-03 DIIS
   @DF-RKS iter   4:  -100.38766419846212   -8.16191e-05   4.91160e-04 DIIS
   @DF-RKS iter   5:  -100.38767472321905   -1.05248e-05   4.56194e-05 DIIS
   @DF-RKS iter   6:  -100.38767485344206   -1.30223e-07   1.90872e-06 DIIS
   @DF-RKS iter   7:  -100.38767485398454   -5.42471e-10   3.37628e-07 DIIS
   @DF-RKS iter   8:  -100.38767485399214   -7.60281e-12   1.48867e-08 DIIS
   @DF-RKS iter   9:  -100.38767485399218   -4.26326e-14   1.54056e-09 DIIS
   @DF-RKS iter  10:  -100.38767485399210    8.52651e-14   2.60647e-11 DIIS
   @DF-RKS iter  11:  -100.38767485399215   -5.68434e-14   2.62049e-12 DIIS
   @DF-RKS iter  12:  -100.38767485399214    1.42109e-14   8.32382e-14 DIIS

  ==> Post-Iterations <==

    Orbital Energies [Eh]
    ---------------------

    Doubly Occupied:                                                      

       1A1   -24.737873     2A1    -1.206971     3A1    -0.550760  
       1B2    -0.437923     1B1    -0.437923  

    Virtual:                                                              

       4A1     0.043325     5A1     0.523490     2B2     1.145603  
       2B1     1.145603     6A1     1.267129     3B2     1.437235  
       3B1     1.437235     7A1     1.765664     8A1     2.008506  
       9A1     3.691382     1A2     3.691382     4B1     3.796435  
       4B2     3.796435    10A1     4.418151  

    Final Occupation by Irrep:
             A1    A2    B1    B2 
    DOCC [     3,    0,    1,    1 ]

  Energy converged.

  @DF-RKS Final Energy:  -100.38767485399214

   => Energetics <=

    Nuclear Repulsion Energy =              4.3296317066454542
    One-Electron Energy =                -149.2031835538075200
    Two-Electron Energy =                  52.4750712906152330
    DFT Exchange-Correlation Energy =      -7.9891942974452919
    Empirical Dispersion Energy =           0.0000000000000000
    VV10 Nonlocal Energy =                  0.0000000000000000
    Total Energy =                       -100.3876748539921380



Properties will be evaluated at   0.000000,   0.000000,   0.000000 [a0]

Properties computed using the SCF density matrix

  Nuclear Dipole Moment: [e a0]
     X:     0.0000      Y:     0.0000      Z:    -1.0315

  Electronic Dipole Moment: [e a0]
     X:     0.0000      Y:     0.0000      Z:     0.2107

  Dipole Moment: [e a0]
     X:     0.0000      Y:     0.0000      Z:    -0.8208     Total:     0.8208

  Dipole Moment: [D]
     X:     0.0000      Y:     0.0000      Z:    -2.0863     Total:     2.0863


*** tstop() called on Daniels-MacBook-Pro.local at Wed Jun 13 20:16:30 2018
Module time:
	user time   =       4.25 seconds =       0.07 minutes
	system time =       0.13 seconds =       0.00 minutes
	total time  =          5 seconds =       0.08 minutes
Total time:
	user time   =      27.89 seconds =       0.46 minutes
	system time =       0.90 seconds =       0.01 minutes
	total time  =         29 seconds =       0.48 minutes

-------------------------------------------------------------

  Computing gradient from energies (fd_1_0).
	Using 5-point formula.
	Energy without displacement: -100.3876748540
	Check energies below for precision!
	Forces are for mass-weighted, symmetry-adapted cartesians (in au).

	 Coord      Energy(-2)        Energy(-1)        Energy(+1)        Energy(+2)            Force
	    0   -100.3865514632   -100.3871150908   -100.3882306579   -100.3887824062     -0.1115598982

	Gradient written.

-------------------------------------------------------------
  ## F-D gradient (Symmetry 0) ##
  Irrep: 1 Size: 2 x 3

                 1                   2                   3

    1     0.00000000000000     0.00000000000000    -0.10913815824457
    2     0.00000000000000     0.00000000000000     0.10913815824457



	Analytic vs Reference CAM Gradients...............................PASSED
	Analytic vs FD CAM Gradients......................................PASSED

    Psi4 stopped on: Wednesday, 13 June 2018 08:16PM
    Psi4 wall time for execution: 0:00:28.60

*** Psi4 exiting successfully. Buy a developer a beer!
