
    -----------------------------------------------------------------------
          Psi4: An Open-Source Ab Initio Electronic Structure Package
                               Psi4 undefined 

                         Git: Rev {cc} e57fd5d dirty


    D. G. A. Smith, L. A. Burns, A. C. Simmonett, R. M. Parrish,
    M. C. Schieber, R. Galvelis, P. Kraus, H. Kruse, R. Di Remigio,
    A. Alenaizan, A. M. James, S. Lehtola, J. P. Misiewicz, M. Scheurer,
    R. A. Shaw, J. B. Schriber, Y. Xie, Z. L. Glick, D. A. Sirianni,
    J. S. O'Brien, J. M. Waldrop, A. Kumar, E. G. Hohenstein,
    B. P. Pritchard, B. R. Brooks, H. F. Schaefer III, A. Yu. Sokolov,
    K. Patkowski, A. E. DePrince III, U. Bozkaya, R. A. King,
    F. A. Evangelista, J. M. Turney, T. D. Crawford, C. D. Sherrill,
    J. Chem. Phys. 152(18) 184108 (2020). https://doi.org/10.1063/5.0006002

                            Additional Code Authors
    E. T. Seidl, C. L. Janssen, E. F. Valeev, M. L. Leininger,
    J. F. Gonthier, R. M. Richard, H. R. McAlexander, M. Saitow, X. Wang,
    P. Verma, M. H. Lechner, and A. Jiang

             Previous Authors, Complete List of Code Contributors,
                       and Citations for Specific Modules
    https://github.com/psi4/psi4/blob/master/codemeta.json
    https://github.com/psi4/psi4/graphs/contributors
    http://psicode.org/psi4manual/master/introduction.html#citing-psifour

    -----------------------------------------------------------------------


    Psi4 started on: Friday, 04 March 2022 09:11AM

    Process ID: 6265
    Host:       dhcp189-235.emerson.emory.edu
    PSIDATADIR: /Users/jonathonmisiewicz/psi4/objdir/stage/share/psi4
    Memory:     500.0 MiB
    Threads:    1
    
  ==> Input File <==

--------------------------------------------------------------------------
#! RHF-CC2-LR/cc-pVDZ optical rotation of H2O2.  gauge = both, omega =
#! (589 355 nm)

molecule h2o2 {
  0 1
  O
  O 1 1.39
  H 1 0.94 2 102.3
  H 2 0.94 1 102.3 3 -50.0
}

set {
  basis "cc-pVDZ"
  freeze_core true
  gauge both
  omega [589, 355, nm]
}

wfn = properties('cc2',properties=['rotation'], return_wfn=True)[1]

reflen_589   =    -83.11386  # TEST
refvel_589   =    982.51558  # TEST
refmvg_589   =   -197.35740  # TEST
reflen_355   =   -237.12775  # TEST
refvel_355   =    454.52398  # TEST
refmvg_355   =   -725.34899  # TEST

compare_values(reflen_589,   variable("CC2 SPECIFIC ROTATION (LEN) @ 589NM"),  3, "CC2 rotation @ 589nm in length gauge") # TEST
compare_values(refvel_589,   variable("CC2 SPECIFIC ROTATION (VEL) @ 589NM"),  3, "CC2 rotation @ 589nm in velocity gauge") # TEST
compare_values(refmvg_589,   variable("CC2 SPECIFIC ROTATION (MVG) @ 589NM"),  3, "CC2 rotation @ 589nm in modified velocity gauge") # TEST
compare_values(reflen_355,   variable("CC2 SPECIFIC ROTATION (LEN) @ 355NM"),  3, "CC2 rotation @ 355nm in length gauge") # TEST
compare_values(refvel_355,   variable("CC2 SPECIFIC ROTATION (VEL) @ 355NM"),  3, "CC2 rotation @ 355nm in velocity gauge") # TEST
compare_values(refmvg_355,   variable("CC2 SPECIFIC ROTATION (MVG) @ 355NM"),  3, "CC2 rotation @ 355nm in modified velocity gauge") # TEST

reflenT_589 = psi4.core.Matrix.from_list(         # TEST
   [[0.158728294540701, -0.066346094594991, 0],   # TEST
    [-0.272773167750650, -0.014108130360913, 0],  # TEST
    [0, 0, -0.127667932425137]])                  # TEST
refvelT_589 = psi4.core.Matrix.from_list(         # TEST
   [[0.374037560356785, -0.355326606656807, 0],   # TEST
    [-0.077531897839243, -0.006930950258526, 0],  # TEST
    [0, 0, -0.382608807749249]])                  # TEST
refmvgT_589 = psi4.core.Matrix.from_list(         # TEST
   [[0.012678493985368, -0.011363545769106 , 0],  # TEST
    [-0.021830696459189, -0.000817002475772, 0],  # TEST
    [0, 0, -0.008747573002912]])                  # TEST
reflenT_355 = psi4.core.Matrix.from_list(         # TEST
   [[0.279315257113958, -0.123252236365767, 0],   # TEST
    [-0.488104244073309, -0.028164898177789, 0],  # TEST
    [0, 0, -0.221999666122911]])                  # TEST
refvelT_355 = psi4.core.Matrix.from_list(         # TEST
   [[0.399325680015961, -0.379486455965609, 0],   # TEST
    [-0.120585417980021, -0.008851315481181, 0],  # TEST
    [0, 0, -0.397645874903806]])                  # TEST
refmvgT_355 = psi4.core.Matrix.from_list(         # TEST
   [[0.037966613644544, -0.035523395077908, 0],   # TEST
    [-0.064884216599966, -0.002737367698427, 0],  # TEST
    [0, 0, -0.023784640157469]])                  # TEST

compare_values(reflenT_589,   wfn.variable("CC2 OPTICAL ROTATION TENSOR (LEN) @ 589NM"),  3, "CC2 rotation tensor @ 589nm in length gauge") # TEST
compare_values(refvelT_589,   wfn.variable("CC2 OPTICAL ROTATION TENSOR (VEL) @ 589NM"),  3, "CC2 rotation tensor @ 589nm in velocity gauge") # TEST
compare_values(refmvgT_589,   wfn.variable("CC2 OPTICAL ROTATION TENSOR (MVG) @ 589NM"),  3, "CC2 rotation tensor @ 589nm in modified velocity gauge") # TEST
compare_values(reflenT_355,   wfn.variable("CC2 OPTICAL ROTATION TENSOR (LEN) @ 355NM"),  3, "CC2 rotation tensor @ 355nm in length gauge") # TEST
compare_values(refvelT_355,   wfn.variable("CC2 OPTICAL ROTATION TENSOR (VEL) @ 355NM"),  3, "CC2 rotation tensor @ 355nm in velocity gauge") # TEST
compare_values(refmvgT_355,   wfn.variable("CC2 OPTICAL ROTATION TENSOR (MVG) @ 355NM"),  3, "CC2 rotation tensor @ 355nm in modified velocity gauge") # TEST

refdep_589 = psi4.core.Matrix.from_list([[0, 0, -19.67]]) # TEST
refdep_355 = psi4.core.Matrix.from_list([[0, 0, -73.01]]) # TEST

compare_values(refdep_589, wfn.variable("CC2 ROTATION (LEN) ORIGIN-DEPENDENCE @ 589NM"), 2, "CC2 rotation origin-dependence @ 589nm in length gauge") # TEST
compare_values(refdep_355, wfn.variable("CC2 ROTATION (LEN) ORIGIN-DEPENDENCE @ 355NM"), 2, "CC2 rotation origin-dependence @ 355nm in length gauge") # TEST

--------------------------------------------------------------------------

*** tstart() called on dhcp189-235.emerson.emory.edu
*** at Fri Mar  4 09:11:05 2022

   => Loading Basis Set <=

    Name: CC-PVDZ
    Role: ORBITAL
    Keyword: BASIS
    atoms 1-2 entry O          line   198 file /Users/jonathonmisiewicz/psi4/objdir/stage/share/psi4/basis/cc-pvdz.gbs 
    atoms 3-4 entry H          line    22 file /Users/jonathonmisiewicz/psi4/objdir/stage/share/psi4/basis/cc-pvdz.gbs 


         ---------------------------------------------------------
                                   SCF
               by Justin Turney, Rob Parrish, Andy Simmonett
                          and Daniel G. A. Smith
                              RHF Reference
                        1 Threads,    500 MiB Core
         ---------------------------------------------------------

  ==> Geometry <==

    Molecular point group: c2
    Full point group: C2

    Geometry (in Angstrom), charge = 0, multiplicity = 1:

       Center              X                  Y                   Z               Mass       
    ------------   -----------------  -----------------  -----------------  -----------------
         O            0.000000000000    -0.695000000000    -0.049338350197    15.994914619570
         O            0.000000000000     0.695000000000    -0.049338350197    15.994914619570
         H            0.388142264171    -0.895248563098     0.783035421459     1.007825032230
         H           -0.388142264171     0.895248563098     0.783035421459     1.007825032230

  Running in c2 symmetry.

  Rotational constants: A =     10.61423  B =      0.97044  C =      0.91566 [cm^-1]
  Rotational constants: A = 318206.57700  B =  29093.19760  C =  27450.82465 [MHz]
  Nuclear repulsion =   38.253968531042538

  Charge       = 0
  Multiplicity = 1
  Electrons    = 18
  Nalpha       = 9
  Nbeta        = 9

  ==> Algorithm <==

  SCF Algorithm Type is PK.
  DIIS enabled.
  MOM disabled.
  Fractional occupation disabled.
  Guess Type is SAD.
  Energy threshold   = 1.00e-10
  Density threshold  = 1.00e-10
  Integral threshold = 1.00e-12

  ==> Primary Basis <==

  Basis Set: CC-PVDZ
    Blend: CC-PVDZ
    Number of shells: 18
    Number of basis functions: 38
    Number of Cartesian functions: 40
    Spherical Harmonics?: true
    Max angular momentum: 2

  ==> Integral Setup <==

  Using in-core PK algorithm.
   Calculation information:
      Number of atoms:                   4
      Number of AO shells:              18
      Number of primitives:             54
      Number of atomic orbitals:        40
      Number of basis functions:        38

      Integral cutoff                 1.00e-12
      Number of threads:                 1

  Performing in-core PK
  Using 549822 doubles for integral storage.
  We computed 14706 shell quartets total.
  Whereas there are 14706 unique shell quartets.

  ==> DiskJK: Disk-Based J/K Matrices <==

    J tasked:                  Yes
    K tasked:                  Yes
    wK tasked:                  No
    Memory [MiB]:              375
    Schwarz Cutoff:          1E-12

    OpenMP threads:              1

  Minimum eigenvalue in the overlap matrix is 3.1047221517E-02.
  Reciprocal condition number of the overlap matrix is 8.7919776090E-03.
    Using symmetric orthogonalization.

  ==> Pre-Iterations <==

  SCF Guess: Superposition of Atomic Densities via on-the-fly atomic UHF (no occupation information).

   -------------------------
    Irrep   Nso     Nmo    
   -------------------------
     A         19      19 
     B         19      19 
   -------------------------
    Total      38      38
   -------------------------

  ==> Iterations <==

                        Total Energy        Delta E     RMS |[F,P]|

   @RHF iter SAD:  -150.13109142562024   -1.50131e+02   0.00000e+00 
   @RHF iter   1:  -150.72994418505689   -5.98853e-01   1.20798e-02 ADIIS/DIIS
   @RHF iter   2:  -150.77474437542560   -4.48002e-02   3.93712e-03 ADIIS/DIIS
   @RHF iter   3:  -150.77872862263544   -3.98425e-03   9.99210e-04 ADIIS/DIIS
   @RHF iter   4:  -150.77914039140393   -4.11769e-04   2.79341e-04 ADIIS/DIIS
   @RHF iter   5:  -150.77918120037560   -4.08090e-05   4.90416e-05 DIIS
   @RHF iter   6:  -150.77918362626588   -2.42589e-06   1.25561e-05 DIIS
   @RHF iter   7:  -150.77918384927850   -2.23013e-07   3.89306e-06 DIIS
   @RHF iter   8:  -150.77918387131712   -2.20386e-08   8.16021e-07 DIIS
   @RHF iter   9:  -150.77918387210673   -7.89612e-10   1.49862e-07 DIIS
   @RHF iter  10:  -150.77918387212881   -2.20837e-11   3.10838e-08 DIIS
   @RHF iter  11:  -150.77918387212995   -1.13687e-12   6.61314e-09 DIIS
   @RHF iter  12:  -150.77918387212989    5.68434e-14   1.38427e-09 DIIS
   @RHF iter  13:  -150.77918387212989    0.00000e+00   3.04978e-10 DIIS
   @RHF iter  14:  -150.77918387213012   -2.27374e-13   6.31112e-11 DIIS
  Energy and wave function converged.


  ==> Post-Iterations <==

    Orbital Energies [Eh]
    ---------------------

    Doubly Occupied:                                                      

       1A    -20.619349     1B    -20.619013     2A     -1.507787  
       2B     -1.207608     3A     -0.772079     3B     -0.669170  
       4A     -0.610850     4B     -0.534579     5A     -0.457771  

    Virtual:                                                              

       6A      0.170058     5B      0.207922     6B      0.357579  
       7A      0.826680     7B      0.851681     8A      1.130818  
       8B      1.137986     9B      1.173859     9A      1.187142  
      10A      1.286565    10B      1.298497    11A      1.497098  
      12A      1.540883    11B      1.559287    12B      1.733951  
      13A      1.913157    13B      2.037507    14A      2.460009  
      14B      2.503912    15B      2.672803    15A      2.821554  
      16A      2.932536    17A      3.274207    16B      3.309357  
      18A      3.503492    17B      3.609638    18B      3.917634  
      19A      4.000575    19B      4.287100  

    Final Occupation by Irrep:
              A     B 
    DOCC [     5,    4 ]

  @RHF Final Energy:  -150.77918387213012

   => Energetics <=

    Nuclear Repulsion Energy =             38.2539685310425384
    One-Electron Energy =                -284.0698924306772142
    Two-Electron Energy =                  95.0367400275045497
    Total Energy =                       -150.7791838721301190

Computation Completed


Properties will be evaluated at   0.000000,   0.000000,   0.000000 [a0]

Properties computed using the SCF density matrix

  Nuclear Dipole Moment: [e a0]
     X:     0.0000      Y:     0.0000      Z:     1.4677

  Electronic Dipole Moment: [e a0]
     X:     0.0000      Y:     0.0000      Z:    -0.2602

  Dipole Moment: [e a0]
     X:     0.0000      Y:     0.0000      Z:     1.2074     Total:     1.2074

  Dipole Moment: [D]
     X:     0.0000      Y:     0.0000      Z:     3.0690     Total:     3.0690


*** tstop() called on dhcp189-235.emerson.emory.edu at Fri Mar  4 09:11:06 2022
Module time:
	user time   =       0.63 seconds =       0.01 minutes
	system time =       0.06 seconds =       0.00 minutes
	total time  =          1 seconds =       0.02 minutes
Total time:
	user time   =       0.63 seconds =       0.01 minutes
	system time =       0.06 seconds =       0.00 minutes
	total time  =          1 seconds =       0.02 minutes
 MINTS: Wrapper to libmints.
   by Justin Turney

   Calculation information:
      Number of threads:                 1
      Number of atoms:                   4
      Number of AO shells:              18
      Number of SO shells:               9
      Number of primitives:             54
      Number of atomic orbitals:        40
      Number of basis functions:        38

      Number of irreps:                  2
      Integral cutoff                 1.00e-12
      Number of functions per irrep: [  19   19 ]

 OEINTS: Overlap, kinetic, potential, dipole, and quadrupole integrals
         stored in file 35.

      Computing two-electron integrals...done
      Computed 107467 non-zero two-electron integrals.
        Stored in file 33.


*** tstart() called on dhcp189-235.emerson.emory.edu
*** at Fri Mar  4 09:11:06 2022


	Wfn Parameters:
	--------------------
	Wavefunction         = CC2
	Number of irreps     = 2
	Number of MOs        = 38
	Number of active MOs = 36
	AO-Basis             = NONE
	Semicanonical        = false
	Reference            = RHF
	Print Level          = 1

	IRREP	# MOs	# FZDC	# DOCC	# SOCC	# VIRT	# FZVR
	-----	-----	------	------	------	------	------
	 A	   19	    1	    4	    0	    14	    0
	 B	   19	    1	    3	    0	    15	    0
	Transforming integrals...
	IWL integrals will be deleted.
	(OO|OO)...
	Presorting SO-basis two-electron integrals.
	Sorting File: SO Ints (nn|nn) nbuckets = 1
	Constructing frozen core operators
	Starting first half-transformation.
	Sorting half-transformed integrals.
	First half integral transformation complete.
	Starting second half-transformation.
	Two-electron integral transformation complete.
	(OO|OV)...
	Starting second half-transformation.
	Two-electron integral transformation complete.
	(OO|VV)...
	Starting second half-transformation.
	Two-electron integral transformation complete.
	(OV|OO)...
	Starting first half-transformation.
	Sorting half-transformed integrals.
	First half integral transformation complete.
	Starting second half-transformation.
	Two-electron integral transformation complete.
	(OV|OV)...
	Starting second half-transformation.
	Two-electron integral transformation complete.
	(OV|VV)...
	Starting second half-transformation.
	Two-electron integral transformation complete.
	(VV|OO)...
	Starting first half-transformation.
	Sorting half-transformed integrals.
	First half integral transformation complete.
	Starting second half-transformation.
	Two-electron integral transformation complete.
	(VV|OV)...
	Starting second half-transformation.
	Two-electron integral transformation complete.
	(VV|VV)...
	Starting second half-transformation.
	Two-electron integral transformation complete.
	Frozen core energy     =   -132.27484829822757

	Size of irrep 0 of <ab|cd> integrals:      0.177 (MW) /      1.418 (MB)
	Size of irrep 1 of <ab|cd> integrals:      0.176 (MW) /      1.411 (MB)
	Total:                                     0.354 (MW) /      2.829 (MB)

	Size of irrep 0 of <ia|bc> integrals:      0.043 (MW) /      0.340 (MB)
	Size of irrep 1 of <ia|bc> integrals:      0.043 (MW) /      0.343 (MB)
	Total:                                     0.085 (MW) /      0.683 (MB)

	Size of irrep 0 of tijab amplitudes:       0.011 (MW) /      0.084 (MB)
	Size of irrep 1 of tijab amplitudes:       0.010 (MW) /      0.081 (MB)
	Total:                                     0.021 (MW) /      0.165 (MB)

	Nuclear Rep. energy          =     38.25396853104254
	SCF energy                   =   -150.77918387213012
	One-electron energy          =   -101.99691974243702
	Two-electron energy          =     45.23861563749199
	Reference energy             =   -150.77918387213006

*** tstop() called on dhcp189-235.emerson.emory.edu at Fri Mar  4 09:11:06 2022
Module time:
	user time   =       0.06 seconds =       0.00 minutes
	system time =       0.12 seconds =       0.00 minutes
	total time  =          0 seconds =       0.00 minutes
Total time:
	user time   =       0.78 seconds =       0.01 minutes
	system time =       0.20 seconds =       0.00 minutes
	total time  =          1 seconds =       0.02 minutes
            **************************
            *                        *
            *        CCENERGY        *
            *                        *
            **************************

    Nuclear Rep. energy (wfn)     =   38.253968531042538
    SCF energy          (wfn)     = -150.779183872130119
    Reference energy    (file100) = -150.779183872130062

    Input parameters:
    -----------------
    Wave function   =     CC2
    Reference wfn   =     RHF
    Brueckner       =     No
    Memory (Mbytes) =     524.3
    Maxiter         =     50
    R_Convergence   =     1.0e-07
    E_Convergence   =     1.0e-08
    Restart         =     Yes
    DIIS            =     Yes
    AO Basis        =     NONE
    ABCD            =     NEW
    Cache Level     =     2
    Cache Type      =     LOW
    Print Level     =     1
    Num. of threads =     1
    # Amps to Print =     10
    Print MP2 Amps? =     No
    Analyze T2 Amps =     No
    Print Pair Ener =     No
    Local CC        =     No
    SCS-MP2         =     False
    SCSN-MP2        =     False
    SCS-CCSD        =     False

MP2 correlation energy -0.3802563047354586
                Solving CC Amplitude Equations
                ------------------------------
  Iter             Energy              RMS        T1Diag      D1Diag    New D1Diag    D2Diag
  ----     ---------------------    ---------   ----------  ----------  ----------   --------
     0        -0.380256304735459    0.000e+00    0.000000    0.000000    0.000000    0.143419
     1        -0.380254802043587    2.350e-02    0.006281    0.014957    0.014957    0.143419
     2        -0.382926538507102    6.976e-03    0.007604    0.017580    0.017580    0.146255
     3        -0.383312066377206    2.742e-03    0.008393    0.018848    0.018848    0.146676
     4        -0.383283494671537    9.595e-04    0.008568    0.018859    0.018859    0.146729
     5        -0.383286624463662    3.462e-04    0.008637    0.018841    0.018841    0.146745
     6        -0.383290104872715    9.323e-05    0.008642    0.018836    0.018836    0.146748
     7        -0.383289931534168    3.248e-05    0.008643    0.018835    0.018835    0.146748
     8        -0.383289792746596    1.255e-05    0.008643    0.018835    0.018835    0.146748
     9        -0.383289822632053    3.458e-06    0.008643    0.018835    0.018835    0.146748
    10        -0.383289825608555    1.544e-06    0.008643    0.018835    0.018835    0.146748
    11        -0.383289835659146    4.659e-07    0.008643    0.018835    0.018835    0.146748
    12        -0.383289839695128    1.935e-07    0.008643    0.018835    0.018835    0.146748
    13        -0.383289840168352    7.060e-08    0.008643    0.018835    0.018835    0.146748

    Iterations converged.


    Largest TIA Amplitudes:
              5  14        -0.0109554489
              6  14        -0.0098594077
              2   7        -0.0085098715
              2   9        -0.0082148274
              2   4         0.0076053346
              5  17         0.0075277218
              1   0        -0.0069350391
              1   8        -0.0069268906
              1   3         0.0063772897
              2   3        -0.0057368806

    Largest TIjAb Amplitudes:
      2   2  15  15        -0.0557781564
      1   1  15  15        -0.0278636304
      1   2  15  15         0.0272969980
      2   1  15  15         0.0272969980
      2   2  14  15         0.0270427369
      2   2  15  14         0.0270427369
      3   3  17  17        -0.0218529145
      2   3  15  17         0.0214876843
      3   2  17  15         0.0214876843
      2   6  15   2         0.0208245681

    SCF energy       (wfn)                    = -150.779183872130119
    Reference energy (file100)                = -150.779183872130062

    Opposite-spin MP2 correlation energy      =   -0.282698986958719
    Same-spin MP2 correlation energy          =   -0.097557317776740
    Singles MP2 correlation energy            =   -0.000000000000000
    MP2 correlation energy                    =   -0.380256304735459
      * MP2 total energy                      = -151.159440176865530
    CC2 correlation energy                    =   -0.383289840168352
      * CC2 total energy                      = -151.162473712298407


			**************************
			*                        *
			*         CCHBAR         *
			*                        *
			**************************


			**************************
			*        CCLAMBDA        *
			**************************


	Nuclear Rep. energy (wfn)     =   38.253968531042538
	Reference           (wfn)     =                    0
	SCF energy          (wfn)     = -150.779183872130119
	Reference energy    (CC_INFO) = -150.779183872130062
	CC2 energy          (CC_INFO) =   -0.383289840168352
	Total CC2 energy    (CC_INFO) = -151.162473712298407

	Input parameters:
	-----------------
	Maxiter           =     50
	Convergence       = 1.0e-07
	Restart           =     No
	Cache Level       =     2
	Model III         =     No
	DIIS              =     Yes
	AO Basis          =     No
	ABCD              =     NEW
	Local CC          =     No
	Parameters for left-handed eigenvectors:
	    Irr   Root  Ground-State?    EOM energy        R0
	  1   0     0        Yes       0.0000000000   1.0000000000
	Labels for eigenvector 1:
	LIA 0 -1, Lia 0 -1, LIJAB 0 -1, Lijab 0 -1, LIjAb 0 -1, 2LIjAb - LIjbA 0 -1
	Deleting old CC_LAMBDA data.
	Symmetry of left-hand state: A
	Symmetry of left-hand eigenvector: A

	          Solving Lambda Equations
	          ------------------------
	Iter     PseudoEnergy or Norm         RMS  
	----     ---------------------     --------
	   0        -0.383295396774597    0.000e+00
	   1        -0.383120321753111    1.686e-03
	   2        -0.383118990017550    4.354e-04
	   3        -0.383116157415086    2.067e-04
	   4        -0.383115581004226    6.283e-05
	   5        -0.383115058958592    2.959e-05
	   6        -0.383114942814909    9.670e-06
	   7        -0.383114953622675    3.957e-06
	   8        -0.383114968305727    1.278e-06
	   9        -0.383114971985180    5.372e-07
	  10        -0.383114972635092    1.690e-07
	  11        -0.383114972119496    6.804e-08

	Largest LIA Amplitudes:
	          5  14        -0.0106325449
	          6  14        -0.0091021046
	          2   7        -0.0085623601
	          2   9        -0.0085246839
	          2   4         0.0077474299
	          5  17         0.0076075597
	          1   8        -0.0069597319
	          1   3         0.0064431890
	          1   0        -0.0061242831
	          2   3        -0.0058807096

	Largest LIjAb Amplitudes:
	  2   2  15  15        -0.0557451675
	  1   1  15  15        -0.0278670139
	  1   2  15  15         0.0272995606
	  2   1  15  15         0.0272995606
	  2   2  14  15         0.0269850136
	  2   2  15  14         0.0269850136
	  3   3  17  17        -0.0218489277
	  2   3  15  17         0.0214821805
	  3   2  17  15         0.0214821805
	  2   6  15   2         0.0208269408

	Iterations converged.

	Overlap <L|e^T> =        0.89784269438
			**************************
			*                        *
			*       ccresponse       *
			*                        *
			**************************

	Input parameters:
	-----------------
	Property         =    ROTATION
	Reference wfn    =    RHF
	Memory (Mbytes)  =    524.3
	Cache Level      =    0
	Print Level      =    1
	Maxiter          =    50
	Convergence      =    1.0e-07
	Restart          =    Allowed
	DIIS             =    Yes
	Model III        =    No
	Linear Model     =    No
	ABCD             =    NEW
	Irrep X          =    B
	Irrep Y          =    B
	Irrep Z          =    A
	Irrep RX         =    B
	Irrep RY         =    B
	Irrep RZ         =    A
	Gauge            =    BOTH
	Applied field  0 =    0.077 E_h (589.00 nm, 2.105 eV, 16977.93 cm-1)
	Applied field  1 =    0.128 E_h (355.00 nm, 3.493 eV, 28169.01 cm-1)
	Analyze X2 Amps  =    No
	Local CC         =    No


	Computing P_X-Perturbed Wave Function (0.000 E_h).
	Iter   Pseudopolarizability       RMS 
	----   --------------------   -----------
	   0         8.303506865909
	   1         9.193848241281    2.084e-01
	   2         9.636843414581    9.790e-02
	   3         9.678481355665    3.741e-02
	   4         9.680529602045    1.626e-02
	   5         9.682153209913    4.818e-03
	   6         9.682771913444    2.297e-03
	   7         9.682666066237    8.525e-04
	   8         9.682666248409    3.434e-04
	   9         9.682641180956    1.111e-04
	  10         9.682657352021    4.506e-05
	  11         9.682662585294    1.191e-05
	  12         9.682664932566    2.896e-06
	  13         9.682666069459    1.103e-06
	  14         9.682666514714    4.728e-07
	  15         9.682666709664    1.708e-07
	-----------------------------------------
	Converged P_X-Perturbed Wfn to 8.248e-08

	Computing L_X-Perturbed Wave Function (0.000 E_h).
	Iter   Pseudopolarizability       RMS 
	----   --------------------   -----------
	   0         4.658665804179
	   1         5.704690061561    2.985e-01
	   2         6.599421117789    1.748e-01
	   3         6.680295180431    4.474e-02
	   4         6.699746541734    2.323e-02
	   5         6.704527570732    5.924e-03
	   6         6.705370846537    3.380e-03
	   7         6.705465927930    1.070e-03
	   8         6.705502245913    4.580e-04
	   9         6.705475518084    1.760e-04
	  10         6.705489927826    5.804e-05
	  11         6.705502171917    1.459e-05
	  12         6.705510487433    5.077e-06
	  13         6.705514454507    2.013e-06
	  14         6.705515877404    9.032e-07
	  15         6.705516437873    3.695e-07
	  16         6.705516790219    1.819e-07
	-----------------------------------------
	Converged L_X-Perturbed Wfn to 4.561e-08

	Computing P_Y-Perturbed Wave Function (0.000 E_h).
	Iter   Pseudopolarizability       RMS 
	----   --------------------   -----------
	   0         8.534960061095
	   1         9.662955048793    2.594e-01
	   2        10.311216717369    1.272e-01
	   3        10.453780834693    3.858e-02
	   4        10.453181167030    1.193e-02
	   5        10.455159103778    2.811e-03
	   6        10.455095700522    1.211e-03
	   7        10.455078036836    3.142e-04
	   8        10.455107734946    1.311e-04
	   9        10.455078225476    6.280e-05
	  10        10.455091284139    2.849e-05
	  11        10.455092427010    1.062e-05
	  12        10.455096261458    4.054e-06
	  13        10.455096722947    1.529e-06
	  14        10.455096982308    3.897e-07
	  15        10.455096896682    1.244e-07
	-----------------------------------------
	Converged P_Y-Perturbed Wfn to 4.187e-08

	Computing L_Y-Perturbed Wave Function (0.000 E_h).
	Iter   Pseudopolarizability       RMS 
	----   --------------------   -----------
	   0         0.265569208937
	   1         0.345655463795    8.536e-02
	   2         0.420530804115    5.209e-02
	   3         0.425461901297    1.249e-02
	   4         0.427365316881    6.088e-03
	   5         0.427542612974    9.749e-04
	   6         0.427509609343    4.969e-04
	   7         0.427519919797    2.217e-04
	   8         0.427518922319    8.525e-05
	   9         0.427518627674    1.809e-05
	  10         0.427519132043    7.296e-06
	  11         0.427519331326    1.886e-06
	  12         0.427519444789    8.257e-07
	  13         0.427519448602    1.342e-07
	-----------------------------------------
	Converged L_Y-Perturbed Wfn to 5.740e-08

	Computing P_Z-Perturbed Wave Function (0.000 E_h).
	Iter   Pseudopolarizability       RMS 
	----   --------------------   -----------
	   0         8.900528728441
	   1         9.878642365639    2.427e-01
	   2        10.457896569394    1.085e-01
	   3        10.517749226164    3.202e-02
	   4        10.515790498338    1.234e-02
	   5        10.517078551666    3.286e-03
	   6        10.517568515413    1.572e-03
	   7        10.517522653753    5.148e-04
	   8        10.517520998676    1.968e-04
	   9        10.517504375542    6.432e-05
	  10        10.517514809511    1.919e-05
	  11        10.517517847963    8.747e-06
	  12        10.517519932102    3.414e-06
	  13        10.517520565449    1.629e-06
	  14        10.517520569494    5.276e-07
	  15        10.517520644137    1.984e-07
	-----------------------------------------
	Converged P_Z-Perturbed Wfn to 7.864e-08

	Computing L_Z-Perturbed Wave Function (0.000 E_h).
	Iter   Pseudopolarizability       RMS 
	----   --------------------   -----------
	   0         4.142894943316
	   1         4.996917111865    2.678e-01
	   2         5.722970149736    1.723e-01
	   3         5.835413457275    5.784e-02
	   4         5.872583700103    2.932e-02
	   5         5.875284420621    6.235e-03
	   6         5.875993483582    3.318e-03
	   7         5.875898013848    8.112e-04
	   8         5.875822534791    2.735e-04
	   9         5.875790869910    8.796e-05
	  10         5.875786465865    3.553e-05
	  11         5.875789799927    1.320e-05
	  12         5.875792692344    4.578e-06
	  13         5.875794338704    1.752e-06
	  14         5.875795435202    8.775e-07
	  15         5.875796136177    3.241e-07
	  16         5.875796520047    1.552e-07
	-----------------------------------------
	Converged L_Z-Perturbed Wfn to 4.151e-08

	Computing <<P;L>>_(0.000) tensor.

     CC2 Optical Rotation Tensor (Velocity Gauge): <<P;L>>_(0.000)
  -------------------------------------------------------------------------
   Evaluated at omega = 0.00 E_h (Inf nm, 0.0 eV, 0.0 cm-1)
  -------------------------------------------------------------------------

                   0                     1                     2        

    0      0.361359066371417    -0.343963060887702     0.000000000000000
    1     -0.055701201380055    -0.006113947782754     0.000000000000000
    2      0.000000000000000     0.000000000000000    -0.373861234746337

	Computing Mu_X-Perturbed Wave Function (-0.077 E_h).
	Iter   Pseudopolarizability       RMS 
	----   --------------------   -----------
	   0         3.958253914344
	   1         4.677945105525    2.295e-01
	   2         5.194708680546    1.156e-01
	   3         5.223843923674    2.586e-02
	   4         5.226847510195    1.016e-02
	   5         5.227467813533    2.194e-03
	   6         5.227668235283    8.875e-04
	   7         5.227636358409    2.763e-04
	   8         5.227622106909    1.088e-04
	   9         5.227613544621    3.847e-05
	  10         5.227613599109    1.719e-05
	  11         5.227615180784    3.938e-06
	  12         5.227616164432    9.343e-07
	  13         5.227616572064    3.329e-07
	  14         5.227616753876    1.318e-07
	-----------------------------------------
	Converged Mu_X-Perturbed Wfn to 3.955e-08

	Computing P_X-Perturbed Wave Function (-0.077 E_h).
	Iter   Pseudopolarizability       RMS 
	----   --------------------   -----------
	   0         8.040020335898
	   1         8.863945648366    1.867e-01
	   2         9.238808939094    7.879e-02
	   3         9.264717403905    2.650e-02
	   4         9.263643141447    1.048e-02
	   5         9.264423448323    2.642e-03
	   6         9.264672276906    1.147e-03
	   7         9.264630140357    3.812e-04
	   8         9.264627536012    1.363e-04
	   9         9.264617832651    3.912e-05
	  10         9.264623355704    1.402e-05
	  11         9.264625210439    3.784e-06
	  12         9.264625977437    8.798e-07
	  13         9.264626306375    3.029e-07
	  14         9.264626420597    1.198e-07
	-----------------------------------------
	Converged P_X-Perturbed Wfn to 4.121e-08

	Computing L_X-Perturbed Wave Function (0.077 E_h).
	Iter   Pseudopolarizability       RMS 
	----   --------------------   -----------
	   0         4.909269846734
	   1         6.098499188989    3.500e-01
	   2         7.261780793360    2.268e-01
	   3         7.434267551763    6.951e-02
	   4         7.483209092479    3.985e-02
	   5         7.496330648252    1.229e-02
	   6         7.499259460597    7.641e-03
	   7         7.499885450681    2.891e-03
	   8         7.500087182084    1.506e-03
	   9         7.500033582558    6.224e-04
	  10         7.500090322789    2.277e-04
	  11         7.500136429414    6.297e-05
	  12         7.500173440494    2.554e-05
	  13         7.500190439972    1.065e-05
	  14         7.500198622635    5.767e-06
	  15         7.500202838183    2.677e-06
	  16         7.500206039318    1.296e-06
	  17         7.500206550783    2.883e-07
	  18         7.500206832905    1.101e-07
	-----------------------------------------
	Converged L_X-Perturbed Wfn to 5.441e-08

	Computing Mu_Y-Perturbed Wave Function (-0.077 E_h).
	Iter   Pseudopolarizability       RMS 
	----   --------------------   -----------
	   0         8.692592226057
	   1        10.490408230054    3.939e-01
	   2        12.018989179352    2.063e-01
	   3        12.236694990572    5.074e-02
	   4        12.243823461861    1.469e-02
	   5        12.248391451378    3.641e-03
	   6        12.248129952448    1.635e-03
	   7        12.247909803943    4.952e-04
	   8        12.248046738338    2.222e-04
	   9        12.248019063100    6.429e-05
	  10        12.248025252754    1.911e-05
	  11        12.248027640796    6.466e-06
	  12        12.248030672784    2.198e-06
	  13        12.248031739290    5.363e-07
	  14        12.248032062335    1.460e-07
	-----------------------------------------
	Converged Mu_Y-Perturbed Wfn to 5.555e-08

	Computing P_Y-Perturbed Wave Function (-0.077 E_h).
	Iter   Pseudopolarizability       RMS 
	----   --------------------   -----------
	   0         8.168849915416
	   1         9.199498399332    2.323e-01
	   2         9.751285338017    1.044e-01
	   3         9.849582079193    2.886e-02
	   4         9.847891010898    8.152e-03
	   5         9.848966213523    1.673e-03
	   6         9.848921178874    6.489e-04
	   7         9.848917710758    1.569e-04
	   8         9.848928309049    5.212e-05
	   9         9.848919162862    2.225e-05
	  10         9.848922964503    9.841e-06
	  11         9.848923579212    2.998e-06
	  12         9.848924621692    9.961e-07
	  13         9.848924824738    3.861e-07
	  14         9.848924905308    1.054e-07
	-----------------------------------------
	Converged P_Y-Perturbed Wfn to 2.869e-08

	Computing L_Y-Perturbed Wave Function (0.077 E_h).
	Iter   Pseudopolarizability       RMS 
	----   --------------------   -----------
	   0         0.280438991011
	   1         0.371361833248    1.009e-01
	   2         0.471651539693    6.845e-02
	   3         0.484364603781    2.032e-02
	   4         0.489347442758    1.073e-02
	   5         0.489911795774    2.331e-03
	   6         0.489834703629    1.420e-03
	   7         0.489907733992    7.630e-04
	   8         0.489907737538    2.549e-04
	   9         0.489906309086    6.078e-05
	  10         0.489908389547    3.042e-05
	  11         0.489908743028    8.951e-06
	  12         0.489909083063    4.525e-06
	  13         0.489909105508    1.152e-06
	  14         0.489909246939    6.152e-07
	  15         0.489909364458    2.200e-07
	-----------------------------------------
	Converged L_Y-Perturbed Wfn to 8.192e-08

	Computing Mu_Z-Perturbed Wave Function (-0.077 E_h).
	Iter   Pseudopolarizability       RMS 
	----   --------------------   -----------
	   0         6.035221637173
	   1         7.203431551392    3.036e-01
	   2         8.082456108057    1.437e-01
	   3         8.136577399095    2.983e-02
	   4         8.138127808474    1.036e-02
	   5         8.139238758174    2.346e-03
	   6         8.139491392883    1.024e-03
	   7         8.139434578310    2.591e-04
	   8         8.139430370979    1.022e-04
	   9         8.139425968136    2.475e-05
	  10         8.139428083306    7.449e-06
	  11         8.139428901283    2.414e-06
	  12         8.139429451922    7.302e-07
	  13         8.139429665180    2.172e-07
	-----------------------------------------
	Converged Mu_Z-Perturbed Wfn to 7.344e-08

	Computing P_Z-Perturbed Wave Function (-0.077 E_h).
	Iter   Pseudopolarizability       RMS 
	----   --------------------   -----------
	   0         8.560298665088
	   1         9.452235210902    2.172e-01
	   2         9.939009712157    8.863e-02
	   3         9.979824026365    2.356e-02
	   4         9.977126654123    8.216e-03
	   5         9.977792539174    1.942e-03
	   6         9.978033686231    8.294e-04
	   7         9.978013817330    2.481e-04
	   8         9.978013713971    8.154e-05
	   9         9.978007072858    2.459e-05
	  10         9.978010586000    6.088e-06
	  11         9.978011705949    2.188e-06
	  12         9.978012328340    7.244e-07
	  13         9.978012552785    3.194e-07
	-----------------------------------------
	Converged P_Z-Perturbed Wfn to 9.966e-08

	Computing L_Z-Perturbed Wave Function (0.077 E_h).
	Iter   Pseudopolarizability       RMS 
	----   --------------------   -----------
	   0         4.333764788840
	   1         5.296520282070    3.172e-01
	   2         6.231001480119    2.287e-01
	   3         6.496507748829    9.756e-02
	   4         6.601902823335    5.559e-02
	   5         6.615164146260    1.513e-02
	   6         6.618869496915    8.529e-03
	   7         6.618879503388    2.377e-03
	   8         6.618572541817    9.321e-04
	   9         6.618465195689    3.594e-04
	  10         6.618442393058    1.658e-04
	  11         6.618451795640    6.184e-05
	  12         6.618467449023    2.133e-05
	  13         6.618475890198    8.629e-06
	  14         6.618483489125    4.974e-06
	  15         6.618489188189    2.048e-06
	  16         6.618492218570    9.175e-07
	  17         6.618493144040    2.370e-07
	-----------------------------------------
	Converged L_Z-Perturbed Wfn to 6.773e-08

	Computing 1/2 <<Mu;L>>_(0.077) tensor.
	Computing 1/2 <<P;L>>_(0.077) tensor.

	Computing Mu_X-Perturbed Wave Function (0.077 E_h).
	Iter   Pseudopolarizability       RMS 
	----   --------------------   -----------
	   0         4.375799322301
	   1         5.296859580922    3.096e-01
	   2         6.160547142255    1.889e-01
	   3         6.261605972759    5.683e-02
	   4         6.288911096115    2.841e-02
	   5         6.293219847134    9.327e-03
	   6         6.295001964728    4.895e-03
	   7         6.294804780865    2.214e-03
	   8         6.294697842946    1.065e-03
	   9         6.294565673178    5.236e-04
	  10         6.294593738772    2.339e-04
	  11         6.294619955874    5.184e-05
	  12         6.294638586763    1.755e-05
	  13         6.294647174032    7.981e-06
	  14         6.294652297518    3.968e-06
	  15         6.294654503089    1.440e-06
	  16         6.294655308174    5.885e-07
	  17         6.294655399712    1.479e-07
	-----------------------------------------
	Converged Mu_X-Perturbed Wfn to 5.886e-08

	Computing P*_X-Perturbed Wave Function (0.077 E_h).
	Iter   Pseudopolarizability       RMS 
	----   --------------------   -----------
	   0         8.589500972541
	   1         9.557968181970    2.364e-01
	   2        10.091844488144    1.253e-01
	   3        10.164909245322    5.563e-02
	   4        10.178022258604    2.728e-02
	   5        10.182250529589    9.925e-03
	   6        10.184337355483    5.307e-03
	   7        10.184106076796    2.293e-03
	   8        10.184170581865    1.063e-03
	   9        10.184098313513    4.046e-04
	  10        10.184163070549    1.811e-04
	  11        10.184182057090    4.660e-05
	  12        10.184190644814    1.282e-05
	  13        10.184195582266    5.641e-06
	  14        10.184197724373    2.666e-06
	  15        10.184198824883    1.041e-06
	  16        10.184199324230    5.581e-07
	  17        10.184199424541    2.539e-07
	  18        10.184199438105    1.021e-07
	-----------------------------------------
	Converged P*_X-Perturbed Wfn to 3.155e-08

	Computing L*_X-Perturbed Wave Function (-0.077 E_h).
	Iter   Pseudopolarizability       RMS 
	----   --------------------   -----------
	   0         4.439398845489
	   1         5.371293170028    2.594e-01
	   2         6.076617232973    1.387e-01
	   3         6.119138869422    3.100e-02
	   4         6.127598161322    1.467e-02
	   5         6.129699893578    3.204e-03
	   6         6.130036168033    1.681e-03
	   7         6.130049823277    4.765e-04
	   8         6.130060254578    1.704e-04
	   9         6.130049000544    6.134e-05
	  10         6.130053952782    1.861e-05
	  11         6.130057760951    4.494e-06
	  12         6.130060114640    1.399e-06
	  13         6.130061221530    5.305e-07
	  14         6.130061559488    2.079e-07
	-----------------------------------------
	Converged L*_X-Perturbed Wfn to 7.568e-08

	Computing Mu_Y-Perturbed Wave Function (0.077 E_h).
	Iter   Pseudopolarizability       RMS 
	----   --------------------   -----------
	   0        10.046333454864
	   1        12.442227557148    5.227e-01
	   2        14.864939808728    3.202e-01
	   3        15.429116835851    9.656e-02
	   4        15.470238094983    3.649e-02
	   5        15.489124712239    1.247e-02
	   6        15.489390895360    6.942e-03
	   7        15.487859304490    3.096e-03
	   8        15.489514052147    1.635e-03
	   9        15.489187682562    6.258e-04
	  10        15.489248800297    2.963e-04
	  11        15.489272313990    1.114e-04
	  12        15.489340846156    3.327e-05
	  13        15.489369494837    8.608e-06
	  14        15.489381311872    3.758e-06
	  15        15.489385918444    1.725e-06
	  16        15.489386813136    6.803e-07
	  17        15.489386213658    2.201e-07
	  18        15.489386098898    1.091e-07
	-----------------------------------------
	Converged Mu_Y-Perturbed Wfn to 3.554e-08

	Computing P*_Y-Perturbed Wave Function (0.077 E_h).
	Iter   Pseudopolarizability       RMS 
	----   --------------------   -----------
	   0         8.947949074027
	   1        10.193706312526    2.933e-01
	   2        10.965088472723    1.583e-01
	   3        11.181975996129    5.366e-02
	   4        11.185232788723    1.838e-02
	   5        11.189258430295    5.169e-03
	   6        11.189231487695    2.483e-03
	   7        11.189164811184    7.426e-04
	   8        11.189268607055    3.892e-04
	   9        11.189159272737    2.060e-04
	  10        11.189211248661    1.032e-04
	  11        11.189210007128    4.998e-05
	  12        11.189227731439    1.982e-05
	  13        11.189228578170    6.927e-06
	  14        11.189230003804    1.937e-06
	  15        11.189229951656    7.262e-07
	  16        11.189230100685    2.714e-07
	-----------------------------------------
	Converged P*_Y-Perturbed Wfn to 9.987e-08

	Computing L*_Y-Perturbed Wave Function (-0.077 E_h).
	Iter   Pseudopolarizability       RMS 
	----   --------------------   -----------
	   0         0.252621955663
	   1         0.324103637824    7.375e-02
	   2         0.381905549945    4.092e-02
	   3         0.384055310878    8.396e-03
	   4         0.384878286413    3.789e-03
	   5         0.384947263396    4.893e-04
	   6         0.384933272585    2.098e-04
	   7         0.384935352656    7.052e-05
	   8         0.384934884035    3.136e-05
	   9         0.384934802251    6.904e-06
	  10         0.384934954387    2.363e-06
	  11         0.384935036089    5.761e-07
	  12         0.384935075899    2.231e-07
	-----------------------------------------
	Converged L*_Y-Perturbed Wfn to 3.189e-08

	Computing Mu_Z-Perturbed Wave Function (0.077 E_h).
	Iter   Pseudopolarizability       RMS 
	----   --------------------   -----------
	   0         6.821161539110
	   1         8.349288731382    4.037e-01
	   2         9.783177309524    2.271e-01
	   3         9.931957436103    5.931e-02
	   4         9.951293283517    2.642e-02
	   5         9.956872299453    7.970e-03
	   6         9.958274915947    4.187e-03
	   7         9.958051176826    1.433e-03
	   8         9.958083640193    6.311e-04
	   9         9.958056439263    1.750e-04
	  10         9.958081689807    6.638e-05
	  11         9.958084589576    3.195e-05
	  12         9.958089347197    1.455e-05
	  13         9.958091646975    7.828e-06
	  14         9.958094226889    3.705e-06
	  15         9.958095783405    1.468e-06
	  16         9.958096326941    6.359e-07
	  17         9.958096397649    2.878e-07
	  18         9.958096343146    1.575e-07
	-----------------------------------------
	Converged Mu_Z-Perturbed Wfn to 6.046e-08

	Computing P*_Z-Perturbed Wave Function (0.077 E_h).
	Iter   Pseudopolarizability       RMS 
	----   --------------------   -----------
	   0         9.277352892635
	   1        10.359326303001    2.750e-01
	   2        11.061869501044    1.360e-01
	   3        11.155455872418    4.543e-02
	   4        11.157204505890    1.960e-02
	   5        11.160034142291    6.110e-03
	   6        11.161208974480    3.311e-03
	   7        11.161124228901    1.258e-03
	   8        11.161128871429    5.757e-04
	   9        11.161081419627    2.140e-04
	  10        11.161120926154    8.816e-05
	  11        11.161130850246    4.784e-05
	  12        11.161138872447    1.910e-05
	  13        11.161140580704    9.208e-06
	  14        11.161141009199    3.405e-06
	  15        11.161142050459    1.243e-06
	  16        11.161142571096    5.446e-07
	  17        11.161142759442    2.514e-07
	  18        11.161142792611    1.075e-07
	-----------------------------------------
	Converged P*_Z-Perturbed Wfn to 2.636e-08

	Computing L*_Z-Perturbed Wave Function (-0.077 E_h).
	Iter   Pseudopolarizability       RMS 
	----   --------------------   -----------
	   0         3.974039147815
	   1         4.741444600126    2.312e-01
	   2         5.312770312391    1.345e-01
	   3         5.367746311026    3.797e-02
	   4         5.383237383034    1.742e-02
	   5         5.384022425190    3.055e-03
	   6         5.384259894611    1.514e-03
	   7         5.384211893842    3.426e-04
	   8         5.384189915849    1.023e-04
	   9         5.384179343072    2.823e-05
	  10         5.384178953417    9.138e-06
	  11         5.384179993846    3.103e-06
	  12         5.384180644489    1.140e-06
	  13         5.384180977650    4.324e-07
	  14         5.384181161995    1.822e-07
	-----------------------------------------
	Converged L*_Z-Perturbed Wfn to 5.700e-08

	Computing 1/2 <<Mu;L*>>_(0.077) tensor.
	Computing 1/2 <<P*;L*>>_(0.077) tensor.
	Computing <<P;Mu>>_(0.077) tensor.

            CC2 Optical Rotation Tensor (Length Gauge):
  -------------------------------------------------------------------------
   Evaluated at omega = 0.077357 E_h (589.00 nm, 2.105 eV, 16977.93 cm-1)
  -------------------------------------------------------------------------

                   0                     1                     2        

    0      0.158728294540701    -0.066346094594991     0.000000000000000
    1     -0.272773167750650    -0.014108130360913     0.000000000000000
    2      0.000000000000000     0.000000000000000    -0.127667932425137

   Specific rotation using length-gauge electric-dipole Rosenfeld tensor.
	[alpha]_(0.077) =  -83.11386 deg/[dm (g/cm^3)]

          CC2 Optical Rotation Tensor (Velocity Gauge):
  -------------------------------------------------------------------------
   Evaluated at omega = 0.077357 E_h (589.00 nm, 2.105 eV, 16977.93 cm-1)
  -------------------------------------------------------------------------

                   0                     1                     2        

    0      0.374037560356785    -0.355326606656807     0.000000000000000
    1     -0.077531897839243    -0.006930950258526     0.000000000000000
    2      0.000000000000000     0.000000000000000    -0.382608807749249

   Specific rotation using velocity-gauge electric-dipole Rosenfeld tensor.
	[alpha]_(0.077) =  982.51558 deg/[dm (g/cm^3)]

        CC2 Optical Rotation Tensor (Modified Velocity Gauge):
  -------------------------------------------------------------------------
   Evaluated at omega = 0.077357 E_h (589.00 nm, 2.105 eV, 16977.93 cm-1)
  -------------------------------------------------------------------------

                   0                     1                     2        

    0      0.012678493985368    -0.011363545769106     0.000000000000000
    1     -0.021830696459189    -0.000817002475772     0.000000000000000
    2      0.000000000000000     0.000000000000000    -0.008747573002912

   Specific rotation using modified velocity-gauge Rosenfeld tensor.
	[alpha]_(0.077) = -197.35740 deg/[dm (g/cm^3)]

   Origin-dependence vector for length-gauge rotation deg/[dm (g/cm^3)]/bohr.
     Delta_x =   0.00   Delta_y =   0.00   Delta_z = -19.67

	Computing Mu_X-Perturbed Wave Function (-0.128 E_h).
	Iter   Pseudopolarizability       RMS 
	----   --------------------   -----------
	   0         3.841616266484
	   1         4.511795686272    2.109e-01
	   2         4.959050086806    1.004e-01
	   3         4.980051336737    2.096e-02
	   4         4.981320153824    7.724e-03
	   5         4.981712275337    1.504e-03
	   6         4.981835205846    5.699e-04
	   7         4.981819331019    1.580e-04
	   8         4.981812113959    5.884e-05
	   9         4.981808216823    1.860e-05
	  10         4.981808142799    8.098e-06
	  11         4.981808812013    2.000e-06
	  12         4.981809240664    4.488e-07
	  13         4.981809410779    1.498e-07
	-----------------------------------------
	Converged Mu_X-Perturbed Wfn to 5.562e-08

	Computing P_X-Perturbed Wave Function (-0.128 E_h).
	Iter   Pseudopolarizability       RMS 
	----   --------------------   -----------
	   0         7.877068921725
	   1         8.662249372156    1.748e-01
	   2         9.001158432210    6.919e-02
	   3         9.020866664432    2.159e-02
	   4         9.019165087977    8.099e-03
	   5         9.019684686338    1.868e-03
	   6         9.019837430907    7.664e-04
	   7         9.019814335505    2.406e-04
	   8         9.019812474859    8.004e-05
	   9         9.019806911854    2.165e-05
	  10         9.019809939966    7.104e-06
	  11         9.019810960621    1.915e-06
	  12         9.019811353969    4.420e-07
	  13         9.019811510622    1.427e-07
	-----------------------------------------
	Converged P_X-Perturbed Wfn to 5.346e-08

	Computing L_X-Perturbed Wave Function (0.128 E_h).
	Iter   Pseudopolarizability       RMS 
	----   --------------------   -----------
	   0         5.095996266157
	   1         6.401596925252    3.937e-01
	   2         7.797672723865    2.746e-01
	   3         8.105509853871    9.848e-02
	   4         8.202475847797    6.039e-02
	   5         8.232003359842    2.167e-02
	   6         8.240339675152    1.437e-02
	   7         8.242815201856    6.444e-03
	   8         8.243750345223    3.872e-03
	   9         8.243811192092    1.729e-03
	  10         8.244025949537    6.964e-04
	  11         8.244144993228    2.164e-04
	  12         8.244270420243    1.004e-04
	  13         8.244319411013    4.431e-05
	  14         8.244354758446    2.740e-05
	  15         8.244377015787    1.336e-05
	  16         8.244393966324    5.930e-06
	  17         8.244396829481    1.275e-06
	  18         8.244398185641    4.908e-07
	  19         8.244398096090    2.569e-07
	  20         8.244398139643    1.002e-07
	-----------------------------------------
	Converged L_X-Perturbed Wfn to 4.203e-08

	Computing Mu_Y-Perturbed Wave Function (-0.128 E_h).
	Iter   Pseudopolarizability       RMS 
	----   --------------------   -----------
	   0         8.329380069582
	   1         9.982622799118    3.629e-01
	   2        11.316564962126    1.815e-01
	   3        11.483609893777    4.249e-02
	   4        11.487719255743    1.145e-02
	   5        11.490867911267    2.611e-03
	   6        11.490678649375    1.109e-03
	   7        11.490551165221    3.019e-04
	   8        11.490621729431    1.299e-04
	   9        11.490607127411    3.636e-05
	  10        11.490610617981    9.668e-06
	  11        11.490611891158    2.944e-06
	  12        11.490613199450    9.958e-07
	  13        11.490613654770    2.559e-07
	-----------------------------------------
	Converged Mu_Y-Perturbed Wfn to 6.332e-08

	Computing P_Y-Perturbed Wave Function (-0.128 E_h).
	Iter   Pseudopolarizability       RMS 
	----   --------------------   -----------
	   0         7.948822608723
	   1         8.923898682475    2.173e-01
	   2         9.423321034488    9.256e-02
	   3         9.501915014712    2.425e-02
	   4         9.500069663393    6.478e-03
	   5         9.500816939780    1.236e-03
	   6         9.500783025562    4.472e-04
	   7         9.500782655568    1.055e-04
	   8         9.500788529786    3.065e-05
	   9         9.500784029787    1.190e-05
	  10         9.500785815571    5.224e-06
	  11         9.500786182468    1.477e-06
	  12         9.500786666305    4.385e-07
	  13         9.500786774064    1.624e-07
	-----------------------------------------
	Converged P_Y-Perturbed Wfn to 4.807e-08

	Computing L_Y-Perturbed Wave Function (0.128 E_h).
	Iter   Pseudopolarizability       RMS 
	----   --------------------   -----------
	   0         0.291582241457
	   1         0.391360786597    1.143e-01
	   2         0.514608655750    8.375e-02
	   3         0.540629474950    3.014e-02
	   4         0.551092081039    1.684e-02
	   5         0.552549043634    4.703e-03
	   6         0.552460430406    3.209e-03
	   7         0.552807678543    1.921e-03
	   8         0.552828295538    6.241e-04
	   9         0.552824576256    1.739e-04
	  10         0.552831483863    1.022e-04
	  11         0.552830678775    3.442e-05
	  12         0.552831280505    1.883e-05
	  13         0.552831260424    6.104e-06
	  14         0.552832477708    3.439e-06
	  15         0.552833324447    1.199e-06
	  16         0.552833935389    5.391e-07
	  17         0.552834160874    1.869e-07
	-----------------------------------------
	Converged L_Y-Perturbed Wfn to 6.600e-08

	Computing Mu_Z-Perturbed Wave Function (-0.128 E_h).
	Iter   Pseudopolarizability       RMS 
	----   --------------------   -----------
	   0         5.819681038444
	   1         6.899835092042    2.798e-01
	   2         7.664038906410    1.259e-01
	   3         7.705339710785    2.470e-02
	   4         7.705610672339    7.996e-03
	   5         7.706340049298    1.678e-03
	   6         7.706507656753    6.930e-04
	   7         7.706471984451    1.633e-04
	   8         7.706468969152    6.155e-05
	   9         7.706466323946    1.459e-05
	  10         7.706467369484    4.167e-06
	  11         7.706467847164    1.273e-06
	  12         7.706468135894    3.747e-07
	  13         7.706468245205    1.051e-07
	-----------------------------------------
	Converged Mu_Z-Perturbed Wfn to 3.397e-08

	Computing P_Z-Perturbed Wave Function (-0.128 E_h).
	Iter   Pseudopolarizability       RMS 
	----   --------------------   -----------
	   0         8.353071500501
	   1         9.195708553594    2.030e-01
	   2         9.633596619539    7.841e-02
	   3         9.666200909686    1.961e-02
	   4         9.663555041494    6.432e-03
	   5         9.664006056440    1.429e-03
	   6         9.664166439550    5.686e-04
	   7         9.664155453342    1.632e-04
	   8         9.664155904898    4.922e-05
	   9         9.664152090421    1.418e-05
	  10         9.664153960709    3.323e-06
	  11         9.664154591207    1.043e-06
	  12         9.664154896583    3.091e-07
	  13         9.664155008028    1.178e-07
	-----------------------------------------
	Converged P_Z-Perturbed Wfn to 3.510e-08

	Computing L_Z-Perturbed Wave Function (0.128 E_h).
	Iter   Pseudopolarizability       RMS 
	----   --------------------   -----------
	   0         4.474769853147
	   1         5.526295822134    3.606e-01
	   2         6.609530153652    2.826e-01
	   3         7.125831079299    1.487e-01
	   4         7.367086443192    9.337e-02
	   5         7.417232095925    3.155e-02
	   6         7.433498190194    1.839e-02
	   7         7.435046887352    5.844e-03
	   8         7.434207097282    2.565e-03
	   9         7.433995507015    1.114e-03
	  10         7.433956506569    5.405e-04
	  11         7.433940507121    2.026e-04
	  12         7.434010589845    7.193e-05
	  13         7.434031982798    2.958e-05
	  14         7.434067340390    1.772e-05
	  15         7.434091936731    6.997e-06
	  16         7.434104158272    2.786e-06
	  17         7.434107853903    7.688e-07
	  18         7.434108064867    2.424e-07
	  19         7.434108066435    1.112e-07
	-----------------------------------------
	Converged L_Z-Perturbed Wfn to 6.199e-08

	Computing 1/2 <<Mu;L>>_(0.128) tensor.
	Computing 1/2 <<P;L>>_(0.128) tensor.

	Computing Mu_X-Perturbed Wave Function (0.128 E_h).
	Iter   Pseudopolarizability       RMS 
	----   --------------------   -----------
	   0         4.540697422751
	   1         5.552916105748    3.480e-01
	   2         6.604958005791    2.284e-01
	   3         6.775215285824    7.934e-02
	   4         6.834035231504    4.394e-02
	   5         6.845160658469    1.738e-02
	   6         6.850503265136    1.025e-02
	   7         6.850632754762    5.347e-03
	   8         6.850566626112    2.859e-03
	   9         6.850241802986    1.566e-03
	  10         6.850405180744    6.971e-04
	  11         6.850478738807    1.698e-04
	  12         6.850543390039    7.065e-05
	  13         6.850571867967    3.674e-05
	  14         6.850594672011    1.964e-05
	  15         6.850605477509    7.311e-06
	  16         6.850609741569    2.877e-06
	  17         6.850609999657    7.266e-07
	  18         6.850609664690    3.402e-07
	  19         6.850609528534    1.219e-07
	-----------------------------------------
	Converged Mu_X-Perturbed Wfn to 5.325e-08

	Computing P*_X-Perturbed Wave Function (0.128 E_h).
	Iter   Pseudopolarizability       RMS 
	----   --------------------   -----------
	   0         8.792316948213
	   1         9.820637538968    2.598e-01
	   2        10.431156618760    1.503e-01
	   3        10.543304370817    7.502e-02
	   4        10.577122783304    4.078e-02
	   5        10.586800673092    1.756e-02
	   6        10.592735783857    1.038e-02
	   7        10.592669901905    5.140e-03
	   8        10.593116648747    2.679e-03
	   9        10.593004705947    1.168e-03
	  10        10.593228341927    5.509e-04
	  11        10.593286599752    1.426e-04
	  12        10.593309907655    4.629e-05
	  13        10.593326428994    2.390e-05
	  14        10.593334230688    1.228e-05
	  15        10.593338566652    5.060e-06
	  16        10.593340437300    2.637e-06
	  17        10.593340582976    1.139e-06
	  18        10.593340656894    5.782e-07
	  19        10.593340762118    2.217e-07
	  20        10.593340850208    1.062e-07
	-----------------------------------------
	Converged P*_X-Perturbed Wfn to 5.027e-08

	Computing L*_X-Perturbed Wave Function (-0.128 E_h).
	Iter   Pseudopolarizability       RMS 
	----   --------------------   -----------
	   0         4.308774480796
	   1         5.177251112376    2.385e-01
	   2         5.788144692761    1.206e-01
	   3         5.817401202385    2.506e-02
	   4         5.822428626064    1.120e-02
	   5         5.823745958010    2.243e-03
	   6         5.823954269107    1.112e-03
	   7         5.823956696975    3.004e-04
	   8         5.823962068002    9.653e-05
	   9         5.823955490457    3.317e-05
	  10         5.823958163312    9.554e-06
	  11         5.823960058235    2.275e-06
	  12         5.823961172273    6.655e-07
	  13         5.823961684420    2.438e-07
	-----------------------------------------
	Converged L*_X-Perturbed Wfn to 8.940e-08

	Computing Mu_Y-Perturbed Wave Function (0.128 E_h).
	Iter   Pseudopolarizability       RMS 
	----   --------------------   -----------
	   0        10.602235753441
	   1        13.271676932147    5.821e-01
	   2        16.135822640273    3.780e-01
	   3        16.959451195206    1.255e-01
	   4        17.038030906709    5.281e-02
	   5        17.073133794727    2.081e-02
	   6        17.076160917912    1.277e-02
	   7        17.073021198026    6.659e-03
	   8        17.077922237438    3.883e-03
	   9        17.076961972552    1.776e-03
	  10        17.077205195938    9.815e-04
	  11        17.077267231010    3.595e-04
	  12        17.077514444959    1.084e-04
	  13        17.077628971490    3.194e-05
	  14        17.077680724678    1.733e-05
	  15        17.077702536747    9.195e-06
	  16        17.077703886160    4.270e-06
	  17        17.077698303953    1.559e-06
	  18        17.077697504502    6.697e-07
	  19        17.077697219610    2.714e-07
	-----------------------------------------
	Converged Mu_Y-Perturbed Wfn to 9.713e-08

	Computing P*_Y-Perturbed Wave Function (0.128 E_h).
	Iter   Pseudopolarizability       RMS 
	----   --------------------   -----------
	   0         9.251457743171
	   1        10.589647119892    3.208e-01
	   2        11.460703497062    1.854e-01
	   3        11.756069882204    6.855e-02
	   4        11.765813806377    2.537e-02
	   5        11.772798656552    8.227e-03
	   6        11.773011813446    4.281e-03
	   7        11.772860584252    1.485e-03
	   8        11.773139556905    8.964e-04
	   9        11.772853848283    5.154e-04
	  10        11.773003961592    2.965e-04
	  11        11.772980898798    1.692e-04
	  12        11.773040286459    6.561e-05
	  13        11.773041838405    2.246e-05
	  14        11.773048282022    7.645e-06
	  15        11.773049504430    3.360e-06
	  16        11.773050613832    1.576e-06
	  17        11.773050725158    7.130e-07
	  18        11.773050489313    3.152e-07
	  19        11.773050309441    1.475e-07
	-----------------------------------------
	Converged P*_Y-Perturbed Wfn to 6.612e-08

	Computing L*_Y-Perturbed Wave Function (-0.128 E_h).
	Iter   Pseudopolarizability       RMS 
	----   --------------------   -----------
	   0         0.244930550978
	   1         0.311636619194    6.760e-02
	   2         0.361199103663    3.539e-02
	   3         0.362499584355    6.680e-03
	   4         0.362993599319    2.873e-03
	   5         0.363033474452    3.354e-04
	   6         0.363025215323    1.308e-04
	   7         0.363026109032    3.393e-05
	   8         0.363025845500    1.573e-05
	   9         0.363025802346    3.876e-06
	  10         0.363025873857    1.247e-06
	  11         0.363025919028    2.950e-07
	  12         0.363025939616    1.072e-07
	-----------------------------------------
	Converged L*_Y-Perturbed Wfn to 1.612e-08

	Computing Mu_Z-Perturbed Wave Function (0.128 E_h).
	Iter   Pseudopolarizability       RMS 
	----   --------------------   -----------
	   0         7.136885404854
	   1         8.827959901334    4.504e-01
	   2        10.556417160873    2.704e-01
	   3        10.782604318591    7.855e-02
	   4        10.823407797437    3.852e-02
	   5        10.834692912669    1.311e-02
	   6        10.837906041968    7.418e-03
	   7        10.837673502370    2.897e-03
	   8        10.837862136685    1.321e-03
	   9        10.837807529672    4.095e-04
	  10        10.837877466305    1.842e-04
	  11        10.837874786559    1.127e-04
	  12        10.837880265377    6.643e-05
	  13        10.837882493770    3.884e-05
	  14        10.837896023715    1.776e-05
	  15        10.837905117025    6.583e-06
	  16        10.837910638983    3.571e-06
	  17        10.837912002184    1.677e-06
	  18        10.837912342882    9.968e-07
	  19        10.837912500761    4.166e-07
	  20        10.837912647046    1.603e-07
	-----------------------------------------
	Converged Mu_Z-Perturbed Wfn to 7.150e-08

	Computing P*_Z-Perturbed Wave Function (0.128 E_h).
	Iter   Pseudopolarizability       RMS 
	----   --------------------   -----------
	   0         9.549537167137
	   1        10.712689751101    3.014e-01
	   2        11.520133253865    1.604e-01
	   3        11.651520234150    5.896e-02
	   4        11.660315679373    2.770e-02
	   5        11.665606030503    9.842e-03
	   6        11.668007381757    5.866e-03
	   7        11.667965741178    2.584e-03
	   8        11.668033320133    1.362e-03
	   9        11.667930532673    5.861e-04
	  10        11.668049619003    3.075e-04
	  11        11.668073393109    1.780e-04
	  12        11.668095127741    6.875e-05
	  13        11.668098488453    3.421e-05
	  14        11.668101506920    1.424e-05
	  15        11.668107318583    5.139e-06
	  16        11.668110140978    2.399e-06
	  17        11.668111150762    1.194e-06
	  18        11.668111367046    5.671e-07
	  19        11.668111271895    1.432e-07
	-----------------------------------------
	Converged P*_Z-Perturbed Wfn to 6.024e-08

	Computing L*_Z-Perturbed Wave Function (-0.128 E_h).
	Iter   Pseudopolarizability       RMS 
	----   --------------------   -----------
	   0         3.872510377044
	   1         4.591669336890    2.120e-01
	   2         5.085547449878    1.160e-01
	   3         5.121987008168    2.992e-02
	   4         5.131210428083    1.294e-02
	   5         5.131617998239    2.045e-03
	   6         5.131761929421    9.597e-04
	   7         5.131734062036    2.100e-04
	   8         5.131723796752    5.883e-05
	   9         5.131718296778    1.520e-05
	  10         5.131718443432    4.160e-06
	  11         5.131719011404    1.198e-06
	  12         5.131719290399    4.377e-07
	  13         5.131719429624    1.751e-07
	-----------------------------------------
	Converged L*_Z-Perturbed Wfn to 6.824e-08

	Computing 1/2 <<Mu;L*>>_(0.128) tensor.
	Computing 1/2 <<P*;L*>>_(0.128) tensor.
	Computing <<P;Mu>>_(0.128) tensor.

            CC2 Optical Rotation Tensor (Length Gauge):
  -------------------------------------------------------------------------
   Evaluated at omega = 0.128347 E_h (355.00 nm, 3.493 eV, 28169.01 cm-1)
  -------------------------------------------------------------------------

                   0                     1                     2        

    0      0.279315257113958    -0.123252236365767     0.000000000000000
    1     -0.488104244073309    -0.028164898177789     0.000000000000000
    2      0.000000000000000     0.000000000000000    -0.221999666122911

   Specific rotation using length-gauge electric-dipole Rosenfeld tensor.
	[alpha]_(0.128) = -237.12775 deg/[dm (g/cm^3)]

          CC2 Optical Rotation Tensor (Velocity Gauge):
  -------------------------------------------------------------------------
   Evaluated at omega = 0.128347 E_h (355.00 nm, 3.493 eV, 28169.01 cm-1)
  -------------------------------------------------------------------------

                   0                     1                     2        

    0      0.399325680015961    -0.379486455965609     0.000000000000000
    1     -0.120585417980021    -0.008851315481181     0.000000000000000
    2      0.000000000000000     0.000000000000000    -0.397645874903806

   Specific rotation using velocity-gauge electric-dipole Rosenfeld tensor.
	[alpha]_(0.128) =  454.52398 deg/[dm (g/cm^3)]

        CC2 Optical Rotation Tensor (Modified Velocity Gauge):
  -------------------------------------------------------------------------
   Evaluated at omega = 0.128347 E_h (355.00 nm, 3.493 eV, 28169.01 cm-1)
  -------------------------------------------------------------------------

                   0                     1                     2        

    0      0.037966613644544    -0.035523395077908     0.000000000000000
    1     -0.064884216599966    -0.002737367698427     0.000000000000000
    2      0.000000000000000     0.000000000000000    -0.023784640157469

   Specific rotation using modified velocity-gauge Rosenfeld tensor.
	[alpha]_(0.128) = -725.34899 deg/[dm (g/cm^3)]

   Origin-dependence vector for length-gauge rotation deg/[dm (g/cm^3)]/bohr.
     Delta_x =   0.00   Delta_y =   0.00   Delta_z = -73.01

   ------------------------------------------
       CC2 Length-Gauge Optical Rotation
   ------------------------------------------
       Omega           alpha                        Delta
    E_h      nm   deg/[dm (g/cm^3)]        deg/[dm (g/cm^3)]/bohr
   -----   ------ ------------------  ----------------------------------
                                          x           y           z      
   0.077   589.00       -83.11386       0.00000     0.00000   -19.66940
   0.128   355.00      -237.12775       0.00000     0.00000   -73.00564

   ------------------------------------------------------
            CC2 Velocity-Gauge Optical Rotation
   ------------------------------------------------------
       Omega           alpha (deg/[dm (g/cm^3)]

    E_h      nm   Velocity-Gauge  Modified Velocity-Gauge
   -----   ------ --------------  -----------------------
   0.077   589.00    982.51558          -197.35740
   0.128   355.00    454.52398          -725.34899
    CC2 rotation @ 589nm in length gauge..................................................PASSED
    CC2 rotation @ 589nm in velocity gauge................................................PASSED
    CC2 rotation @ 589nm in modified velocity gauge.......................................PASSED
    CC2 rotation @ 355nm in length gauge..................................................PASSED
    CC2 rotation @ 355nm in velocity gauge................................................PASSED
    CC2 rotation @ 355nm in modified velocity gauge.......................................PASSED
    CC2 rotation tensor @ 589nm in length gauge...........................................PASSED
    CC2 rotation tensor @ 589nm in velocity gauge.........................................PASSED
    CC2 rotation tensor @ 589nm in modified velocity gauge................................PASSED
    CC2 rotation tensor @ 355nm in length gauge...........................................PASSED
    CC2 rotation tensor @ 355nm in velocity gauge.........................................PASSED
    CC2 rotation tensor @ 355nm in modified velocity gauge................................PASSED
    CC2 rotation origin-dependence @ 589nm in length gauge................................PASSED
    CC2 rotation origin-dependence @ 355nm in length gauge................................PASSED

    Psi4 stopped on: Friday, 04 March 2022 09:11AM
    Psi4 wall time for execution: 0:00:12.60

*** Psi4 exiting successfully. Buy a developer a beer!
