
    -----------------------------------------------------------------------
          Psi4: An Open-Source Ab Initio Electronic Structure Package
                               Psi4 1.1rc3.dev5 

                         Git: Rev {master} 3fbd859 


    R. M. Parrish, L. A. Burns, D. G. A. Smith, A. C. Simmonett,
    A. E. DePrince III, E. G. Hohenstein, U. Bozkaya, A. Yu. Sokolov,
    R. Di Remigio, R. M. Richard, J. F. Gonthier, A. M. James,
    H. R. McAlexander, A. Kumar, M. Saitow, X. Wang, B. P. Pritchard,
    P. Verma, H. F. Schaefer III, K. Patkowski, R. A. King, E. F. Valeev,
    F. A. Evangelista, J. M. Turney, T. D. Crawford, and C. D. Sherrill,
    J. Chem. Theory Comput. in press (2017).
    (doi: 10.1021/acs.jctc.7b00174)

    -----------------------------------------------------------------------


    Psi4 started on: Monday, 15 May 2017 03:34PM

    Process ID:  12846
    PSIDATADIR: /home/psilocaluser/gits/hrw-direct/objdir4/stage/usr/local/psi4/share/psi4
    Memory:     500.0 MiB
    Threads:    1
    
  ==> Input File <==

--------------------------------------------------------------------------
#! RHF-CC2-LR/cc-pVDZ optical rotation of H2O2.  gauge = both, omega =
#! (589 355 nm)

molecule h2o2 {
  0 1
  O
  O 1 1.39
  H 1 0.94 2 102.3
  H 2 0.94 1 102.3 3 -50.0
}

set {
  basis "cc-pVDZ"
  freeze_core true
  gauge both
  omega [589, 355, nm]
}

property('cc2',properties=['rotation'])
--------------------------------------------------------------------------

*** tstart() called on psinet
*** at Mon May 15 15:34:40 2017

   => Loading Basis Set <=

    Name: CC-PVDZ
    Role: ORBITAL
    Keyword: BASIS
    atoms 1-2 entry O          line   190 file /home/psilocaluser/gits/hrw-direct/objdir4/stage/usr/local/psi4/share/psi4/basis/cc-pvdz.gbs 
    atoms 3-4 entry H          line    20 file /home/psilocaluser/gits/hrw-direct/objdir4/stage/usr/local/psi4/share/psi4/basis/cc-pvdz.gbs 


         ---------------------------------------------------------
                                   SCF
            by Justin Turney, Rob Parrish, and Andy Simmonett
                              RHF Reference
                        1 Threads,    500 MiB Core
         ---------------------------------------------------------

  ==> Geometry <==

    Molecular point group: c2
    Full point group: C2

    Geometry (in Angstrom), charge = 0, multiplicity = 1:

       Center              X                  Y                   Z               Mass       
    ------------   -----------------  -----------------  -----------------  -----------------
           O          0.000000000000    -0.695000000000    -0.049338350190    15.994914619560
           O          0.000000000000     0.695000000000    -0.049338350190    15.994914619560
           H          0.388142264171    -0.895248563098     0.783035421467     1.007825032070
           H         -0.388142264171     0.895248563098     0.783035421467     1.007825032070

  Running in c2 symmetry.

  Rotational constants: A =     10.61423  B =      0.97044  C =      0.91566 [cm^-1]
  Rotational constants: A = 318206.57462  B =  29093.19738  C =  27450.82444 [MHz]
  Nuclear repulsion =   38.253968380680327

  Charge       = 0
  Multiplicity = 1
  Electrons    = 18
  Nalpha       = 9
  Nbeta        = 9

  ==> Algorithm <==

  SCF Algorithm Type is PK.
  DIIS enabled.
  MOM disabled.
  Fractional occupation disabled.
  Guess Type is SAD.
  Energy threshold   = 1.00e-10
  Density threshold  = 1.00e-10
  Integral threshold = 0.00e+00

  ==> Primary Basis <==

  Basis Set: CC-PVDZ
    Blend: CC-PVDZ
    Number of shells: 18
    Number of basis function: 38
    Number of Cartesian functions: 40
    Spherical Harmonics?: true
    Max angular momentum: 2

  ==> Pre-Iterations <==

   -------------------------------------------------------
    Irrep   Nso     Nmo     Nalpha   Nbeta   Ndocc  Nsocc
   -------------------------------------------------------
     A         19      19       0       0       0       0
     B         19      19       0       0       0       0
   -------------------------------------------------------
    Total      38      38       9       9       9       0
   -------------------------------------------------------

  ==> Integral Setup <==

  Using in-core PK algorithm.
   Calculation information:
      Number of atoms:                   4
      Number of AO shells:              18
      Number of primitives:             54
      Number of atomic orbitals:        40
      Number of basis functions:        38

      Integral cutoff                 1.00e-12
      Number of threads:                 1

  Performing in-core PK
  Using 549822 doubles for integral storage.
  We computed 14706 shell quartets total.
  Whereas there are 14706 unique shell quartets.
  ==> DiskJK: Disk-Based J/K Matrices <==

    J tasked:                  Yes
    K tasked:                  Yes
    wK tasked:                  No
    Memory (MB):               375
    Schwarz Cutoff:          1E-12

    OpenMP threads:              1
  Minimum eigenvalue in the overlap matrix is 2.1870579153E-02.
  Using Symmetric Orthogonalization.

  SCF Guess: Superposition of Atomic Densities via on-the-fly atomic UHF.

  ==> Iterations <==

                        Total Energy        Delta E     RMS |[F,P]|

   @RHF iter   0:  -150.83527118424107   -1.50835e+02   7.61669e-02 
   @RHF iter   1:  -150.75300393196321    8.22673e-02   8.92814e-03 
   @RHF iter   2:  -150.77674264680306   -2.37387e-02   2.23904e-03 DIIS
   @RHF iter   3:  -150.77866726940405   -1.92462e-03   8.11583e-04 DIIS
   @RHF iter   4:  -150.77908304190501   -4.15773e-04   3.09116e-04 DIIS
   @RHF iter   5:  -150.77917159812222   -8.85562e-05   9.19744e-05 DIIS
   @RHF iter   6:  -150.77918361494829   -1.20168e-05   1.37015e-05 DIIS
   @RHF iter   7:  -150.77918386184567   -2.46897e-07   2.97198e-06 DIIS
   @RHF iter   8:  -150.77918387199867   -1.01530e-08   5.75950e-07 DIIS
   @RHF iter   9:  -150.77918387232646   -3.27788e-10   1.51394e-07 DIIS
   @RHF iter  10:  -150.77918387235519   -2.87343e-11   4.48580e-08 DIIS
   @RHF iter  11:  -150.77918387235863   -3.43903e-12   9.89275e-09 DIIS
   @RHF iter  12:  -150.77918387235860    2.84217e-14   1.77899e-09 DIIS
   @RHF iter  13:  -150.77918387235860    0.00000e+00   2.61634e-10 DIIS
   @RHF iter  14:  -150.77918387235857    2.84217e-14   6.83680e-11 DIIS

  ==> Post-Iterations <==

    Orbital Energies (a.u.)
    -----------------------

    Doubly Occupied:                                                      

       1A    -20.619349     1B    -20.619013     2A     -1.507787  
       2B     -1.207608     3A     -0.772079     3B     -0.669170  
       4A     -0.610850     4B     -0.534579     5A     -0.457771  

    Virtual:                                                              

       6A      0.170058     5B      0.207922     6B      0.357579  
       7A      0.826680     7B      0.851681     8A      1.130818  
       8B      1.137986     9B      1.173859     9A      1.187142  
      10A      1.286565    10B      1.298497    11A      1.497098  
      12A      1.540883    11B      1.559287    12B      1.733951  
      13A      1.913157    13B      2.037507    14A      2.460009  
      14B      2.503912    15B      2.672803    15A      2.821554  
      16A      2.932536    17A      3.274207    16B      3.309357  
      18A      3.503492    17B      3.609638    18B      3.917634  
      19A      4.000575    19B      4.287100  

    Final Occupation by Irrep:
              A     B 
    DOCC [     5,    4 ]

  Energy converged.

  @RHF Final Energy:  -150.77918387235857

   => Energetics <=

    Nuclear Repulsion Energy =             38.2539683806803268
    One-Electron Energy =                -284.0698921465228750
    Two-Electron Energy =                  95.0367398934839827
    DFT Exchange-Correlation Energy =       0.0000000000000000
    Empirical Dispersion Energy =           0.0000000000000000
    PCM Polarization Energy =               0.0000000000000000
    EFP Energy =                            0.0000000000000000
    Total Energy =                       -150.7791838723585442



Properties will be evaluated at   0.000000,   0.000000,   0.000000 Bohr

Properties computed using the SCF density matrix

  Nuclear Dipole Moment: (a.u.)
     X:     0.0000      Y:     0.0000      Z:     1.4677

  Electronic Dipole Moment: (a.u.)
     X:     0.0000      Y:     0.0000      Z:    -0.2602

  Dipole Moment: (a.u.)
     X:     0.0000      Y:     0.0000      Z:     1.2074     Total:     1.2074

  Dipole Moment: (Debye)
     X:     0.0000      Y:     0.0000      Z:     3.0690     Total:     3.0690


*** tstop() called on psinet at Mon May 15 15:34:41 2017
Module time:
	user time   =       0.58 seconds =       0.01 minutes
	system time =       0.03 seconds =       0.00 minutes
	total time  =          1 seconds =       0.02 minutes
Total time:
	user time   =       0.58 seconds =       0.01 minutes
	system time =       0.03 seconds =       0.00 minutes
	total time  =          1 seconds =       0.02 minutes
 MINTS: Wrapper to libmints.
   by Justin Turney

   Calculation information:
      Number of threads:                 1
      Number of atoms:                   4
      Number of AO shells:              18
      Number of SO shells:               9
      Number of primitives:             54
      Number of atomic orbitals:        40
      Number of basis functions:        38

      Number of irreps:                  2
      Integral cutoff                 0.00e+00
      Number of functions per irrep: [  19   19 ]

 OEINTS: Overlap, kinetic, potential, dipole, and quadrupole integrals
         stored in file 35.

      Computing two-electron integrals...done
      Computed 117651 non-zero two-electron integrals.
        Stored in file 33.


*** tstart() called on psinet
*** at Mon May 15 15:34:41 2017


	Wfn Parameters:
	--------------------
	Wavefunction         = CC2
	Number of irreps     = 2
	Number of MOs        = 38
	Number of active MOs = 36
	AO-Basis             = NONE
	Semicanonical        = false
	Reference            = RHF
	Print Level          = 1

	IRREP	# MOs	# FZDC	# DOCC	# SOCC	# VIRT	# FZVR
	-----	-----	------	------	------	------	------
	 A	   19	    1	    4	    0	    14	    0
	 B	   19	    1	    3	    0	    15	    0
	Transforming integrals...
	IWL integrals will be deleted.
	(OO|OO)...
	Presorting SO-basis two-electron integrals.
	Sorting File: SO Ints (nn|nn) nbuckets = 1
	Transforming the one-electron integrals and constructing Fock matrices
	Starting first half-transformation.
	Sorting half-transformed integrals.
	First half integral transformation complete.
	Starting second half-transformation.
	Two-electron integral transformation complete.
	(OO|OV)...
	Starting second half-transformation.
	Two-electron integral transformation complete.
	(OO|VV)...
	Starting second half-transformation.
	Two-electron integral transformation complete.
	(OV|OO)...
	Starting first half-transformation.
	Sorting half-transformed integrals.
	First half integral transformation complete.
	Starting second half-transformation.
	Two-electron integral transformation complete.
	(OV|OV)...
	Starting second half-transformation.
	Two-electron integral transformation complete.
	(OV|VV)...
	Starting second half-transformation.
	Two-electron integral transformation complete.
	(VV|OO)...
	Starting first half-transformation.
	Sorting half-transformed integrals.
	First half integral transformation complete.
	Starting second half-transformation.
	Two-electron integral transformation complete.
	(VV|OV)...
	Starting second half-transformation.
	Two-electron integral transformation complete.
	(VV|VV)...
	Starting second half-transformation.
	Two-electron integral transformation complete.
	Frozen core energy     =   -132.27484824295880

	Size of irrep 0 of <ab|cd> integrals:      0.177 (MW) /      1.418 (MB)
	Size of irrep 1 of <ab|cd> integrals:      0.176 (MW) /      1.411 (MB)
	Total:                                     0.354 (MW) /      2.829 (MB)

	Size of irrep 0 of <ia|bc> integrals:      0.043 (MW) /      0.340 (MB)
	Size of irrep 1 of <ia|bc> integrals:      0.043 (MW) /      0.343 (MB)
	Total:                                     0.085 (MW) /      0.683 (MB)

	Size of irrep 0 of tijab amplitudes:       0.011 (MW) /      0.084 (MB)
	Size of irrep 1 of tijab amplitudes:       0.010 (MW) /      0.081 (MB)
	Total:                                     0.021 (MW) /      0.165 (MB)

	Nuclear Rep. energy          =     38.25396838068033
	SCF energy                   =   -150.77918387235857
	One-electron energy          =   -101.99691957132272
	Two-electron energy          =     45.23861556124288
	Reference energy             =   -150.77918387235832

*** tstop() called on psinet at Mon May 15 15:34:41 2017
Module time:
	user time   =       0.09 seconds =       0.00 minutes
	system time =       0.07 seconds =       0.00 minutes
	total time  =          0 seconds =       0.00 minutes
Total time:
	user time   =       0.79 seconds =       0.01 minutes
	system time =       0.11 seconds =       0.00 minutes
	total time  =          1 seconds =       0.02 minutes

*** tstart() called on psinet
*** at Mon May 15 15:34:41 2017

            **************************
            *                        *
            *        CCENERGY        *
            *                        *
            **************************

    Nuclear Rep. energy (wfn)     =   38.253968380680327
    SCF energy          (wfn)     = -150.779183872358573
    Reference energy    (file100) = -150.779183872358317

    Input parameters:
    -----------------
    Wave function   =     CC2
    Reference wfn   =     RHF
    Brueckner       =     No
    Memory (Mbytes) =     524.3
    Maxiter         =     50
    R_Convergence   =     1.0e-07
    E_Convergence   =     1.0e-08
    Restart         =     Yes
    DIIS            =     Yes
    AO Basis        =     NONE
    ABCD            =     NEW
    Cache Level     =     2
    Cache Type      =     LOW
    Print Level     =     1
    Num. of threads =     1
    # Amps to Print =     10
    Print MP2 Amps? =     No
    Analyze T2 Amps =     No
    Print Pair Ener =     No
    Local CC        =     No
    SCS-MP2         =     False
    SCSN-MP2        =     False
    SCS-CCSD        =     False

MP2 correlation energy -0.3802563054135771
                Solving CC Amplitude Equations
                ------------------------------
  Iter             Energy              RMS        T1Diag      D1Diag    New D1Diag    D2Diag
  ----     ---------------------    ---------   ----------  ----------  ----------   --------
     0        -0.380256305413577    0.000e+00    0.000000    0.000000    0.000000    0.143419
     1        -0.380254802722190    2.350e-02    0.006281    0.014957    0.014957    0.143419
     2        -0.382926539245088    6.976e-03    0.007604    0.017580    0.017580    0.146255
     3        -0.383312067134338    2.742e-03    0.008393    0.018848    0.018848    0.146676
     4        -0.383283495426498    9.595e-04    0.008568    0.018859    0.018859    0.146729
     5        -0.383286625219000    3.462e-04    0.008637    0.018841    0.018841    0.146745
     6        -0.383290105628155    9.323e-05    0.008642    0.018836    0.018836    0.146748
     7        -0.383289932289575    3.248e-05    0.008643    0.018835    0.018835    0.146748
     8        -0.383289793502011    1.255e-05    0.008643    0.018835    0.018835    0.146748
     9        -0.383289823387463    3.458e-06    0.008643    0.018835    0.018835    0.146748
    10        -0.383289826363972    1.544e-06    0.008643    0.018835    0.018835    0.146748
    11        -0.383289836414563    4.659e-07    0.008643    0.018835    0.018835    0.146748
    12        -0.383289840450544    1.935e-07    0.008643    0.018835    0.018835    0.146748
    13        -0.383289840923771    7.060e-08    0.008643    0.018835    0.018835    0.146748

    Iterations converged.


    Largest TIA Amplitudes:
              5  14        -0.0109554494
              6  14        -0.0098594082
              2   7        -0.0085098717
              2   9        -0.0082148274
              2   4         0.0076053348
              5  17         0.0075277221
              1   0        -0.0069350391
              1   8        -0.0069268907
              1   3         0.0063772897
              2   3        -0.0057368808

    Largest TIjAb Amplitudes:
      2   2  15  15        -0.0557781569
      1   1  15  15        -0.0278636304
      1   2  15  15         0.0272969982
      2   1  15  15         0.0272969982
      2   2  14  15         0.0270427379
      2   2  15  14         0.0270427379
      3   3  17  17        -0.0218529151
      2   3  15  17         0.0214876848
      3   2  17  15         0.0214876848
      2   6  15   2         0.0208245684

    SCF energy       (wfn)                    = -150.779183872358573
    Reference energy (file100)                = -150.779183872358317

    Opposite-spin MP2 correlation energy      =   -0.282698987529232
    Same-spin MP2 correlation energy          =   -0.097557317884345
    MP2 correlation energy                    =   -0.380256305413577
      * MP2 total energy                      = -151.159440177771899
    CC2 correlation energy                    =   -0.383289840923771
      * CC2 total energy                      = -151.162473713282083


*** tstop() called on psinet at Mon May 15 15:34:41 2017
Module time:
	user time   =       0.17 seconds =       0.00 minutes
	system time =       0.28 seconds =       0.00 minutes
	total time  =          0 seconds =       0.00 minutes
Total time:
	user time   =       0.96 seconds =       0.02 minutes
	system time =       0.39 seconds =       0.01 minutes
	total time  =          1 seconds =       0.02 minutes

*** tstart() called on psinet
*** at Mon May 15 15:34:41 2017


			**************************
			*                        *
			*         CCHBAR         *
			*                        *
			**************************


*** tstop() called on psinet at Mon May 15 15:34:42 2017
Module time:
	user time   =       0.02 seconds =       0.00 minutes
	system time =       0.03 seconds =       0.00 minutes
	total time  =          1 seconds =       0.02 minutes
Total time:
	user time   =       0.98 seconds =       0.02 minutes
	system time =       0.42 seconds =       0.01 minutes
	total time  =          2 seconds =       0.03 minutes

*** tstart() called on psinet
*** at Mon May 15 15:34:42 2017


			**************************
			*        CCLAMBDA        *
			**************************


	Nuclear Rep. energy (wfn)     =   38.253968380680327
	Reference           (wfn)     =                    0
	SCF energy          (wfn)     = -150.779183872358573
	Reference energy    (CC_INFO) = -150.779183872358317
	CC2 energy          (CC_INFO) =   -0.383289840923771
	Total CC2 energy    (CC_INFO) = -151.162473713282083

	Input parameters:
	-----------------
	Maxiter           =     50
	Convergence       = 1.0e-07
	Restart           =     No
	Cache Level       =     2
	Model III         =     No
	DIIS              =     Yes
	AO Basis          =     No
	ABCD              =     NEW
	Local CC          =     No
	Paramaters for left-handed eigenvectors:
	    Irr   Root  Ground-State?    EOM energy        R0
	  1   0     0        Yes       0.0000000000   1.0000000000
	Labels for eigenvector 1:
	LIA 0 -1, Lia 0 -1, LIJAB 0 -1, Lijab 0 -1, LIjAb 0 -1, 2LIjAb - LIjbA 0 -1
	Deleting old CC_LAMBDA data.
	Symmetry of left-hand state: A
	Symmetry of left-hand eigenvector: A

	          Solving Lambda Equations
	          ------------------------
	Iter     PseudoEnergy or Norm         RMS  
	----     ---------------------     --------
	   0        -0.383295397523609    0.000e+00
	   1        -0.383120322491644    1.686e-03
	   2        -0.383118990756195    4.354e-04
	   3        -0.383116158153778    2.067e-04
	   4        -0.383115581742903    6.283e-05
	   5        -0.383115059697210    2.959e-05
	   6        -0.383114943553521    9.670e-06
	   7        -0.383114954361293    3.957e-06
	   8        -0.383114969044348    1.278e-06
	   9        -0.383114972723800    5.372e-07
	  10        -0.383114973373711    1.690e-07
	  11        -0.383114972858116    6.804e-08

	Largest LIA Amplitudes:
	          5  14        -0.0106325455
	          6  14        -0.0091021051
	          2   7        -0.0085623603
	          2   9        -0.0085246839
	          2   4         0.0077474301
	          5  17         0.0076075600
	          1   8        -0.0069597320
	          1   3         0.0064431890
	          1   0        -0.0061242831
	          2   3        -0.0058807098

	Largest LIjAb Amplitudes:
	  2   2  15  15        -0.0557451680
	  1   1  15  15        -0.0278670139
	  1   2  15  15         0.0272995607
	  2   1  15  15         0.0272995607
	  2   2  14  15         0.0269850145
	  2   2  15  14         0.0269850145
	  3   3  17  17        -0.0218489283
	  2   3  15  17         0.0214821810
	  3   2  17  15         0.0214821810
	  2   6  15   2         0.0208269410

	Iterations converged.

	Overlap <L|e^T> =        0.89784269363

*** tstop() called on psinet at Mon May 15 15:34:42 2017
Module time:
	user time   =       0.05 seconds =       0.00 minutes
	system time =       0.05 seconds =       0.00 minutes
	total time  =          0 seconds =       0.00 minutes
Total time:
	user time   =       1.03 seconds =       0.02 minutes
	system time =       0.47 seconds =       0.01 minutes
	total time  =          2 seconds =       0.03 minutes

*** tstart() called on psinet
*** at Mon May 15 15:34:42 2017

			**************************
			*                        *
			*       ccresponse       *
			*                        *
			**************************

	Input parameters:
	-----------------
	Property         =    ROTATION
	Reference wfn    =    RHF
	Memory (Mbytes)  =    524.3
	Cache Level      =    0
	Print Level      =    1
	Maxiter          =    50
	Convergence      =    1.0e-07
	Restart          =    Allowed
	DIIS             =    Yes
	Model III        =    No
	Linear Model     =    No
	ABCD             =    NEW
	Irrep X          =    B
	Irrep Y          =    B
	Irrep Z          =    A
	Irrep RX         =    B
	Irrep RY         =    B
	Irrep RZ         =    A
	Gauge            =    BOTH
	Applied field  0 =    0.077 E_h (589.00 nm, 2.105 eV, 16977.93 cm-1)
	Applied field  1 =    0.128 E_h (355.00 nm, 3.493 eV, 28169.01 cm-1)
	Analyze X2 Amps  =    No
	Local CC         =    No


	DPD File2: P_X_IA
	DPD Parameters:
	------------------
	pnum = 0   qnum = 1   irrep = 1 
	Irreps = 2

	   Row and column dimensions for DPD Block:
	   ----------------------------------------
	   Irrep: 0 row =     4	col =    15
	   Irrep: 1 row =     3	col =    14

	File 101 DPD File2: P_X_IA
	Matrix for Irrep 0
	----------------------------------------

                         0                  1                  2                  3                  4                  5                  6                  7                  8     
                      ( 14)              ( 15)              ( 16)              ( 17)              ( 18)              ( 19)              ( 20)              ( 21)              ( 22)    

    0  (  0) -0.034398581574139 -0.022991789103343  0.034442469541574  0.330456382558595 -0.233180601662081  0.129080132683952 -0.099470500295552 -0.033215263141241 -0.017533788887759
    1  (  1) -0.125193963201420 -0.094056863638828  0.250103765613866 -0.112936578244967 -0.149788194818876 -0.227437707997397 -0.485204338670596  0.001668370995162 -0.115356975205661
    2  (  2)  0.012233240715705  0.002368950907699  0.032425209658723 -0.111084203408140 -0.039672156088148 -0.068595430902717  0.075952847158656 -0.294199045975953 -0.119345992966551
    3  (  3)  0.102558388937001  0.078769752966251  0.070643800093594  0.002465923506388 -0.048634367995697 -0.013847332731639  0.279588501721531  0.161409573415975 -0.750269595437933

                         9                 10                 11                 12                 13                 14     
                      ( 23)              ( 24)              ( 25)              ( 26)              ( 27)              ( 28)    

    0  (  0)  0.124162189892697 -0.147322676383198  0.023215723712951  0.018481088431889 -0.062726537287574  0.032176124900128
    1  (  1)  0.077900000614672  0.192270763412161  0.391012068764259  0.097598573976617  0.208812184695007 -0.131278202406216
    2  (  2)  0.138682144513485 -0.743794268000919  0.082765968014440  0.105416894706173  0.124502895186539 -0.026640226681012
    3  (  3) -0.046377167184700  0.100266413297349 -0.419637942135347  0.187251279348108  0.523906963118894  0.155125602890936

	File 101 DPD File2: P_X_IA
	Matrix for Irrep 1
	----------------------------------------

                         0                  1                  2                  3                  4                  5                  6                  7                  8     
                      (  0)              (  1)              (  2)              (  3)              (  4)              (  5)              (  6)              (  7)              (  8)    

    0  (  4) -0.041912647030473  0.112025419050593  0.015709063071357 -0.296474982770456 -0.369528478363753  0.133936885862951 -0.093834818402243 -0.023683854572816  0.145081231878617
    1  (  5) -0.197308914804751 -0.009979277982960  0.032584585136142  0.110675051536769 -0.043528206747949  0.380347857156503 -0.467872633414304  0.360690381381106 -0.081727457648454
    2  (  6)  0.017175555719515  0.257070166950214  0.064576654101859  0.063636492651100  0.124214525851134  0.043707573882425 -0.279300768930124 -0.436090246737450  0.143049583009588

                         9                 10                 11                 12                 13     
                      (  9)              ( 10)              ( 11)              ( 12)              ( 13)    

    0  (  4) -0.000746191936210  0.015117415730589  0.105376277097060 -0.086551013225984 -0.048055402355572
    1  (  5) -0.421110018244562 -0.132676872543725  0.513327593087781  0.036293567607712 -0.089362635661765
    2  (  6)  0.356450473386590  0.161425142060580  0.191834100484274  0.123847982073522  0.439997591973663

	DPD File2: P_XBAR_MI
	DPD Parameters:
	------------------
	pnum = 0   qnum = 0   irrep = 1 
	Irreps = 2

	   Row and column dimensions for DPD Block:
	   ----------------------------------------
	   Irrep: 0 row =     4	col =     3
	   Irrep: 1 row =     3	col =     4

	File 101 DPD File2: P_XBAR_MI
	Matrix for Irrep 0
	----------------------------------------

                         0                  1                  2     
                      (  4)              (  5)              (  6)    

    0  (  0)  0.029996182749086  0.414832297711576 -0.157003165507011
    1  (  1) -0.055478735634457  0.002196588374944  0.023132699054813
    2  (  2)  0.030157480407918 -0.003965129810969  0.011365271034479
    3  (  3)  0.379654970672918 -0.026306776079243 -0.008208478993038

	File 101 DPD File2: P_XBAR_MI
	Matrix for Irrep 1
	----------------------------------------

                         0                  1                  2                  3     
                      (  0)              (  1)              (  2)              (  3)    

    0  (  4) -0.031312576109208  0.054324731747600 -0.030004942403624 -0.379837271496892
    1  (  5) -0.410777629523562  0.000546200526033  0.004395778687124  0.022468424749377
    2  (  6)  0.155134874665963 -0.021960972132954 -0.010503724381488  0.005891989839471

	DPD File2: P_XBAR_AE
	DPD Parameters:
	------------------
	pnum = 1   qnum = 1   irrep = 1 
	Irreps = 2

	   Row and column dimensions for DPD Block:
	   ----------------------------------------
	   Irrep: 0 row =    14	col =    15
	   Irrep: 1 row =    15	col =    14

	File 101 DPD File2: P_XBAR_AE
	Matrix for Irrep 0
	----------------------------------------

                         0                  1                  2                  3                  4                  5                  6                  7                  8     
                      ( 14)              ( 15)              ( 16)              ( 17)              ( 18)              ( 19)              ( 20)              ( 21)              ( 22)    

    0  (  0)  0.041599393589885  0.048291903336677  0.117743150821259  0.017705215406280 -0.102750295559090  0.051687934108131 -0.132725758102637  0.024528471901836 -0.009589411271459
    1  (  1) -0.072748330347250 -0.064838255172247  0.046249888316539  0.094886169756313 -0.054353256296636 -0.001900039815832 -0.496484885699642 -0.156782601344965  0.027727244644896
    2  (  2)  0.003177839573369 -0.021969851213782  0.169948604805852 -0.034169379981814 -0.096419218256700 -0.054353168415603 -0.268581512702098 -0.051387229616377 -0.132183241821031
    3  (  3) -0.006137248486677  0.083042433269493  0.145748994350269 -0.009514642471795 -0.083396174376552  0.050339592310292 -0.147508653266551  0.025994438523140  0.274243623684456
    4  (  4)  0.041743411936218  0.025314466729841  0.109116009514395 -0.054695145126701 -0.041005429820194  0.040692158860824 -0.089212628083091 -0.089778026874393  0.379559976718284
    5  (  5) -0.144052404015687  0.020202343348371 -0.250448180839798  0.333938875810814  0.025165926872358  0.198674007872287  0.028751096000422 -0.150673278776424  0.071892589434733
    6  (  6)  0.035008068923664  0.061157292133481  0.423122850397629 -0.168586232676417 -0.215300951076719 -0.176816011547681  0.082786884188413  0.107997254201703 -0.322302818265947
    7  (  7) -0.040302039339094 -0.134662805884699  0.074305590729076  0.347285947244785 -0.297150726695267  0.120577275637125  0.158244548193724  0.221247160594885 -0.027161970952188
    8  (  8) -0.102303986757075 -0.083520013523575  0.381308184856285 -0.143001282615579  0.075527648534131  0.132398234942646  0.075131991247111 -0.046753082020740 -0.011707789197025
    9  (  9)  0.017637489191487  0.048428952825929  0.034610320117865 -0.459992261564512  0.414982694469193 -0.130318968246814 -0.031074590688744  0.007719514803475  0.025148594805028
   10  ( 10)  0.073180570141060 -0.217870134214265  0.063234912206834 -0.261216160873510  0.027363003829309  0.069320876175761 -0.042163326174403 -0.184139514400861  0.015591773535866
   11  ( 11) -0.219122634582937 -0.188385339460405  0.640855359878310  0.491678336416958 -0.065767561519751  0.413066703397514 -0.291084239981445 -0.093425757726901 -0.193265915162178
   12  ( 12) -0.256885363420365  0.713325451456200  0.225955555841318  0.439590507884674  0.345303095230338 -0.616947103758895  0.172377723246676 -0.152457697169388 -0.041630471494425
   13  ( 13) -0.012167367476476 -0.157114215675033  0.156454629287810 -0.271295067840173  0.465831347294122  0.087124608448573 -0.001414398542050 -0.117289965933426 -0.301481262964454

                         9                 10                 11                 12                 13                 14     
                      ( 23)              ( 24)              ( 25)              ( 26)              ( 27)              ( 28)    

    0  (  0)  0.150893623694895  0.070181619718899  0.231121270771796  0.047212329811452  0.038360068214684 -0.065024101530573
    1  (  1) -0.459608701558993 -0.017988718780734 -0.620163221664037 -0.047501992394079  0.054935480129094  0.084306620301789
    2  (  2)  0.170353437709830 -0.137438184253801  0.448066510819233  0.273677026815508  0.394525740926135 -0.158445088257267
    3  (  3) -0.027380670374415  0.505626164435732  0.414944314617527 -0.268646310616022 -0.386727191221954 -0.113140672337300
    4  (  4) -0.013445627632877 -0.536383433584967  0.308426011289951 -0.080146650927920 -0.587918144857996 -0.127182537475191
    5  (  5)  0.035132080582143 -0.167243745339779 -0.093457222254525 -0.023174375055702  0.241438836836271 -0.025034069681694
    6  (  6) -0.086275759818652 -0.157794617049890  0.091627759449496 -0.100678024828998  0.039930496632404  0.039747117277017
    7  (  7) -0.064055657553950  0.320525847624377  0.102126662685902  0.025362375541365 -0.011829791315064 -0.091201427043929
    8  (  8)  0.004186527107181 -0.116906210612177 -0.371187985035768 -0.069143142950027 -0.337550034775452  0.350111866606547
    9  (  9) -0.075561519107680  0.174471452153015 -0.018361558412792  0.007353276651567  0.041439267169245  0.006958189017632
   10  ( 10) -0.027806429179180  0.167045135107807 -0.001907984997949  0.011283070546443 -0.060669265876427 -0.055774837261520
   11  ( 11)  0.242522311612009  0.043113021308048 -0.036594154697736  0.051685667595428 -0.018454723698115 -0.000828881346793
   12  ( 12) -0.005035323729735  0.080726831317060 -0.052335499542956  0.044973984976305  0.061396486662391  0.099208229191671
   13  ( 13)  0.438941651704024  0.153468022162067 -0.023659734102045  0.002885107851831 -0.071809885174399 -0.077694612962715

	File 101 DPD File2: P_XBAR_AE
	Matrix for Irrep 1
	----------------------------------------

                         0                  1                  2                  3                  4                  5                  6                  7                  8     
                      (  0)              (  1)              (  2)              (  3)              (  4)              (  5)              (  6)              (  7)              (  8)    

    0  ( 14) -0.044666447845943  0.075416998324096 -0.002009211971351  0.008745765947599 -0.041041980388066  0.148478826412725 -0.043148497905126  0.040061402921621  0.101604386418633
    1  ( 15) -0.049162162504633  0.064892835130685  0.021916980092655 -0.084534607702244 -0.027746026910093 -0.020171890051146 -0.060412253106789  0.135461490072396  0.083108283525263
    2  ( 16) -0.115794665664267 -0.047097729608731 -0.169526813418150 -0.148848835873427 -0.110367886513380  0.250308022536814 -0.421430914373290 -0.072716285234647 -0.379882079141591
    3  ( 17) -0.016234704461670 -0.093143898198671  0.032604929784834  0.008570214748756  0.053618454434530 -0.336390621280297  0.171051246725478 -0.351382500390790  0.144302708365158
    4  ( 18)  0.099685614405052  0.053576457156830  0.096408379043871  0.083491653355765  0.040031855455092 -0.023231985357187  0.214146456651999  0.299411639286517 -0.077061465722781
    5  ( 19) -0.053256491006665  0.003075384449121  0.053515222726753 -0.048399268191864 -0.040795198256978 -0.198132545540493  0.175051498642490 -0.121535923725232 -0.133335441765840
    6  ( 20)  0.128712692365555  0.496870742485916  0.268871209763746  0.149658569303091  0.086711112842081 -0.028977130072006 -0.083484855541891 -0.156340017572166 -0.079418276499146
    7  ( 21) -0.026401094602506  0.157512598855912  0.050672592676314 -0.027957891435237  0.092269588876111  0.151809482826698 -0.107865561412261 -0.222862187720663  0.046783186727291
    8  ( 22)  0.009612639390837 -0.030421923009696  0.129146467815306 -0.272344846639473 -0.379884587515890 -0.072760001001148  0.325598038741842  0.027479294568787  0.012294936872080
    9  ( 23) -0.149880437140593  0.460631247362792 -0.169664291741312  0.027589402289004  0.011349753598096 -0.033685842546708  0.083139401924745  0.064655346261025 -0.002952710962413
   10  ( 24) -0.073162117570193  0.020016390706408  0.135536511029942 -0.511692353689708  0.542889881863847  0.170172745263858  0.158312356422075 -0.326976851708720  0.119792799568885
   11  ( 25) -0.227319331530806  0.618159967248025 -0.448267162037961 -0.415380348389647 -0.307673615218558  0.093264262201907 -0.090383721735685 -0.101137463170207  0.374119595658697
   12  ( 26) -0.046325835806633  0.048013260965168 -0.272519638024099  0.267929097643861  0.079599126690116  0.023217992764788  0.099878544648145 -0.024929139459656  0.069393891025270
   13  ( 27) -0.037489883688669 -0.053493928653226 -0.391870980933739  0.384400627963214  0.588279019279798 -0.241045539088516 -0.041562667530972  0.011794273471007  0.337810411804872
   14  ( 28)  0.063867435849832 -0.083549153123607  0.158471290677241  0.113540200875422  0.127048928726566  0.025106714900888 -0.040372191298617  0.090932947916166 -0.351148385967210

                         9                 10                 11                 12                 13     
                      (  9)              ( 10)              ( 11)              ( 12)              ( 13)    

    0  ( 14) -0.018436133716857 -0.072929640795625  0.226474353889952  0.258554501885766  0.015629581468102
    1  ( 15) -0.048844627710976  0.217699525631316  0.187612863297424 -0.714214561739857  0.155652904029163
    2  ( 16) -0.036504178760377 -0.064141704639546 -0.642298500392749 -0.226999184132633 -0.158883513257702
    3  ( 17)  0.464003802662343  0.262951360765947 -0.494608205306355 -0.439690590633845  0.272979507733357
    4  ( 18) -0.417911613304926 -0.028340434910992  0.067656000741894 -0.345749519725828 -0.467548326168384
    5  ( 19)  0.131287835524258 -0.068639225223597 -0.411512073768996  0.617585289861537 -0.085587328981715
    6  ( 20)  0.031740361337335  0.042325765757491  0.290709707718165 -0.172790703648515  0.000532545780898
    7  ( 21) -0.011558038421621  0.183385354532032  0.093657523746171  0.152317012205746  0.116530260167129
    8  ( 22) -0.024591234247673 -0.015437963416840  0.192723206306395  0.041545920874624  0.300722952291357
    9  ( 23)  0.076860307291410  0.028222730174457 -0.239744246838648  0.005401314981702 -0.437602472364683
   10  ( 24) -0.182325175721446 -0.168262818970868 -0.041985084407523 -0.080814437382504 -0.153682650364464
   11  ( 25)  0.018251396178258  0.001487318511567  0.036744565685453  0.052466578072734  0.023330767494251
   12  ( 26) -0.006994832022894 -0.011312050265967 -0.051710399870511 -0.045052170184275 -0.002799991775595
   13  ( 27) -0.042051003701905  0.060322036458563  0.018224376602008 -0.061574434209411  0.071889000854515
   14  ( 28) -0.006898519418229  0.055936666673248  0.000904652270607 -0.099150038783025  0.077924550244227

	DPD File2: P_XBAR_IA
	DPD Parameters:
	------------------
	pnum = 0   qnum = 1   irrep = 1 
	Irreps = 2

	   Row and column dimensions for DPD Block:
	   ----------------------------------------
	   Irrep: 0 row =     4	col =    15
	   Irrep: 1 row =     3	col =    14

	File 101 DPD File2: P_XBAR_IA
	Matrix for Irrep 0
	----------------------------------------

                         0                  1                  2                  3                  4                  5                  6                  7                  8     
                      ( 14)              ( 15)              ( 16)              ( 17)              ( 18)              ( 19)              ( 20)              ( 21)              ( 22)    

    0  (  0)  0.024746315003693  0.016019947683600 -0.033657454181441 -0.314697310181057  0.226266938924475 -0.124444118187600  0.100976019942115  0.040776992946741  0.016684212809041
    1  (  1)  0.134389185453098  0.111083358436336 -0.277285327152191  0.119300944830562  0.165892793225342  0.243843028361365  0.522257860139305 -0.003856507813829  0.130032133651498
    2  (  2) -0.005712363782982 -0.008727960227379 -0.039141212770465  0.103639199943747  0.051337772042530  0.071715964883614 -0.083650082880478  0.323814625304121  0.126954317090625
    3  (  3) -0.081293710540179 -0.115829551524333 -0.096804246842583  0.012689929096652  0.055158220665324  0.020215225885504 -0.309792669510693 -0.175501033742058  0.786497084573792

                         9                 10                 11                 12                 13                 14     
                      ( 23)              ( 24)              ( 25)              ( 26)              ( 27)              ( 28)    

    0  (  0) -0.131346722870458  0.163299814747146 -0.027069647322617 -0.020320497257903  0.063430953058875 -0.031962758863077
    1  (  1) -0.087630835970581 -0.216123500984143 -0.418559649023597 -0.101182356933807 -0.219334050753127  0.138730916232525
    2  (  2) -0.150883742374018  0.808729391001562 -0.082068044594556 -0.109718430012718 -0.126065481544348  0.025072338478445
    3  (  3)  0.037377902285561 -0.112570729969231  0.441791115721159 -0.197182836023279 -0.548068009411335 -0.161473931329561

	File 101 DPD File2: P_XBAR_IA
	Matrix for Irrep 1
	----------------------------------------

                         0                  1                  2                  3                  4                  5                  6                  7                  8     
                      (  0)              (  1)              (  2)              (  3)              (  4)              (  5)              (  6)              (  7)              (  8)    

    0  (  4)  0.035230659308422 -0.106839323325161 -0.014678428381540  0.286556627519623  0.361604275339255 -0.140599935526212  0.104171301624044  0.023270847691008 -0.152469667501182
    1  (  5)  0.205844940105254  0.013703890486825 -0.030101864871895 -0.113405292167378  0.067278306831822 -0.396432225285843  0.507639566286884 -0.374194080683992  0.087133202725049
    2  (  6) -0.008020887713167 -0.297537793700841 -0.070946233356648 -0.062333784651526 -0.130550836206602 -0.053406231056288  0.297352200120301  0.465262963875225 -0.160837314824145

                         9                 10                 11                 12                 13     
                      (  9)              ( 10)              ( 11)              ( 12)              ( 13)    

    0  (  4)  0.001388437190181 -0.015460041565487 -0.116558611446075  0.083788280005113  0.046694291841919
    1  (  5)  0.445165309099416  0.139286068687201 -0.540190784438892 -0.030841865046205  0.087779833305208
    2  (  6) -0.377644271326903 -0.173431493737049 -0.206412471480948 -0.122708702224090 -0.459634387384366

	Computing P_X-Perturbed Wave Function (0.000 E_h).
	Iter   Pseudopolarizability       RMS 
	----   --------------------   -----------
	   0         8.303506851349
	   1         9.193848226845    2.084e-01
	   2         9.636843399963    9.790e-02
	   3         9.678481341515    3.741e-02
	   4         9.680529587949    1.626e-02
	   5         9.682153195858    4.818e-03
	   6         9.682771899405    2.297e-03
	   7         9.682666052203    8.525e-04
	   8         9.682666234373    3.434e-04
	   9         9.682641166919    1.111e-04
	  10         9.682657337986    4.506e-05
	  11         9.682662571258    1.191e-05
	  12         9.682664918531    2.896e-06
	  13         9.682666055423    1.103e-06
	  14         9.682666500679    4.728e-07
	  15         9.682666695629    1.708e-07
	-----------------------------------------
	Converged P_X-Perturbed Wfn to 8.248e-08

	DPD File2: L_X_IA
	DPD Parameters:
	------------------
	pnum = 0   qnum = 1   irrep = 1 
	Irreps = 2

	   Row and column dimensions for DPD Block:
	   ----------------------------------------
	   Irrep: 0 row =     4	col =    15
	   Irrep: 1 row =     3	col =    14

	File 101 DPD File2: L_X_IA
	Matrix for Irrep 0
	----------------------------------------

                         0                  1                  2                  3                  4                  5                  6                  7                  8     
                      ( 14)              ( 15)              ( 16)              ( 17)              ( 18)              ( 19)              ( 20)              ( 21)              ( 22)    

    0  (  0)  0.016118777276718  0.076689387067913 -0.125264792267221  0.007931013310217 -0.098301937535593 -0.089040062536424 -0.042653189503994  0.143650549015436  0.062698356849212
    1  (  1) -0.038523460792179  0.325926212074865 -0.217436403108293  0.076210929079432  0.124956744969497  0.049869905306322 -0.256022567536767  0.049219148025195 -0.025163660677602
    2  (  2) -0.015460259327547  0.182364499530156 -0.081021447104321  0.065186772706330  0.193628085224677  0.090709199284776 -0.144227288852923  0.007154481293498 -0.060483347873675
    3  (  3) -0.069494321441893 -0.016013992178317  0.169506236224066 -0.050547669997832 -0.177140340538940 -0.181255025833280 -0.201077665225234 -0.109139777586644 -0.215083611892043

                         9                 10                 11                 12                 13                 14     
                      ( 23)              ( 24)              ( 25)              ( 26)              ( 27)              ( 28)    

    0  (  0) -0.159361864611547 -0.056476108299595  0.034334354535918 -0.068420323850582  0.100698715800708 -0.049820592017770
    1  (  1) -0.121041364374114 -0.003994619377141  0.190684428167188  0.052070114913576 -0.189028662705244  0.205096915582729
    2  (  2)  0.013836799939810 -0.073875918803127  0.147901928532532 -0.343158528114237  0.053056478393270  0.086736758175874
    3  (  3)  0.065392768372805 -0.072388535495378  0.365788807268921  0.156911353062510  0.184439406968008 -0.043117455907294

	File 101 DPD File2: L_X_IA
	Matrix for Irrep 1
	----------------------------------------

                         0                  1                  2                  3                  4                  5                  6                  7                  8     
                      (  0)              (  1)              (  2)              (  3)              (  4)              (  5)              (  6)              (  7)              (  8)    

    0  (  4)  0.095080611028908 -0.132974666952804  0.233475927910161 -0.109077700761846 -0.033619328181737 -0.003336619392380 -0.079318686273404 -0.006541773193158 -0.188514066103897
    1  (  5)  0.133180554197727 -0.220459497770331 -0.122961007604824 -0.144493780528946  0.034530325126907 -0.144382538755413  0.001565508478524  0.179104189145753 -0.084352671049968
    2  (  6)  0.305369897772513 -0.245966510909099 -0.171589985467973 -0.288954965589218  0.048536799653855 -0.105233271021501 -0.400024803684154 -0.035818012706252 -0.066124321501178

                         9                 10                 11                 12                 13     
                      (  9)              ( 10)              ( 11)              ( 12)              ( 13)    

    0  (  4) -0.011358647742863  0.047842821118303  0.011877525445924 -0.012099889406653  0.055702357687979
    1  (  5) -0.060987538430201 -0.100437160073965 -0.174976176295347 -0.033059202656665 -0.296249624542352
    2  (  6)  0.156959926194247 -0.053853503787388  0.406665675932452 -0.026462885456154 -0.143060389345537

	DPD File2: L_XBAR_MI
	DPD Parameters:
	------------------
	pnum = 0   qnum = 0   irrep = 1 
	Irreps = 2

	   Row and column dimensions for DPD Block:
	   ----------------------------------------
	   Irrep: 0 row =     4	col =     3
	   Irrep: 1 row =     3	col =     4

	File 101 DPD File2: L_XBAR_MI
	Matrix for Irrep 0
	----------------------------------------

                         0                  1                  2     
                      (  4)              (  5)              (  6)    

    0  (  0)  0.020933994600407 -0.036837370041379 -0.105536213576206
    1  (  1)  0.298453027380229 -0.115575201783048 -0.255528599615226
    2  (  2)  0.258793135913466  0.115959940555419  0.442826057795207
    3  (  3)  0.060024736570871 -0.030098554189580 -0.068752806226701

	File 101 DPD File2: L_XBAR_MI
	Matrix for Irrep 1
	----------------------------------------

                         0                  1                  2                  3     
                      (  0)              (  1)              (  2)              (  3)    

    0  (  4) -0.019369167440737 -0.299662599013855 -0.261538199445486 -0.060711849430240
    1  (  5)  0.036904684367184  0.115259605353545 -0.117033018013317  0.032657591929025
    2  (  6)  0.104769015611942  0.252811001882398 -0.444270078409878  0.069751899589244

	DPD File2: L_XBAR_AE
	DPD Parameters:
	------------------
	pnum = 1   qnum = 1   irrep = 1 
	Irreps = 2

	   Row and column dimensions for DPD Block:
	   ----------------------------------------
	   Irrep: 0 row =    14	col =    15
	   Irrep: 1 row =    15	col =    14

	File 101 DPD File2: L_XBAR_AE
	Matrix for Irrep 0
	----------------------------------------

                         0                  1                  2                  3                  4                  5                  6                  7                  8     
                      ( 14)              ( 15)              ( 16)              ( 17)              ( 18)              ( 19)              ( 20)              ( 21)              ( 22)    

    0  (  0)  0.140264901989733  0.063903836208699 -0.058837720478352  0.099834492513907 -0.059321359064120 -0.159667027697165  0.002087278187155 -0.046204224826822  0.008601023391654
    1  (  1)  0.090548490120094  0.202601353512521 -0.092021876157039 -0.096539072052076  0.170154281529190  0.083912296322856 -0.509059273187919  0.818772979644944 -0.070828284365831
    2  (  2) -0.023785290834440  0.356113587695746 -0.273990976839633  0.279080899835077  0.352444630227807 -0.196438091918127 -0.305379232907246  0.066497365309673 -0.201285694555553
    3  (  3) -0.097000901586890 -0.245927544981609  0.317839114090104 -0.024062116307509  0.214330573426622  0.049574376579038  0.029033713280387  0.054130019251520  0.003096872422290
    4  (  4)  0.057665969694975  0.180120952217609 -0.233587576455003 -0.044983378670389 -0.207784279042752 -0.114395252588051 -0.123426849025620  0.227078923197640  0.055512731053919
    5  (  5)  0.215771286107017 -0.314990234779514  0.316883540178273 -0.120867850220651 -0.280144439745990 -0.294187393366344  0.216440287801491  0.200727103538268  0.064432166939549
    6  (  6)  0.088234371667199 -0.148935506374453  0.366935246390926 -0.011963781822206 -0.214228897418480 -0.110020140834853  0.192637863546336  0.231329350431262 -0.059800681126411
    7  (  7)  0.046850408794017  0.280155317167354 -0.370918303757493  0.110906122388338 -0.088736250126073  0.146624611249212  0.021132431838050 -0.399622620248781 -0.041122390922446
    8  (  8)  0.213219122375795  0.108141657808912 -0.632333203738691 -0.072815736912248 -0.035034243651177 -0.162896842787152  0.072787072592851 -0.219123938652928  0.041084573561980
    9  (  9) -0.053156461400872  0.091068663315953  0.087565530354209 -0.029252405162185  0.135958664144556 -0.072618412616147 -0.001674517036243 -0.447580570679361 -0.046048420321104
   10  ( 10)  0.217389369502915 -0.434955320268289 -0.409591028918221 -0.322091930890678 -0.032769693001793  0.320487371417185 -0.022524010208261  0.286088771348247  0.028739508255570
   11  ( 11) -0.043655408036923 -0.078795431314355  0.262179238045958 -0.331516326719145  0.435766491266973  0.063689969335775  0.247099037158842 -0.001834914627208 -0.140224560742036
   12  ( 12)  0.056091676196041 -0.010888223476601 -0.132073582410605 -0.097444459311610 -0.064913316133021  0.000177701715007 -0.216786241209526  0.136744724942230 -0.129238968566818
   13  ( 13)  0.037502956248588  0.225853404732459 -0.091597810906130 -0.251988574100633 -0.015208060782166 -0.284415044485862  0.108318027167763 -0.003844624714701  0.367465648248442

                         9                 10                 11                 12                 13                 14     
                      ( 23)              ( 24)              ( 25)              ( 26)              ( 27)              ( 28)    

    0  (  0) -0.222316043515167 -0.015706219813463  0.082385006687323  0.001598515176526 -0.060473243217389  0.093727480766949
    1  (  1)  0.559608456549858 -0.123427525882107 -0.153467678522300  0.170334032667733  0.080737466652229 -0.083738891751815
    2  (  2) -0.169476216588372 -0.033571289044868  0.409164888922183 -0.223598543173703 -0.075034173166592  0.314714537560898
    3  (  3) -0.116710909315587 -0.019725573527899 -0.283423547853851  0.175125619030571 -0.285157403250330 -0.036616525847272
    4  (  4)  0.005652624292139 -0.042302085019157 -0.326173261129769 -0.429217689689009 -0.082297928451406  0.119033467524284
    5  (  5) -0.013435701805302 -0.050340607661262  0.120543829176020  0.018862712789976 -0.153571720838539 -0.076183620287342
    6  (  6) -0.081289708009931 -0.326406046335036 -0.215268699384039 -0.111421444458008 -0.019027619773839 -0.098888316320561
    7  (  7)  0.155159820795191  0.099172439421062 -0.073800976886369  0.027692155232150 -0.092694133839465  0.234604646553242
    8  (  8) -0.037085102415804  0.221081896212579  0.033634728216750 -0.500286732444351  0.749342092540156 -0.380702305205404
    9  (  9) -0.121604531068674  0.307665948271799  0.063134933207080  0.759313712683920 -0.291120411772340  0.157024245706381
   10  ( 10)  0.436899181077485  0.180584483336558 -0.427706818265059  0.039319556166540 -0.042977724169090 -0.570262735340486
   11  ( 11)  0.012744975594807  0.355849153273437  0.014473345977422  0.331011762918571 -0.082407538751978 -0.048301595441151
   12  ( 12)  0.275248111407278 -0.041018113706033  0.197136817157671  0.114052207324907  0.270934107062802 -0.185007344485103
   13  ( 13) -0.588095271872907  0.141945816656544  0.099720177389796 -0.418487800295615  0.225864709971247  0.209383142865026

	File 101 DPD File2: L_XBAR_AE
	Matrix for Irrep 1
	----------------------------------------

                         0                  1                  2                  3                  4                  5                  6                  7                  8     
                      (  0)              (  1)              (  2)              (  3)              (  4)              (  5)              (  6)              (  7)              (  8)    

    0  ( 14) -0.136055292355694 -0.095447390079347  0.020092912976434  0.093125301806220 -0.056850399225407 -0.218468169087224 -0.091857234706707 -0.045161486852285 -0.214714486134322
    1  ( 15) -0.061207776400221 -0.202708633629203 -0.353114471023019  0.245649376419509 -0.180866138364055  0.315320438007609  0.149515492263402 -0.279091224397235 -0.106858935875576
    2  ( 16)  0.054684214245548  0.094025065222631  0.275943577798576 -0.316343751367853  0.233336305598421 -0.315879985031554 -0.365377908227226  0.369960150477034  0.630562926717983
    3  ( 17) -0.098691998170038  0.096665834479755 -0.277640044986255  0.024005765248171  0.044522040617363  0.121507599385942  0.010509659584452 -0.111862233831111  0.073060388343777
    4  ( 18)  0.060773979545103 -0.171895263117879 -0.351151470699543 -0.213576840796561  0.206989754617355  0.279451579746568  0.215385933896327  0.091082110140094  0.034953691198189
    5  ( 19)  0.161690364133666 -0.086139117701405  0.195608563911700 -0.050196750893511  0.114409300434365  0.293302924591731  0.108870291716062 -0.145705855705796  0.162864209989072
    6  ( 20) -0.004933077734451  0.509112916459710  0.304189657786548 -0.027011307788327  0.123564513171828 -0.216326146660916 -0.190918994832488 -0.021599458243800 -0.073921971953618
    7  ( 21)  0.046939300208702 -0.818898745115203 -0.067231269443300 -0.053385434393296 -0.227366778650237 -0.200959323300597 -0.230355491785385  0.400408400878960  0.219890208910705
    8  ( 22) -0.008875208231352  0.070617448884289  0.201028236092674 -0.001986037102761 -0.055524570746341 -0.064229773357339  0.060955407810688  0.040899342701131 -0.040928237624119
    9  ( 23)  0.222811666664924 -0.561652381203117  0.169673185845513  0.114995614482548 -0.005558626156144  0.012604855943771  0.079125943676940 -0.154935461007958  0.034774271928086
   10  ( 24)  0.015658264689240  0.122684274627557  0.033049817652525  0.019053422527856  0.043070830779647  0.050152205966201  0.326697513368332 -0.099443390036437 -0.221198097566913
   11  ( 25) -0.081038041563998  0.154593341750109 -0.407140318932015  0.281943720612524  0.325675147388091 -0.120351655341300  0.214124337140198  0.074325284613070 -0.033051994607934
   12  ( 26) -0.003149016432995 -0.169066126704247  0.222974141740589 -0.178167341127522  0.432229982121926 -0.017874255780557  0.111773550217198 -0.031100511775823  0.501206663109641
   13  ( 27)  0.059358328554787 -0.079903052840459  0.074950199177092  0.286331686497645  0.080924619758582  0.153353900448008  0.018409365441285  0.093462744168481 -0.750750124348623
   14  ( 28) -0.091958135023799  0.083203421400522 -0.314158605792346  0.035767063530523 -0.118730598661038  0.076122730197959  0.098773188363533 -0.234233392684110  0.381969165301674

                         9                 10                 11                 12                 13     
                      (  9)              ( 10)              ( 11)              ( 12)              ( 13)    

    0  ( 14)  0.054160915945435 -0.219019011349662  0.045758113327127 -0.056667077142789 -0.042241899582406
    1  ( 15) -0.090944710506667  0.435278295065967  0.077842273581986  0.010976755804933 -0.224792334219630
    2  ( 16) -0.088739489380716  0.410297160213696 -0.264172456920591  0.132125091344127  0.093086518366917
    3  ( 17)  0.030526782846372  0.322820843845168  0.334117022964461  0.097597092001327  0.253965732413029
    4  ( 18) -0.135352462834385  0.032599183228470 -0.437639446212980  0.064872058901817  0.014497262646809
    5  ( 19)  0.073899654730418 -0.320885730724582 -0.062344415655815 -0.000276840662838  0.283336476795494
    6  ( 20)  0.001158784637986  0.022837257389258 -0.248024269025134  0.216907823965295 -0.108098145849832
    7  ( 21)  0.447481917087615 -0.286161905602593  0.000998969948768 -0.136653733410725  0.003506425728696
    8  ( 22)  0.045854947627217 -0.028382633755544  0.139989494186326  0.129405417600200 -0.366820033409189
    9  ( 23)  0.122256207458047 -0.437180402944018 -0.011581755997574 -0.275567866951771  0.586898649032607
   10  ( 24) -0.308323852677716 -0.180850894824874 -0.356131896237587  0.040945642422097 -0.142574344254175
   11  ( 25) -0.063098776158311  0.427549053292048 -0.014802143274602 -0.197270506582776 -0.099635293972029
   12  ( 26) -0.762581095039526 -0.039734172920420 -0.331033022441233 -0.114161465508821  0.418490755826768
   13  ( 27)  0.291938944356791  0.043222558646299  0.082214356128397 -0.270960148007918 -0.225910263769329
   14  ( 28) -0.156871086239258  0.569997035340427  0.048467653901961  0.184994394399640 -0.209531521675463

	DPD File2: L_XBAR_IA
	DPD Parameters:
	------------------
	pnum = 0   qnum = 1   irrep = 1 
	Irreps = 2

	   Row and column dimensions for DPD Block:
	   ----------------------------------------
	   Irrep: 0 row =     4	col =    15
	   Irrep: 1 row =     3	col =    14

	File 101 DPD File2: L_XBAR_IA
	Matrix for Irrep 0
	----------------------------------------

                         0                  1                  2                  3                  4                  5                  6                  7                  8     
                      ( 14)              ( 15)              ( 16)              ( 17)              ( 18)              ( 19)              ( 20)              ( 21)              ( 22)    

    0  (  0) -0.009005560415623 -0.070810523176756  0.120067832596336 -0.009073132789111  0.090464498751398  0.086174111119373  0.045794981404386 -0.145874969594553 -0.061668751575060
    1  (  1)  0.049157751161972 -0.341837336007350  0.225991322214187 -0.079794887273929 -0.129000775913247 -0.051890082528236  0.264098306233448 -0.041882987798599  0.014437873768970
    2  (  2)  0.004178475304277 -0.176534362212289  0.088484784587537 -0.060893560844690 -0.188770646517555 -0.098157508320735  0.154422738208034 -0.028159762307555  0.056745595914693
    3  (  3)  0.078632631263388  0.018162490565873 -0.185802179760100  0.047918543127627  0.190222116766269  0.186537019008413  0.211456806958065  0.116264562677772  0.222361952728926

                         9                 10                 11                 12                 13                 14     
                      ( 23)              ( 24)              ( 25)              ( 26)              ( 27)              ( 28)    

    0  (  0)  0.163744366705642  0.058513889685970 -0.036529339633759  0.074890516703334 -0.101980211526259  0.048987870817685
    1  (  1)  0.129678391589482  0.003465728257172 -0.197451754644998 -0.065935565415855  0.202740138649215 -0.212710296862526
    2  (  2) -0.022460564343481  0.084272909470110 -0.151124340943610  0.372643880141893 -0.063147940573229 -0.083681000851943
    3  (  3) -0.069418152871991  0.077040623108211 -0.377203303892570 -0.165559399244409 -0.189357768189075  0.044737808867411

	File 101 DPD File2: L_XBAR_IA
	Matrix for Irrep 1
	----------------------------------------

                         0                  1                  2                  3                  4                  5                  6                  7                  8     
                      (  0)              (  1)              (  2)              (  3)              (  4)              (  5)              (  6)              (  7)              (  8)    

    0  (  4) -0.085668830826553  0.137820799821437 -0.214610467959115  0.105542261331556  0.036859097160689  0.000473863191174  0.079606876493944  0.008613359831916  0.198755661758929
    1  (  5) -0.139412038667802  0.235636886292819  0.125284829879155  0.147970518740886 -0.038362154224415  0.146537444592957 -0.006121389458957 -0.189794595760352  0.090516747843845
    2  (  6) -0.309048143972662  0.258748687397471  0.168238503241560  0.304764034594855 -0.050456064213728  0.094565768675384  0.416604423570803  0.027331415693024  0.066446598559605

                         9                 10                 11                 12                 13     
                      (  9)              ( 10)              ( 11)              ( 12)              ( 13)    

    0  (  4)  0.012674523904092 -0.052192101234842 -0.013753920669735  0.012760663896321 -0.052741920591875
    1  (  5)  0.065601509403616  0.098250162685792  0.177768481553462  0.033008693934466  0.305584708162464
    2  (  6) -0.160962535198798  0.052046626684920 -0.419200543530858  0.024457493928166  0.150587999794565

	Computing L_X-Perturbed Wave Function (0.000 E_h).
	Iter   Pseudopolarizability       RMS 
	----   --------------------   -----------
	   0         4.658665831463
	   1         5.704690093791    2.985e-01
	   2         6.599421155196    1.748e-01
	   3         6.680295220430    4.474e-02
	   4         6.699746582028    2.323e-02
	   5         6.704527611233    5.924e-03
	   6         6.705370887113    3.380e-03
	   7         6.705465968510    1.070e-03
	   8         6.705502286498    4.580e-04
	   9         6.705475558665    1.760e-04
	  10         6.705489968409    5.804e-05
	  11         6.705502212499    1.459e-05
	  12         6.705510528016    5.077e-06
	  13         6.705514495090    2.013e-06
	  14         6.705515917988    9.032e-07
	  15         6.705516478457    3.695e-07
	  16         6.705516830802    1.819e-07
	-----------------------------------------
	Converged L_X-Perturbed Wfn to 4.561e-08

	DPD File2: P_Y_IA
	DPD Parameters:
	------------------
	pnum = 0   qnum = 1   irrep = 1 
	Irreps = 2

	   Row and column dimensions for DPD Block:
	   ----------------------------------------
	   Irrep: 0 row =     4	col =    15
	   Irrep: 1 row =     3	col =    14

	File 101 DPD File2: P_Y_IA
	Matrix for Irrep 0
	----------------------------------------

                         0                  1                  2                  3                  4                  5                  6                  7                  8     
                      ( 14)              ( 15)              ( 16)              ( 17)              ( 18)              ( 19)              ( 20)              ( 21)              ( 22)    

    0  (  0)  0.059484933862835 -0.014840374750558  0.035360338576360  0.173310409629633  0.059725101605321 -0.257184966477164  0.063490095178001 -0.155623028848452  0.002426177597214
    1  (  1)  0.228582316542215 -0.259588493824183 -0.059979506895381 -0.002310310036236 -0.214166554941788 -0.116943892441225  0.108842892801007 -0.344598351692938  0.046446999584419
    2  (  2) -0.320448650163398  0.500204746721717 -0.049266542548722 -0.152597804353277 -0.167277822949482  0.193147703880440 -0.032524845682255 -0.036762728768834 -0.080681033267355
    3  (  3)  0.009703572292968 -0.082952949000966  0.090825897592600 -0.068137067278425  0.068002795336981 -0.155982720923085 -0.189371220312700  0.353775834732784 -0.023853285599523

                         9                 10                 11                 12                 13                 14     
                      ( 23)              ( 24)              ( 25)              ( 26)              ( 27)              ( 28)    

    0  (  0) -0.026559166873629  0.005391969117388 -0.002011264512932  0.046870885231393  0.012715635371485  0.026571877043427
    1  (  1) -0.038988897688016  0.019721374639789 -0.014060753119275  0.430701935913609 -0.259024740507495 -0.161810701507464
    2  (  2) -0.100083737029750  0.093431068521730  0.015885697887836  0.259560607774115  0.146766142473160  0.593605654650708
    3  (  3) -0.130235873557485  0.844890867177988  0.085670264124908  0.093010825973034 -0.012325537516171 -0.119484996772910

	File 101 DPD File2: P_Y_IA
	Matrix for Irrep 1
	----------------------------------------

                         0                  1                  2                  3                  4                  5                  6                  7                  8     
                      (  0)              (  1)              (  2)              (  3)              (  4)              (  5)              (  6)              (  7)              (  8)    

    0  (  4) -0.011411967833044  0.019523193555091 -0.029394421691951  0.441924368380274 -0.383516159929503  0.004430337133144 -0.015018368377510  0.081006354989878 -0.100709067945280
    1  (  5)  0.015106432068076 -0.115430718880751 -0.094613417260511  0.153153896682510  0.130891773654437  0.255513104617105  0.100481979342603 -0.182641502384039 -0.046231419137374
    2  (  6)  0.045469725116844 -0.216512507684084 -0.240553163844151  0.059703803473819 -0.128799103778847  0.466867168048645  0.230376363698085 -0.268754231533815 -0.029632489718661

                         9                 10                 11                 12                 13     
                      (  9)              ( 10)              ( 11)              ( 12)              ( 13)    

    0  (  4) -0.031283386269007  0.083595055179233 -0.003915100351561  0.081115225653286  0.074158142938438
    1  (  5)  0.011556443169135 -0.036659881745781  0.006532048558871  0.596174583603508 -0.114916319653540
    2  (  6) -0.066233849453724  0.593708066141070  0.047160183567134 -0.205443006234017 -0.123500019606919

	DPD File2: P_YBAR_MI
	DPD Parameters:
	------------------
	pnum = 0   qnum = 0   irrep = 1 
	Irreps = 2

	   Row and column dimensions for DPD Block:
	   ----------------------------------------
	   Irrep: 0 row =     4	col =     3
	   Irrep: 1 row =     3	col =     4

	File 101 DPD File2: P_YBAR_MI
	Matrix for Irrep 0
	----------------------------------------

                         0                  1                  2     
                      (  4)              (  5)              (  6)    

    0  (  0) -0.278545233415530  0.059599409615732  0.026034432106375
    1  (  1)  0.187007295905470 -0.038238309701257 -0.175982197292767
    2  (  2) -0.431926204916829  0.006084496586666 -0.049694339002754
    3  (  3)  0.039723645794201 -0.196249784920444  0.036043663433459

	File 101 DPD File2: P_YBAR_MI
	Matrix for Irrep 1
	----------------------------------------

                         0                  1                  2                  3     
                      (  0)              (  1)              (  2)              (  3)    

    0  (  4)  0.275546881197932 -0.180389519378317  0.425074243400924 -0.037767422186350
    1  (  5) -0.058081529209830  0.037390441931729 -0.000516662884118  0.195055591570635
    2  (  6) -0.026038612826744  0.173019988726883  0.056080139617911 -0.032715759186560

	DPD File2: P_YBAR_AE
	DPD Parameters:
	------------------
	pnum = 1   qnum = 1   irrep = 1 
	Irreps = 2

	   Row and column dimensions for DPD Block:
	   ----------------------------------------
	   Irrep: 0 row =    14	col =    15
	   Irrep: 1 row =    15	col =    14

	File 101 DPD File2: P_YBAR_AE
	Matrix for Irrep 0
	----------------------------------------

                         0                  1                  2                  3                  4                  5                  6                  7                  8     
                      ( 14)              ( 15)              ( 16)              ( 17)              ( 18)              ( 19)              ( 20)              ( 21)              ( 22)    

    0  (  0) -0.062756867817297 -0.201112023907446 -0.056048025131715  0.046055783450926  0.033806686060762 -0.171722205176695  0.081098506544458 -0.087289620763258  0.042152324091961
    1  (  1)  0.113018477232488 -0.112319744349513 -0.016834583533921 -0.057284464999085 -0.226208700821363 -0.112272688334417  0.062097026682019 -0.556436717149114 -0.098351092785228
    2  (  2)  0.050464428261919 -0.043116595966000 -0.019513144045664 -0.037294003656203 -0.049535289314410  0.026512882856009  0.020955734915841 -0.396348457994657 -0.049143039709126
    3  (  3)  0.026907740943173 -0.173985640449646 -0.354309597307579 -0.088737881833013  0.026690278443481  0.192249138616519 -0.023099922234093 -0.151104956103080 -0.187993798800110
    4  (  4)  0.028814397262738  0.124011423960611  0.200563657745864  0.022231046170139 -0.001789869716556 -0.223408416821475  0.102318476102237 -0.153384891973446  0.236674672698061
    5  (  5) -0.088145317682978  0.132491290238854 -0.182899281954052  0.186746219907929  0.187197714495176  0.005898923884498  0.002120811015656 -0.021990162397056  0.123551537605536
    6  (  6) -0.024460586881498  0.068797047909759 -0.142150384104535  0.131743429120178  0.105639058982537  0.045294852609385 -0.029270704887015  0.020804211601159  0.117878860256254
    7  (  7) -0.033776769859701  0.354245094845972  0.243166450499757 -0.029612149638602 -0.008896656564269 -0.116804879825504 -0.018695560701790  0.326627365972202 -0.206018976643332
    8  (  8)  0.143077917661487 -0.151560533054490 -0.301409236473389 -0.100740265108897 -0.039290343645488  0.041763953575394 -0.058170430215780  0.076845206100452  0.024633152032860
    9  (  9) -0.347018728951025  1.079771981804557  0.078138529282464  0.501451378510505  0.195061660317550 -0.758451032278065  0.096995118436252 -0.075303195155611 -0.028459788963157
   10  ( 10) -0.223810118885824 -0.056979536028989  0.716810245770532 -0.128868097994349  0.539754687175803  0.113296255679437 -0.098974782607496  0.009049828893309 -0.202384864538250
   11  ( 11) -0.022769270154477  0.034674358156828  0.014405983056596  0.017571848532967  0.048691998407531 -0.015583395228223  0.114409081561630 -0.021951676689174 -0.044426938305339
   12  ( 12) -0.135981286187464 -0.120998241259176  0.262301521327982  0.750392323278277 -0.334209910038890  0.448078191688466  0.024767148532186  0.115571945209708 -0.066264929381116
   13  ( 13)  0.080577472282162 -0.105823730084873 -0.089794541855267 -0.254940117418226 -0.138440117204762  0.236499087990863 -0.038859436706735  0.192105181610312  0.090975801731982

                         9                 10                 11                 12                 13                 14     
                      ( 23)              ( 24)              ( 25)              ( 26)              ( 27)              ( 28)    

    0  (  0) -0.032425074737930 -0.078425462405257 -0.011344832045570  0.197456331002049 -0.134718406025863 -0.096409404413494
    1  (  1)  0.173273250041635  0.433566222378215  0.007405001112899 -0.457114065135928  0.172943454488407 -0.008895375735183
    2  (  2) -0.109774013784441  0.217911727490325  0.003528460413992  0.763520159635318 -0.225537275802117  0.118975501733302
    3  (  3)  0.036378102698420 -0.454361087703980 -0.077915823523940 -0.013309796680696 -0.234332299564134 -0.507177620624500
    4  (  4)  0.092551473116606 -0.475045168698850 -0.084968775693714 -0.026919469339922  0.202750989391175  0.617924078766471
    5  (  5)  0.097554141145429  0.018018586167576  0.079671555600775  0.092305854243185  0.173736284561078  0.411194160500052
    6  (  6)  0.003414072729569  0.093327360188558 -0.085627914021145  0.078229939466915  0.111156480724274  0.178796621382799
    7  (  7) -0.114277067577274 -0.105960426671338 -0.044841696220246 -0.134585263057439 -0.180631730229559 -0.229243957069555
    8  (  8) -0.037886837147022  0.102808395063350  0.069798483920400 -0.254580996722497  0.401920559110064  0.147751839658310
    9  (  9)  0.010988821514225 -0.007410444750660  0.002972535589617  0.025318418426566 -0.448643260566270 -0.804372772080077
   10  ( 10)  0.261244020497494  0.038064665016323 -0.048636140959014 -0.326624772892826 -0.029954423230419 -0.215793554756145
   11  ( 11)  0.048015789596366  0.069114116273897 -0.007572832400964  0.004238339483900  0.020816591473394 -0.043178136132549
   12  ( 12)  0.214695948487578 -0.274288590232604  0.016230298683875 -0.029548384872336 -0.038140072907363 -0.033057792945377
   13  ( 13) -0.275326653840915 -0.061284883995154  0.041285946542463  0.084706584831174  0.090480508761559  0.181791085214834

	File 101 DPD File2: P_YBAR_AE
	Matrix for Irrep 1
	----------------------------------------

                         0                  1                  2                  3                  4                  5                  6                  7                  8     
                      (  0)              (  1)              (  2)              (  3)              (  4)              (  5)              (  6)              (  7)              (  8)    

    0  ( 14)  0.063850422313355 -0.115683680262588 -0.054827490001665 -0.028354117168169 -0.025100127178731  0.096410771095777  0.028664016097217  0.026051889825173 -0.141339706448534
    1  ( 15)  0.201263187433031  0.111831464020197  0.045175609028392  0.180549663650845 -0.130383086147566 -0.135646922045465 -0.070781303898657 -0.348002287778712  0.148260195426479
    2  ( 16)  0.055113649368610  0.018738606654586  0.020705966421020  0.355086450538750 -0.201294850701097  0.180112010383658  0.140523266780582 -0.241544163680772  0.300925921088622
    3  ( 17) -0.045920336133779  0.057784764027644  0.035886357056501  0.088932856294833 -0.024235675752436 -0.187147654830588 -0.131361762793480  0.029658114101546  0.101263553912617
    4  ( 18) -0.035958486319751  0.227134777791688  0.048687972069102 -0.024933262428833  0.002173989672721 -0.187305076269607 -0.105829902417925  0.008056867875506  0.037853803971042
    5  ( 19)  0.171149922579415  0.110039862501994 -0.026813452459140 -0.190061024816887  0.222174491954054 -0.004093825553016 -0.044188302806112  0.116881315421755 -0.043225291916047
    6  ( 20) -0.080019590838700 -0.062262232462848 -0.021096034332220  0.023057305471526 -0.101639862804641 -0.003152213311187  0.029422735136868  0.019240780036951  0.059315335454636
    7  ( 21)  0.083510548402123  0.557993066791473  0.397235243356208  0.151190399349717  0.153637137534004  0.021828958802507 -0.022025876078118 -0.327175118374607 -0.079618949429238
    8  ( 22) -0.042227049954364  0.098944758472646  0.049249083184483  0.187848524484403 -0.236611254443533 -0.124376089369001 -0.118097176171872  0.206089300936335 -0.024158581021498
    9  ( 23)  0.032033977750932 -0.174724865726956  0.107565757409839 -0.033957075679687 -0.093408693176877 -0.094735950835808 -0.001596176802057  0.112245900387886  0.037372397271166
   10  ( 24)  0.077636129797919 -0.430853371998705 -0.215233761055940  0.452386714098273  0.474453371679467 -0.016809820271846 -0.095741323886920  0.105100659091080 -0.104107445539310
   11  ( 25)  0.011149970874610 -0.007035579685386 -0.003127573400518  0.077702883164627  0.084954198370187 -0.079818042644370  0.085248456841504  0.044951104587653 -0.070017705668783
   12  ( 26) -0.193344086617498  0.456776432013422 -0.761441366858404  0.011910497712878  0.026326742647963 -0.092364226349286 -0.078937949371178  0.136041391718326  0.256815257193465
   13  ( 27)  0.133610614090005 -0.173243160128294  0.225605563113523  0.236498022568823 -0.204477528431671 -0.174386164144365 -0.111604362943586  0.182311312483583 -0.403964555885563
   14  ( 28)  0.098101278195306  0.007008756260166 -0.117389775367317  0.511914224685440 -0.622957281459333 -0.412506446069418 -0.179820830724467  0.234600868408507 -0.150158824761841

                         9                 10                 11                 12                 13     
                      (  9)              ( 10)              ( 11)              ( 12)              ( 13)    

    0  ( 14)  0.343234558725567  0.228637063726269  0.023307266959502  0.140382240172792 -0.083235444793760
    1  ( 15) -1.074711095873744  0.056336734854343 -0.034809000083236  0.121348785991751  0.106814989655091
    2  ( 16) -0.078219304152202 -0.719658957943986 -0.014720519366158 -0.261816502529916  0.090881991750144
    3  ( 17) -0.502805356071942  0.131166561688672 -0.017463933389579 -0.755157521149267  0.255568620797102
    4  ( 18) -0.195634688856887 -0.541360385537898 -0.048854453075291  0.337587696841954  0.138455603989787
    5  ( 19)  0.760143596830987 -0.110879995008927  0.015821843299894 -0.447903356003643 -0.237096867164475
    6  ( 20) -0.097106884263887  0.097545405975693 -0.114437354251730 -0.024000531999102  0.039042927829059
    7  ( 21)  0.075531866838301 -0.009858499302833  0.021730854579213 -0.114681897686178 -0.191988442177111
    8  ( 22)  0.027711318590147  0.201621760195186  0.044350251642364  0.065874285776240 -0.090522977876112
    9  ( 23) -0.011879012685435 -0.258606547469066 -0.047776074363499 -0.213401932184194  0.274704590606944
   10  ( 24)  0.006858605937754 -0.038088449389244 -0.069395356141264  0.275242327171399  0.061260041265231
   11  ( 25) -0.002890089589219  0.048355005791387  0.007521454792553 -0.016094295989108 -0.041236148462184
   12  ( 26) -0.024624287461246  0.326411349050862 -0.004226520020176  0.029493735437593 -0.084692672982552
   13  ( 27)  0.450726956342698  0.030201266401628 -0.020823649440091  0.038233714612970 -0.090500946858406
   14  ( 28)  0.809945076459086  0.216752990291181  0.043269372622044  0.033145255679139 -0.181828971805248

	DPD File2: P_YBAR_IA
	DPD Parameters:
	------------------
	pnum = 0   qnum = 1   irrep = 1 
	Irreps = 2

	   Row and column dimensions for DPD Block:
	   ----------------------------------------
	   Irrep: 0 row =     4	col =    15
	   Irrep: 1 row =     3	col =    14

	File 101 DPD File2: P_YBAR_IA
	Matrix for Irrep 0
	----------------------------------------

                         0                  1                  2                  3                  4                  5                  6                  7                  8     
                      ( 14)              ( 15)              ( 16)              ( 17)              ( 18)              ( 19)              ( 20)              ( 21)              ( 22)    

    0  (  0) -0.063013364696514  0.044010513010140 -0.033832526224211 -0.162024471696236 -0.051333545713143  0.246461238669107 -0.063609486603270  0.159478583547076 -0.006207989114076
    1  (  1) -0.226546037179395  0.291390639777102  0.048328229754705 -0.000396116910678  0.216137862922779  0.115706811352044 -0.113227048986677  0.363481206263983 -0.049424206162689
    2  (  2)  0.353995982753623 -0.570067383955282  0.052742449525010  0.144888216829452  0.158139021131471 -0.195548321941560  0.035681653601236  0.044365181477906  0.094047723024953
[...]
    7  ( 21) -0.086746307137042  0.297294170806809 -0.437363838809426  0.070300496686555  0.166591994782662  0.177217714676487  0.482838971708778  0.000010492293158 -0.098273184847402
    8  ( 22)  0.034845258926466 -0.000856544015064  0.174085542944908 -0.374309528502842  0.160749665940872 -0.191624326414407 -0.289454904423216  0.097021267550271  0.000014930403133
    9  ( 23)  0.146129839058632 -0.053485685235498 -0.324250294825684 -0.062889229683982 -0.055229748354918 -0.064112736518466 -0.152978751390774 -0.139451617186818  0.103725991413656
   10  ( 24) -0.228960109301500  0.607985902209189  0.190616272123952  0.232984732345903  0.097313246050666 -0.308149392800276  0.021807135674585 -0.163587870408675 -0.316482089556363
   11  ( 25)  0.113565876404484  0.174438492287332 -0.418980586076642 -0.308342622144823  0.075432621027986 -0.339103289288024  0.159452756259661  0.028406298387555  0.098839597099930
   12  ( 26)  0.037444327267505  0.021664072112537 -0.117362801200434  0.051936890369197 -0.180410685976209 -0.010675625355649 -0.081438166282149  0.155940478341532 -0.070485054402575
   13  ( 27) -0.017297506490468  0.067203074043419 -0.031147633780082  0.363738862057262 -0.387270613641776 -0.012184715254227 -0.015942188037276 -0.055059690817367  0.199296990199261
   14  ( 28) -0.034092252177278 -0.073609066570293  0.020468002829466  0.085810470847391 -0.016765555515284  0.112839616184051  0.014153257364854 -0.178002322135800 -0.110338785365484

                         9                 10                 11                 12                 13                 14     
                      ( 23)              ( 24)              ( 25)              ( 26)              ( 27)              ( 28)    

    0  ( 14) -0.147095539872383  0.230933799773564 -0.118289772746167 -0.038253772767447  0.016292190599368  0.035682534667396
    1  ( 15)  0.054490936726031 -0.608135664745124 -0.173899591973767 -0.021325225109119 -0.066354839577592  0.073331369735506
    2  ( 16)  0.323391847959358 -0.191801489512728  0.419969130886923  0.118001273092276  0.032684795751626 -0.020933916119487
    3  ( 17)  0.062697350486204 -0.233350536310715  0.310310140488118 -0.052850324165985 -0.365716314917495 -0.086296396691572
    4  ( 18)  0.056488793458219 -0.097314229222686 -0.076761540605080  0.181114864878134  0.388829148158841  0.017043041264758
    5  ( 19)  0.064628320787155  0.308910350912390  0.338058227371875  0.010220898623446  0.011328162399087 -0.112362127982896
    6  ( 20)  0.155379178216769 -0.021354195203646 -0.159398635050546  0.081833336858156  0.016534888228459 -0.014163359612821
    7  ( 21)  0.140544774640624  0.163930417297846 -0.028664595573870 -0.155618444233808  0.055735865052552  0.178161215640947
    8  ( 22) -0.103335943311615  0.315447824318108 -0.098508893733037  0.070643837593468 -0.199190551733382  0.110186805922078
    9  ( 23) -0.000685205966667  0.100205727138143  0.098177984906045 -0.175404901290359  0.218086466804531 -0.228138153241008
   10  ( 24) -0.099957378010069  0.000114683002834 -0.318552989781446  0.225328174596363  0.500054658950197  0.463890214112047
   11  ( 25) -0.099837194917025  0.317752725239556  0.000013072206941 -0.325584528982697  0.211934933711027  0.064802310197898
   12  ( 26)  0.174911687089768 -0.225249469039723  0.325644361756696 -0.000020583584119  0.212000345487721 -0.097990759740804
   13  ( 27) -0.218595256276638 -0.499626470482149 -0.211748903875054 -0.211985776866883  0.000065067673371  0.140785106097381
   14  ( 28)  0.228612967389234 -0.463548085364345 -0.064895093957785  0.097943745399791 -0.140883877569212  0.000043885507604

	DPD File2: L*_ZBAR_IA
	DPD Parameters:
	------------------
	pnum = 0   qnum = 1   irrep = 0 
	Irreps = 2

	   Row and column dimensions for DPD Block:
	   ----------------------------------------
	   Irrep: 0 row =     4	col =    14
	   Irrep: 1 row =     3	col =    15

	File 101 DPD File2: L*_ZBAR_IA
	Matrix for Irrep 0
	----------------------------------------

                         0                  1                  2                  3                  4                  5                  6                  7                  8     
                      (  0)              (  1)              (  2)              (  3)              (  4)              (  5)              (  6)              (  7)              (  8)    

    0  (  0) -0.019700182677109  0.054538984090237 -0.000657293183073 -0.126059310809830 -0.202210998435536  0.093434338948922 -0.024491292826910 -0.039730679308164  0.082949626694243
    1  (  1) -0.060570767175444  0.116914550591559  0.021887147512717  0.031244847376016 -0.072525220228198  0.201021150446193 -0.281719713830578 -0.109054645892929  0.074327440399931
    2  (  2) -0.019917912309235  0.073498936617270  0.021015841735422  0.144973687437576  0.148661911932313  0.032805680200546 -0.073267109264708 -0.114043301611785  0.006398273119572
    3  (  3)  0.203013924377868  0.061956730055068 -0.012687970996334 -0.097374198936088  0.112619147770757 -0.293844050008894  0.262428514093194 -0.382217125669632  0.093448479811708

                         9                 10                 11                 12                 13     
                      (  9)              ( 10)              ( 11)              ( 12)              ( 13)    

    0  (  0)  0.009866900732451 -0.025414444169080  0.042903095265214  0.089054808289041 -0.047172870515859
    1  (  1)  0.029479300283787  0.071852668133049  0.250209813738974 -0.142668644531385  0.184582935130079
    2  (  2)  0.082839864480014 -0.055172054044896  0.094169081580928  0.401277867082131  0.092346870950097
    3  (  3)  0.429785932962393  0.170247315400438 -0.282336698266602 -0.039589385431130  0.207542683133729

	File 101 DPD File2: L*_ZBAR_IA
	Matrix for Irrep 1
	----------------------------------------

                         0                  1                  2                  3                  4                  5                  6                  7                  8     
                      ( 14)              ( 15)              ( 16)              ( 17)              ( 18)              ( 19)              ( 20)              ( 21)              ( 22)    

    0  (  4) -0.009866584979615 -0.069659389537491  0.056437231681763  0.210909857783049 -0.193232853181170  0.044263163299008 -0.177086741570328 -0.011251791029684 -0.005974944716268
    1  (  5)  0.063966745715490 -0.332083812922557  0.023959233352896 -0.077592998716556 -0.049685567261474 -0.057922845574600 -0.292828526996057 -0.156611147799580  0.308189152931944
    2  (  6) -0.093646243694873  0.043886805978712  0.210333087134862 -0.092497904992983 -0.147507586034141 -0.211245402574096 -0.209822842363991 -0.120370292677788 -0.308437245541850

                         9                 10                 11                 12                 13                 14     
                      ( 23)              ( 24)              ( 25)              ( 26)              ( 27)              ( 28)    

    0  (  4)  0.068407482810993  0.091070726633550  0.065843093849228  0.010412482581381 -0.030047987986095  0.002926817734499
    1  (  5)  0.052950259935732 -0.069489349844531  0.341748563636028 -0.056521413026742 -0.185361514981393 -0.106113084848249
    2  (  6)  0.072195900884652 -0.125482826256955  0.118114475628592  0.149158088490872  0.308475854808773 -0.046262836261975

	Computing Mu_X-Perturbed Wave Function (0.128 E_h).
	Iter   Pseudopolarizability       RMS 
	----   --------------------   -----------
	   0         4.540697431193
	   1         5.552916117478    3.480e-01
	   2         6.604958020371    2.284e-01
	   3         6.775215300811    7.934e-02
	   4         6.834035245668    4.394e-02
	   5         6.845160672783    1.738e-02
	   6         6.850503279364    1.025e-02
	   7         6.850632769023    5.347e-03
	   8         6.850566640390    2.859e-03
	   9         6.850241817246    1.566e-03
	  10         6.850405195016    6.971e-04
	  11         6.850478753078    1.698e-04
	  12         6.850543404312    7.065e-05
	  13         6.850571882241    3.674e-05
	  14         6.850594686286    1.964e-05
	  15         6.850605491784    7.311e-06
	  16         6.850609755845    2.877e-06
	  17         6.850610013933    7.266e-07
	  18         6.850609678966    3.402e-07
	  19         6.850609542810    1.219e-07
	-----------------------------------------
	Converged Mu_X-Perturbed Wfn to 5.325e-08

	Computing P*_X-Perturbed Wave Function (0.128 E_h).
	Iter   Pseudopolarizability       RMS 
	----   --------------------   -----------
	   0         8.792316925792
	   1         9.820637514567    2.598e-01
	   2        10.431156591209    1.503e-01
	   3        10.543304342659    7.502e-02
	   4        10.577122754481    4.078e-02
	   5        10.586800644294    1.756e-02
	   6        10.592735755015    1.038e-02
	   7        10.592669873170    5.140e-03
	   8        10.593116620007    2.679e-03
	   9        10.593004677210    1.168e-03
	  10        10.593228313196    5.509e-04
	  11        10.593286571021    1.426e-04
	  12        10.593309878924    4.629e-05
	  13        10.593326400264    2.390e-05
	  14        10.593334201958    1.228e-05
	  15        10.593338537922    5.060e-06
	  16        10.593340408570    2.637e-06
	  17        10.593340554247    1.139e-06
	  18        10.593340628164    5.782e-07
	  19        10.593340733388    2.217e-07
	  20        10.593340821478    1.062e-07
	-----------------------------------------
	Converged P*_X-Perturbed Wfn to 5.027e-08

	Computing L*_X-Perturbed Wave Function (-0.128 E_h).
	Iter   Pseudopolarizability       RMS 
	----   --------------------   -----------
	   0         4.308774510044
	   1         5.177251147516    2.385e-01
	   2         5.788144734198    1.206e-01
	   3         5.817401245271    2.506e-02
	   4         5.822428669112    1.120e-02
	   5         5.823746001128    2.243e-03
	   6         5.823954312245    1.112e-03
	   7         5.823956740112    3.004e-04
	   8         5.823962111139    9.653e-05
	   9         5.823955533594    3.317e-05
	  10         5.823958206449    9.554e-06
	  11         5.823960101372    2.275e-06
	  12         5.823961215410    6.655e-07
	  13         5.823961727557    2.438e-07
	-----------------------------------------
	Converged L*_X-Perturbed Wfn to 8.940e-08

	Computing Mu_Y-Perturbed Wave Function (0.128 E_h).
	Iter   Pseudopolarizability       RMS 
	----   --------------------   -----------
	   0        10.602235857656
	   1        13.271677057014    5.821e-01
	   2        16.135822785318    3.780e-01
	   3        16.959451373770    1.255e-01
	   4        17.038031086023    5.281e-02
	   5        17.073133975370    2.081e-02
	   6        17.076161098532    1.277e-02
	   7        17.073021378674    6.659e-03
	   8        17.077922418366    3.883e-03
	   9        17.076962153451    1.776e-03
	  10        17.077205376846    9.815e-04
	  11        17.077267411913    3.595e-04
	  12        17.077514625867    1.084e-04
	  13        17.077629152399    3.194e-05
	  14        17.077680905589    1.733e-05
	  15        17.077702717659    9.195e-06
	  16        17.077704067073    4.270e-06
	  17        17.077698484866    1.559e-06
	  18        17.077697685414    6.697e-07
	  19        17.077697400523    2.714e-07
	-----------------------------------------
	Converged Mu_Y-Perturbed Wfn to 9.713e-08

	Computing P*_Y-Perturbed Wave Function (0.128 E_h).
	Iter   Pseudopolarizability       RMS 
	----   --------------------   -----------
	   0         9.251457726110
	   1        10.589647093578    3.208e-01
	   2        11.460703461573    1.854e-01
	   3        11.756069852001    6.855e-02
	   4        11.765813776050    2.537e-02
	   5        11.772798626300    8.227e-03
	   6        11.773011783180    4.281e-03
	   7        11.772860554008    1.485e-03
	   8        11.773139526655    8.964e-04
	   9        11.772853818032    5.154e-04
	  10        11.773003931345    2.965e-04
	  11        11.772980868550    1.692e-04
	  12        11.773040256211    6.561e-05
	  13        11.773041808156    2.246e-05
	  14        11.773048251773    7.645e-06
	  15        11.773049474181    3.360e-06
	  16        11.773050583583    1.576e-06
	  17        11.773050694909    7.130e-07
	  18        11.773050459064    3.152e-07
	  19        11.773050279192    1.475e-07
	-----------------------------------------
	Converged P*_Y-Perturbed Wfn to 6.612e-08

	Computing L*_Y-Perturbed Wave Function (-0.128 E_h).
	Iter   Pseudopolarizability       RMS 
	----   --------------------   -----------
	   0         0.244930554509
	   1         0.311636624039    6.760e-02
	   2         0.361199110032    3.539e-02
	   3         0.362499590815    6.680e-03
	   4         0.362993605803    2.873e-03
	   5         0.363033480938    3.354e-04
	   6         0.363025221809    1.308e-04
	   7         0.363026115518    3.393e-05
	   8         0.363025851986    1.573e-05
	   9         0.363025808831    3.876e-06
	  10         0.363025880342    1.247e-06
	  11         0.363025925513    2.950e-07
	  12         0.363025946102    1.072e-07
	-----------------------------------------
	Converged L*_Y-Perturbed Wfn to 1.612e-08

	Computing Mu_Z-Perturbed Wave Function (0.128 E_h).
	Iter   Pseudopolarizability       RMS 
	----   --------------------   -----------
	   0         7.136885453445
	   1         8.827959964632    4.504e-01
	   2        10.556417242071    2.704e-01
	   3        10.782604403022    7.855e-02
	   4        10.823407882015    3.852e-02
	   5        10.834692997361    1.311e-02
	   6        10.837906126725    7.418e-03
	   7        10.837673587110    2.897e-03
	   8        10.837862221434    1.321e-03
	   9        10.837807614417    4.095e-04
	  10        10.837877551051    1.842e-04
	  11        10.837874871306    1.127e-04
	  12        10.837880350125    6.643e-05
	  13        10.837882578520    3.884e-05
	  14        10.837896108461    1.776e-05
	  15        10.837905201770    6.583e-06
	  16        10.837910723726    3.571e-06
	  17        10.837912086926    1.677e-06
	  18        10.837912427624    9.968e-07
	  19        10.837912585503    4.166e-07
	  20        10.837912731788    1.603e-07
	-----------------------------------------
	Converged Mu_Z-Perturbed Wfn to 7.150e-08

	Computing P*_Z-Perturbed Wave Function (0.128 E_h).
	Iter   Pseudopolarizability       RMS 
	----   --------------------   -----------
	   0         9.549537144870
	   1        10.712689725897    3.014e-01
	   2        11.520133226657    1.604e-01
	   3        11.651520207706    5.896e-02
	   4        11.660315652789    2.770e-02
	   5        11.665606003908    9.842e-03
	   6        11.668007355174    5.866e-03
	   7        11.667965714600    2.584e-03
	   8        11.668033293549    1.362e-03
	   9        11.667930506092    5.861e-04
	  10        11.668049592418    3.075e-04
	  11        11.668073366522    1.780e-04
	  12        11.668095101153    6.875e-05
	  13        11.668098461865    3.421e-05
	  14        11.668101480332    1.424e-05
	  15        11.668107291995    5.139e-06
	  16        11.668110114391    2.399e-06
	  17        11.668111124175    1.194e-06
	  18        11.668111340458    5.671e-07
	  19        11.668111245307    1.432e-07
	-----------------------------------------
	Converged P*_Z-Perturbed Wfn to 6.024e-08

	Computing L*_Z-Perturbed Wave Function (-0.128 E_h).
	Iter   Pseudopolarizability       RMS 
	----   --------------------   -----------
	   0         3.872510404753
	   1         4.591669370067    2.120e-01
	   2         5.085547488762    1.160e-01
	   3         5.121987048699    2.992e-02
	   4         5.131210468924    1.294e-02
	   5         5.131618039119    2.045e-03
	   6         5.131761970312    9.597e-04
	   7         5.131734102928    2.100e-04
	   8         5.131723837644    5.883e-05
	   9         5.131718337669    1.520e-05
	  10         5.131718484323    4.160e-06
	  11         5.131719052295    1.198e-06
	  12         5.131719331290    4.377e-07
	  13         5.131719470515    1.751e-07
	-----------------------------------------
	Converged L*_Z-Perturbed Wfn to 6.824e-08

	Computing 1/2 <<Mu;L*>>_(0.128) tensor.
	Computing 1/2 <<P*;L*>>_(0.128) tensor.
	Computing <<P;Mu>>_(0.128) tensor.

            CC2 Optical Rotation Tensor (Length Gauge):
  -------------------------------------------------------------------------
   Evaluated at omega = 0.128347 E_h (355.00 nm, 3.493 eV, 28169.01 cm-1)
  -------------------------------------------------------------------------

                   0                     1                     2        

    0      0.279315258737972    -0.123252237132550     0.000000000000000
    1     -0.488104243387056    -0.028164898887981     0.000000000000000
    2      0.000000000000000     0.000000000000000    -0.221999670108362

   Specific rotation using length-gauge electric-dipole Rosenfeld tensor.
	[alpha]_(0.128) = -237.12775 deg/[dm (g/cm^3)]

          CC2 Optical Rotation Tensor (Velocity Gauge):
  -------------------------------------------------------------------------
   Evaluated at omega = 0.128347 E_h (355.00 nm, 3.493 eV, 28169.01 cm-1)
  -------------------------------------------------------------------------

                   0                     1                     2        

    0      0.399325681803787    -0.379486458787803     0.000000000000000
    1     -0.120585417251772    -0.008851315788493     0.000000000000000
    2      0.000000000000000     0.000000000000000    -0.397645877164831

   Specific rotation using velocity-gauge electric-dipole Rosenfeld tensor.
	[alpha]_(0.128) =  454.52410 deg/[dm (g/cm^3)]

        CC2 Optical Rotation Tensor (Modified Velocity Gauge):
  -------------------------------------------------------------------------
   Evaluated at omega = 0.128347 E_h (355.00 nm, 3.493 eV, 28169.01 cm-1)
  -------------------------------------------------------------------------

                   0                     1                     2        

    0      0.037966613590714    -0.035523395031054     0.000000000000000
    1     -0.064884215634922    -0.002737367772863     0.000000000000000
    2      0.000000000000000     0.000000000000000    -0.023784640474743

   Specific rotation using modified velocity-gauge Rosenfeld tensor.
	[alpha]_(0.128) = -725.34907 deg/[dm (g/cm^3)]

   Origin-dependence vector for length-gauge rotation deg/[dm (g/cm^3)]/bohr.
     Delta_x =   0.00   Delta_y =   0.00   Delta_z = -73.01

   ------------------------------------------
       CC2 Length-Gauge Optical Rotation
   ------------------------------------------
       Omega           alpha                        Delta
    E_h      nm   deg/[dm (g/cm^3)]        deg/[dm (g/cm^3)]/bohr
   -----   ------ ------------------  ----------------------------------
                                          x           y           z      
   0.077   589.00       -83.11386       0.00000     0.00000   -19.66940
   0.128   355.00      -237.12775       0.00000     0.00000   -73.00565

   ------------------------------------------------------
            CC2 Velocity-Gauge Optical Rotation
   ------------------------------------------------------
       Omega           alpha (deg/[dm (g/cm^3)]

    E_h      nm   Velocity-Gauge  Modified Velocity-Gauge
   -----   ------ --------------  -----------------------
   0.077   589.00    982.51574          -197.35742
   0.128   355.00    454.52410          -725.34907

*** tstop() called on psinet at Mon May 15 15:34:51 2017
Module time:
	user time   =       3.96 seconds =       0.07 minutes
	system time =       4.29 seconds =       0.07 minutes
	total time  =          9 seconds =       0.15 minutes
Total time:
	user time   =       4.99 seconds =       0.08 minutes
	system time =       4.76 seconds =       0.08 minutes
	total time  =         11 seconds =       0.18 minutes

*** Psi4 exiting successfully. Buy a developer a beer!
