    -----------------------------------------------------------------------
          Psi4: An Open-Source Ab Initio Electronic Structure Package
                              Psi4 0.3.459 Driver

                          Git: Rev {master} 07ce33a dirty

    J. M. Turney, A. C. Simmonett, R. M. Parrish, E. G. Hohenstein,
    F. A. Evangelista, J. T. Fermann, B. J. Mintz, L. A. Burns, J. J. Wilke,
    M. L. Abrams, N. J. Russ, M. L. Leininger, C. L. Janssen, E. T. Seidl,
    W. D. Allen, H. F. Schaefer, R. A. King, E. F. Valeev, C. D. Sherrill,
    and T. D. Crawford, WIREs Comput. Mol. Sci. 2, 556-565 (2012)
    (doi: 10.1002/wcms.93)

                         Additional Contributions by
    A. E. DePrince, M. Saitow, U. Bozkaya, A. Yu. Sokolov
    -----------------------------------------------------------------------


    Psi4 started on: Mon Jan 25 16:20:52 2016

    Process ID:  20810
    PSI4DATADIR: /home/rking/psi4public/lib
    Memory level set to 256.000 MB

  ==> Input File <==

--------------------------------------------------------------------------
#! B3LYP cc-pVDZ geometry optimzation of phenylacetylene, starting from
#! not quite linear structure
b3lyp_E  = -308.4136960

molecule {
0 1
C          0.50424        2.62143       -1.86897
C         -0.79405        2.10443       -1.80601
C         -1.78491        2.59819       -2.66154
C         -1.47738        3.60745       -3.57782
C         -0.17996        4.12418       -3.64086
C          0.81143        3.63137       -2.78697
H          1.27012        2.23852       -1.20693
H         -2.24344        3.98980       -4.23978
H          0.05756        4.90505       -4.35040
H         -1.03189        1.32372       -1.09717
H         -2.78881        2.19838       -2.61341
C          2.14399        4.16411       -2.85667
C          3.26501        4.60083       -2.90366
H          4.24594        4.99166       -2.95361
}

memory 100.0 Gb

set globals {
  guess sad
  basis cc-pVDZ
}

energy('scf')
thisenergy = optimize('B3LYP')

compare_values(b3lyp_E, thisenergy, 6, "B3LYP energy")                                #TEST

--------------------------------------------------------------------------

  Memory set to 100.000 GiB by Python script.

*** tstart() called on gimli.chem.bethel.edu
*** at Mon Jan 25 16:20:53 2016


         ---------------------------------------------------------
                                   SCF
            by Justin Turney, Rob Parrish, and Andy Simmonett
                              RHF Reference
                        8 Threads, 100000 MiB Core
         ---------------------------------------------------------

  ==> Geometry <==

    Molecular point group: c1
    Full point group: C1

    Geometry (in Angstrom), charge = 0, multiplicity = 1:

       Center              X                  Y                   Z               Mass       
    ------------   -----------------  -----------------  -----------------  -----------------
           C          0.216469698096    -0.800766829634     0.892701070708    12.000000000000
           C         -1.081820301904    -1.317766829634     0.955661070708    12.000000000000
           C         -2.072680301904    -0.824006829634     0.100131070708    12.000000000000
           C         -1.765150301904     0.185253170366    -0.816148929292    12.000000000000
           C         -0.467730301904     0.701983170366    -0.879188929292    12.000000000000
           C          0.523659698096     0.209173170366    -0.025298929292    12.000000000000
           H          0.982349698096    -1.183676829634     1.554741070708     1.007825032070
           H         -2.531210301904     0.567603170366    -1.478108929292     1.007825032070
           H         -0.230210301904     1.482853170366    -1.588728929292     1.007825032070
           H         -1.319660301904    -2.098476829634     1.664501070708     1.007825032070
           H         -3.076580301904    -1.223816829634     0.148261070708     1.007825032070
           C          1.856219698096     0.741913170366    -0.094998929292    12.000000000000
           C          2.977239698096     1.178633170366    -0.141988929292    12.000000000000
           H          3.958169698096     1.569463170366    -0.191938929292     1.007825032070

  Running in c1 symmetry.

  Rotational constants: A =      0.18943  B =      0.05105  C =      0.04021 [cm^-1]
  Rotational constants: A =   5679.05425  B =   1530.30687  C =   1205.47409 [MHz]
  Nuclear repulsion =  298.726499936978939

  Charge       = 0
  Multiplicity = 1
  Electrons    = 54
  Nalpha       = 27
  Nbeta        = 27

  ==> Algorithm <==

  SCF Algorithm Type is DF.
  DIIS enabled.
  MOM disabled.
  Fractional occupation disabled.
  Guess Type is SAD.
  Energy threshold   = 1.00e-06
  Density threshold  = 1.00e-06
  Integral threshold = 0.00e+00

  ==> Primary Basis <==

  Basis Set: CC-PVDZ
    Number of shells: 66
    Number of basis function: 142
    Number of Cartesian functions: 150
    Spherical Harmonics?: true
    Max angular momentum: 2

  ==> Pre-Iterations <==

   -------------------------------------------------------
    Irrep   Nso     Nmo     Nalpha   Nbeta   Ndocc  Nsocc
   -------------------------------------------------------
     A        142     142       0       0       0       0
   -------------------------------------------------------
    Total     142     142      27      27      27       0
   -------------------------------------------------------

  ==> Integral Setup <==

  ==> DFJK: Density-Fitted J/K Matrices <==

    J tasked:                  Yes
    K tasked:                  Yes
    wK tasked:                  No
    OpenMP threads:              8
    Integrals threads:           8
    Memory (MB):             71525
    Algorithm:                Core
    Integral Cache:           NONE
    Schwarz Cutoff:          1E-12
    Fitting Condition:       1E-12

   => Auxiliary Basis Set <=

  Basis Set: 
    Number of shells: 246
    Number of basis function: 698
    Number of Cartesian functions: 798
    Spherical Harmonics?: true
    Max angular momentum: 3

  Minimum eigenvalue in the overlap matrix is 1.8610369896E-04.
  Using Symmetric Orthogonalization.
  SCF Guess: Superposition of Atomic Densities via on-the-fly atomic UHF.

  ==> Iterations <==

                           Total Energy        Delta E     RMS |[F,P]|

   @DF-RHF iter   0:  -308.60144336596090   -3.08601e+02   3.43168e-02 
   @DF-RHF iter   1:  -306.17180566655418    2.42964e+00   3.52473e-03 
   @DF-RHF iter   2:  -306.37189242247689   -2.00087e-01   1.20823e-03 DIIS
   @DF-RHF iter   3:  -306.39485917158606   -2.29667e-02   6.28338e-04 DIIS
   @DF-RHF iter   4:  -306.40025271850004   -5.39355e-03   2.23572e-04 DIIS
   @DF-RHF iter   5:  -306.40096739838043   -7.14680e-04   6.52312e-05 DIIS
   @DF-RHF iter   6:  -306.40108412069014   -1.16722e-04   2.03458e-05 DIIS
   @DF-RHF iter   7:  -306.40109497897527   -1.08583e-05   6.30512e-06 DIIS
   @DF-RHF iter   8:  -306.40109608733746   -1.10836e-06   1.82110e-06 DIIS
   @DF-RHF iter   9:  -306.40109626411754   -1.76780e-07   9.29836e-07 DIIS

  ==> Post-Iterations <==

    Orbital Energies (a.u.)
    -----------------------

    Doubly Occupied:                                                      

       1A    -11.267989     2A    -11.251570     3A    -11.251205  
       4A    -11.249963     5A    -11.248002     6A    -11.247603  
       7A    -11.243187     8A    -11.234706     9A     -1.166024  
      10A     -1.064599    11A     -1.023639    12A     -0.996829  
      13A     -0.851251    14A     -0.836783    15A     -0.745455  
      16A     -0.701692    17A     -0.663917    18A     -0.634314  
      19A     -0.608751    20A     -0.594610    21A     -0.522024  
      22A     -0.514217    23A     -0.506130    24A     -0.425809  
      25A     -0.394956    26A     -0.342734    27A     -0.319393  

    Virtual:                                                              

      28A      0.100698    29A      0.127158    30A      0.180114  
      31A      0.204785    32A      0.207998    33A      0.217748  
      34A      0.227256    35A      0.255493    36A      0.259583  
      37A      0.267495    38A      0.364094    39A      0.394585  
      40A      0.441572    41A      0.447745    42A      0.476743  
      43A      0.477622    44A      0.538892    45A      0.579589  
      46A      0.594993    47A      0.654811    48A      0.678916  
      49A      0.688128    50A      0.688692    51A      0.703831  
      52A      0.723571    53A      0.728895    54A      0.731616  
      55A      0.734663    56A      0.737213    57A      0.756728  
      58A      0.812247    59A      0.814930    60A      0.824095  
      61A      0.832247    62A      0.866288    63A      0.871292  
      64A      0.900497    65A      0.914513    66A      0.914790  
      67A      0.934361    68A      0.955633    69A      0.959828  
      70A      1.057648    71A      1.085949    72A      1.096571  
      73A      1.109333    74A      1.120854    75A      1.133494  
      76A      1.169534    77A      1.225088    78A      1.232497  
      79A      1.239347    80A      1.245057    81A      1.246928  
      82A      1.260482    83A      1.305714    84A      1.318646  
      85A      1.326121    86A      1.334588    87A      1.344531  
      88A      1.423093    89A      1.502912    90A      1.516273  
      91A      1.548712    92A      1.571355    93A      1.573288  
      94A      1.664302    95A      1.691967    96A      1.740334  
      97A      1.743533    98A      1.749140    99A      1.763243  
     100A      1.766598   101A      1.845130   102A      1.868629  
     103A      1.896183   104A      1.906084   105A      1.906400  
     106A      1.921829   107A      1.941521   108A      1.956179  
     109A      1.980905   110A      2.010320   111A      2.068474  
     112A      2.070788   113A      2.098722   114A      2.112086  
     115A      2.138070   116A      2.145983   117A      2.165712  
     118A      2.202905   119A      2.223673   120A      2.239144  
     121A      2.260494   122A      2.299065   123A      2.303154  
     124A      2.365436   125A      2.484553   126A      2.501856  
     127A      2.505174   128A      2.527335   129A      2.727590  
     130A      2.757461   131A      2.780263   132A      2.795153  
     133A      2.795785   134A      2.957169   135A      3.007419  
     136A      3.034950   137A      3.040020   138A      3.189587  
     139A      3.229520   140A      3.319189   141A      3.598272  
     142A      3.982394  

    Final Occupation by Irrep:
              A 
    DOCC [    27 ]

  Energy converged.

  @DF-RHF Final Energy:  -306.40109626411754

   => Energetics <=

    Nuclear Repulsion Energy =            298.7264999369789393
    One-Electron Energy =               -1004.4406500045831763
    Two-Electron Energy =                 399.3130538034865253
    DFT Exchange-Correlation Energy =       0.0000000000000000
    Empirical Dispersion Energy =           0.0000000000000000
    PCM Polarization Energy =               0.0000000000000000
    EFP Energy =                            0.0000000000000000
    Total Energy =                       -306.4010962641177116

    Alert: EFP and PCM quantities not currently incorporated into SCF psivars.

Properties will be evaluated at   0.000000,   0.000000,   0.000000 Bohr
  ==> Properties <==


Properties computed using the SCF density matrix

  Nuclear Dipole Moment: (a.u.)
     X:    -2.0785      Y:    -0.8306      Z:     0.1019

  Electronic Dipole Moment: (a.u.)
     X:     1.8016      Y:     0.7195      Z:    -0.0881

  Dipole Moment: (a.u.)
     X:    -0.2769      Y:    -0.1112      Z:     0.0138     Total:     0.2987

  Dipole Moment: (Debye)
     X:    -0.7038      Y:    -0.2826      Z:     0.0350     Total:     0.7592


  Saving occupied orbitals to File 180.

*** tstop() called on gimli.chem.bethel.edu at Mon Jan 25 16:20:55 2016
Module time:
	user time   =       8.51 seconds =       0.14 minutes
	system time =       0.12 seconds =       0.00 minutes
	total time  =          2 seconds =       0.03 minutes
Total time:
	user time   =       8.51 seconds =       0.14 minutes
	system time =       0.12 seconds =       0.00 minutes
	total time  =          2 seconds =       0.03 minutes
gradient() will perform analytic gradient computation.

*** tstart() called on gimli.chem.bethel.edu
*** at Mon Jan 25 16:20:55 2016


         ---------------------------------------------------------
                                   SCF
            by Justin Turney, Rob Parrish, and Andy Simmonett
                              RKS Reference
                        8 Threads, 100000 MiB Core
         ---------------------------------------------------------

  ==> Geometry <==

    Molecular point group: c1
    Full point group: C1

    Geometry (in Angstrom), charge = 0, multiplicity = 1:

       Center              X                  Y                   Z               Mass       
    ------------   -----------------  -----------------  -----------------  -----------------
           C          0.216469698096    -0.800766829634     0.892701070708    12.000000000000
           C         -1.081820301904    -1.317766829634     0.955661070708    12.000000000000
           C         -2.072680301904    -0.824006829634     0.100131070708    12.000000000000
           C         -1.765150301904     0.185253170366    -0.816148929292    12.000000000000
           C         -0.467730301904     0.701983170366    -0.879188929292    12.000000000000
           C          0.523659698096     0.209173170366    -0.025298929292    12.000000000000
           H          0.982349698096    -1.183676829634     1.554741070708     1.007825032070
           H         -2.531210301904     0.567603170366    -1.478108929292     1.007825032070
           H         -0.230210301904     1.482853170366    -1.588728929292     1.007825032070
           H         -1.319660301904    -2.098476829634     1.664501070708     1.007825032070
           H         -3.076580301904    -1.223816829634     0.148261070708     1.007825032070
           C          1.856219698096     0.741913170366    -0.094998929292    12.000000000000
           C          2.977239698096     1.178633170366    -0.141988929292    12.000000000000
           H          3.958169698096     1.569463170366    -0.191938929292     1.007825032070

  Running in c1 symmetry.

  Rotational constants: A =      0.18943  B =      0.05105  C =      0.04021 [cm^-1]
  Rotational constants: A =   5679.05425  B =   1530.30687  C =   1205.47409 [MHz]
  Nuclear repulsion =  298.726499936978939

  Charge       = 0
  Multiplicity = 1
  Electrons    = 54
  Nalpha       = 27
  Nbeta        = 27

  ==> Algorithm <==

  SCF Algorithm Type is DF.
  DIIS enabled.
  MOM disabled.
  Fractional occupation disabled.
  Guess Type is SAD.
  Energy threshold   = 1.00e-08
  Density threshold  = 1.00e-08
  Integral threshold = 0.00e+00

  ==> Primary Basis <==

  Basis Set: CC-PVDZ
    Number of shells: 66
    Number of basis function: 142
    Number of Cartesian functions: 150
    Spherical Harmonics?: true
    Max angular momentum: 2

  ==> DFT Potential <==

   => B3LYP Composite Functional <= 

    B3LYP Hybrid-GGA Exchange-Correlation Functional

    P.J. Stephens et. al., J. Phys. Chem., 98, 11623-11627, 1994

    Points   =           5000
    Deriv    =              1
    GGA      =           TRUE
    Meta     =          FALSE

    X_LRC        =          FALSE
    X_Hybrid     =           TRUE
    X_Alpha      =   2.000000E-01
    X_Omega      =   0.000000E+00
    C_LRC        =          FALSE
    C_Hybrid     =          FALSE
    C_Alpha      =   0.000000E+00
    C_Omega      =   0.000000E+00

   => Exchange Functionals <=

    0.8000    B3_X
    0.2000      HF 

   => Correlation Functionals <=

    0.1900 VWN3RPA_C
    0.8100   LYP_C

   => Molecular Quadrature <=

    Radial Scheme    =       TREUTLER
    Pruning Scheme   =           FLAT
    Nuclear Scheme   =       TREUTLER

    BS radius alpha  =              1
    Pruning alpha    =              1
    Radial Points    =             75
    Spherical Points =            302
    Total Points     =         310297
    Total Blocks     =            274
    Max Points       =           4960
    Max Functions    =            142

  ==> Pre-Iterations <==

   -------------------------------------------------------
    Irrep   Nso     Nmo     Nalpha   Nbeta   Ndocc  Nsocc
   -------------------------------------------------------
     A        142     142       0       0       0       0
   -------------------------------------------------------
    Total     142     142      27      27      27       0
   -------------------------------------------------------

  ==> Integral Setup <==

  ==> DFJK: Density-Fitted J/K Matrices <==

    J tasked:                  Yes
    K tasked:                  Yes
    wK tasked:                  No
    OpenMP threads:              8
    Integrals threads:           8
    Memory (MB):             71525
    Algorithm:                Core
    Integral Cache:           NONE
    Schwarz Cutoff:          1E-12
    Fitting Condition:       1E-12

   => Auxiliary Basis Set <=

  Basis Set: 
    Number of shells: 246
    Number of basis function: 698
    Number of Cartesian functions: 798
    Spherical Harmonics?: true
    Max angular momentum: 3

  Minimum eigenvalue in the overlap matrix is 1.8610369896E-04.
  Using Symmetric Orthogonalization.
  SCF Guess: Superposition of Atomic Densities via on-the-fly atomic UHF.

  ==> Iterations <==

                           Total Energy        Delta E     RMS |[F,P]|

   @DF-RKS iter   0:  -309.13978046604097   -3.09140e+02   3.22127e-02 
   @DF-RKS iter   1:  -308.18414650753141    9.55634e-01   4.26401e-03 
   @DF-RKS iter   2:  -308.15180728352493    3.23392e-02   4.69028e-03 DIIS
   @DF-RKS iter   3:  -308.37530038866720   -2.23493e-01   1.84559e-03 DIIS
   @DF-RKS iter   4:  -308.41151214930875   -3.62118e-02   3.41310e-04 DIIS
   @DF-RKS iter   5:  -308.41253135875746   -1.01921e-03   1.10466e-04 DIIS
   @DF-RKS iter   6:  -308.41264422366191   -1.12865e-04   4.19205e-05 DIIS
   @DF-RKS iter   7:  -308.41266258354619   -1.83599e-05   1.49368e-05 DIIS
   @DF-RKS iter   8:  -308.41266510320918   -2.51966e-06   2.93894e-06 DIIS
   @DF-RKS iter   9:  -308.41266519687639   -9.36672e-08   9.17682e-07 DIIS
   @DF-RKS iter  10:  -308.41266520525085   -8.37446e-09   2.50344e-07 DIIS
   @DF-RKS iter  11:  -308.41266520582667   -5.75824e-10   1.04002e-07 DIIS
   @DF-RKS iter  12:  -308.41266520595116   -1.24487e-10   2.21243e-08 DIIS
   @DF-RKS iter  13:  -308.41266520595741   -6.25278e-12   4.57045e-09 DIIS

  ==> Post-Iterations <==

    Orbital Energies (a.u.)
    -----------------------

    Doubly Occupied:                                                      

       1A    -10.218317     2A    -10.200100     3A    -10.199731  
       4A    -10.198983     5A    -10.198597     6A    -10.198290  
       7A    -10.191669     8A    -10.185078     9A     -0.869670  
      10A     -0.787272    11A     -0.756039    12A     -0.731404  
      13A     -0.628259    14A     -0.616364    15A     -0.553007  
      16A     -0.518032    17A     -0.481473    18A     -0.462987  
      19A     -0.441197    20A     -0.430118    21A     -0.386195  
      22A     -0.363292    23A     -0.357728    24A     -0.312970  
      25A     -0.280407    26A     -0.262277    27A     -0.239622  

    Virtual:                                                              

      28A     -0.035159    29A     -0.015567    30A      0.047983  
      31A      0.058481    32A      0.082422    33A      0.091814  
      34A      0.096265    35A      0.108198    36A      0.140709  
      37A      0.142978    38A      0.167612    39A      0.229946  
      40A      0.272870    41A      0.277075    42A      0.301396  
      43A      0.309882    44A      0.351086    45A      0.388375  
      46A      0.407937    47A      0.445962    48A      0.472169  
      49A      0.476985    50A      0.482591    51A      0.504157  
      52A      0.506702    53A      0.508373    54A      0.511619  
      55A      0.520158    56A      0.523302    57A      0.533598  
      58A      0.583291    59A      0.600495    60A      0.600999  
      61A      0.615279    62A      0.639067    63A      0.666409  
      64A      0.669953    65A      0.682357    66A      0.689623  
      67A      0.698012    68A      0.715243    69A      0.750870  
      70A      0.825106    71A      0.852294    72A      0.866474  
      73A      0.870244    74A      0.897966    75A      0.908536  
      76A      0.957135    77A      0.988237    78A      0.996280  
      79A      1.001707    80A      1.014958    81A      1.015074  
      82A      1.025184    83A      1.062012    84A      1.070214  
      85A      1.084299    86A      1.084746    87A      1.105786  
      88A      1.150503    89A      1.260641    90A      1.283136  
      91A      1.299671    92A      1.333679    93A      1.352188  
      94A      1.403833    95A      1.429873    96A      1.474718  
      97A      1.481451    98A      1.482405    99A      1.504613  
     100A      1.505179   101A      1.567391   102A      1.598099  
     103A      1.606187   104A      1.619821   105A      1.637264  
     106A      1.651136   107A      1.685992   108A      1.700620  
     109A      1.702529   110A      1.739719   111A      1.778266  
     112A      1.780329   113A      1.805656   114A      1.819790  
     115A      1.840279   116A      1.851040   117A      1.857354  
     118A      1.925725   119A      1.934907   120A      1.947825  
     121A      1.976201   122A      2.002002   123A      2.003835  
     124A      2.056573   125A      2.186005   126A      2.196490  
     127A      2.198916   128A      2.214787   129A      2.386484  
     130A      2.421776   131A      2.430335   132A      2.465225  
     133A      2.479903   134A      2.627197   135A      2.677873  
     136A      2.707319   137A      2.716030   138A      2.844344  
     139A      2.872002   140A      2.962534   141A      3.237709  
     142A      3.610608  

    Final Occupation by Irrep:
              A 
    DOCC [    27 ]

  Energy converged.

  @DF-RKS Final Energy:  -308.41266520595741

   => Energetics <=

    Nuclear Repulsion Energy =            298.7264999369789393
    One-Electron Energy =               -1005.6000458783785234
    Two-Electron Energy =                 435.3596387127096250
    DFT Exchange-Correlation Energy =     -36.8987579772674437
    Empirical Dispersion Energy =           0.0000000000000000
    PCM Polarization Energy =               0.0000000000000000
    EFP Energy =                            0.0000000000000000
    Total Energy =                       -308.4126652059574099

    Alert: EFP and PCM quantities not currently incorporated into SCF psivars.

Properties will be evaluated at   0.000000,   0.000000,   0.000000 Bohr
  ==> Properties <==


Properties computed using the SCF density matrix

  Nuclear Dipole Moment: (a.u.)
     X:    -2.0785      Y:    -0.8306      Z:     0.1019

  Electronic Dipole Moment: (a.u.)
     X:     1.8286      Y:     0.7307      Z:    -0.0898

  Dipole Moment: (a.u.)
     X:    -0.2499      Y:    -0.1000      Z:     0.0121     Total:     0.2694

  Dipole Moment: (Debye)
     X:    -0.6351      Y:    -0.2541      Z:     0.0308     Total:     0.6848


  Saving occupied orbitals to File 180.

*** tstop() called on gimli.chem.bethel.edu at Mon Jan 25 16:22:05 2016
Module time:
	user time   =     281.44 seconds =       4.69 minutes
	system time =       2.46 seconds =       0.04 minutes
	total time  =         70 seconds =       1.17 minutes
Total time:
	user time   =     289.97 seconds =       4.83 minutes
	system time =       2.58 seconds =       0.04 minutes
	total time  =         72 seconds =       1.20 minutes

*** tstart() called on gimli.chem.bethel.edu
*** at Mon Jan 25 16:22:05 2016


         ------------------------------------------------------------
                                   SCF GRAD                          
                          Rob Parrish, Justin Turney,                
                       Andy Simmonett, and Alex Sokolov              
         ------------------------------------------------------------

  ==> Geometry <==

    Molecular point group: c1
    Full point group: C1

    Geometry (in Angstrom), charge = 0, multiplicity = 1:

       Center              X                  Y                   Z               Mass       
    ------------   -----------------  -----------------  -----------------  -----------------
           C          0.216469698096    -0.800766829634     0.892701070708    12.000000000000
           C         -1.081820301904    -1.317766829634     0.955661070708    12.000000000000
           C         -2.072680301904    -0.824006829634     0.100131070708    12.000000000000
           C         -1.765150301904     0.185253170366    -0.816148929292    12.000000000000
           C         -0.467730301904     0.701983170366    -0.879188929292    12.000000000000
           C          0.523659698096     0.209173170366    -0.025298929292    12.000000000000
           H          0.982349698096    -1.183676829634     1.554741070708     1.007825032070
           H         -2.531210301904     0.567603170366    -1.478108929292     1.007825032070
           H         -0.230210301904     1.482853170366    -1.588728929292     1.007825032070
           H         -1.319660301904    -2.098476829634     1.664501070708     1.007825032070
           H         -3.076580301904    -1.223816829634     0.148261070708     1.007825032070
           C          1.856219698096     0.741913170366    -0.094998929292    12.000000000000
           C          2.977239698096     1.178633170366    -0.141988929292    12.000000000000
           H          3.958169698096     1.569463170366    -0.191938929292     1.007825032070

  Nuclear repulsion =  298.726499936978939

  ==> Basis Set <==

  Basis Set: CC-PVDZ
    Number of shells: 66
    Number of basis function: 142
    Number of Cartesian functions: 150
    Spherical Harmonics?: true
    Max angular momentum: 2

  ==> DFJKGrad: Density-Fitted SCF Gradients <==

    Gradient:                    1
    J tasked:                  Yes
    K tasked:                  Yes
    wK tasked:                  No
    OpenMP threads:              8
    Integrals threads:           8
    Memory (MB):             71525
    Schwarz Cutoff:          0E+00
    Fitting Condition:       1E-12

   => Auxiliary Basis Set <=

  Basis Set: 
    Number of shells: 246
    Number of basis function: 698
    Number of Cartesian functions: 798
    Spherical Harmonics?: true
    Max angular momentum: 3

  ==> DFT Potential <==

   => B3LYP Composite Functional <= 

    B3LYP Hybrid-GGA Exchange-Correlation Functional

    P.J. Stephens et. al., J. Phys. Chem., 98, 11623-11627, 1994

    Points   =           5000
    Deriv    =              1
    GGA      =           TRUE
    Meta     =          FALSE

    X_LRC        =          FALSE
    X_Hybrid     =           TRUE
    X_Alpha      =   2.000000E-01
    X_Omega      =   0.000000E+00
    C_LRC        =          FALSE
    C_Hybrid     =          FALSE
    C_Alpha      =   0.000000E+00
    C_Omega      =   0.000000E+00

   => Exchange Functionals <=

    0.8000    B3_X
    0.2000      HF 

   => Correlation Functionals <=

    0.1900 VWN3RPA_C
    0.8100   LYP_C

   => Molecular Quadrature <=

    Radial Scheme    =       TREUTLER
    Pruning Scheme   =           FLAT
    Nuclear Scheme   =       TREUTLER

    BS radius alpha  =              1
    Pruning alpha    =              1
    Radial Points    =             75
    Spherical Points =            302
    Total Points     =         310297
    Total Blocks     =            274
    Max Points       =           4960
    Max Functions    =            142


  -Total Gradient:
     Atom            X                  Y                   Z
    ------   -----------------  -----------------  -----------------
       1        0.011155659806     0.006168214942    -0.002268649638
       2       -0.003735689910    -0.007410495988     0.006201222047
       3       -0.005619489332    -0.001449175917    -0.000548202666
       4       -0.006885926070     0.001497622741    -0.003979165932
       5        0.012339916280     0.003565386265     0.000787803309
       6       -0.012583797277    -0.005183668496     0.000869750836
       7       -0.005232287820     0.001304599033    -0.003187722097
       8        0.004702932564    -0.002657887732     0.004370192446
       9       -0.002513184771    -0.004859595250     0.004052949975
      10        0.001245446845     0.005604469835    -0.005265221779
      11        0.007021785482     0.002778102769    -0.000330670943
      12        0.021093358849     0.009216805114    -0.001992542159
      13       -0.009675410311    -0.004189364153     0.000834565748
      14       -0.011303068252    -0.004380885917     0.000455177285


*** tstop() called on gimli.chem.bethel.edu at Mon Jan 25 16:22:17 2016
Module time:
	user time   =      42.76 seconds =       0.71 minutes
	system time =       0.58 seconds =       0.01 minutes
	total time  =         12 seconds =       0.20 minutes
Total time:
	user time   =     332.73 seconds =       5.55 minutes
	system time =       3.16 seconds =       0.05 minutes
	total time  =         84 seconds =       1.40 minutes
CURRENT ENERGY: -308.4126652060

			-----------------------------------------
			 OPTKING 2.0: for geometry optimizations 
			  - R.A. King,  Bethel University        
			-----------------------------------------

	Internal coordinates to be generated automatically.
	Detected frag with atoms:  1 2 3 4 5 6 7 8 9 10 11 12 13 14
	---Fragment 1 Bond Connectivity---
	 1 : 2 6 7
	 2 : 1 3 10
	 3 : 2 4 11
	 4 : 3 5 8
	 5 : 4 6 9
	 6 : 1 5 12
	 7 : 1
	 8 : 4
	 9 : 5
	 10 : 2
	 11 : 3
	 12 : 6 13
	 13 : 12 14
	 14 : 13

trying 1 6 13 14
trying 5 6 13 14
	---Fragment 1 Geometry and Gradient---
	 C           0.4090684455       -1.5132300043        1.6869605422
	 C          -2.0443440956       -2.4902184150        1.8059376995
	 C          -3.9167981316       -1.5571472396        0.1892203010
	 C          -3.3356506540        0.3500777572       -1.5422979600
	 C          -0.8838821747        1.3265559419       -1.6614262954
	 C           0.9895734162        0.3952800063       -0.0478080478
	 H           1.8563718961       -2.2368250379        2.9380348312
	 H          -4.7832942553        1.0726145441       -2.7932210709
	 H          -0.4350344236        2.8021863873       -3.0022625758
	 H          -2.4937965590       -3.9655465042        3.1454511715
	 H          -5.8138941964       -2.3126786448        0.2801728198
	 C           3.5077468719        1.4020127064       -0.1795219593
	 C           5.6261676614        2.2272939031       -0.2683201903
	 H           7.4798567169        2.9658555676       -0.3627120106
	             0.0111556598        0.0061682149       -0.0022686496
	            -0.0037356899       -0.0074104960        0.0062012220
	            -0.0056194893       -0.0014491759       -0.0005482027
	            -0.0068859261        0.0014976227       -0.0039791659
	             0.0123399163        0.0035653863        0.0007878033
	            -0.0125837973       -0.0051836685        0.0008697508
	            -0.0052322878        0.0013045990       -0.0031877221
	             0.0047029326       -0.0026578877        0.0043701924
	            -0.0025131848       -0.0048595952        0.0040529500
	             0.0012454468        0.0056044698       -0.0052652218
	             0.0070217855        0.0027781028       -0.0003306709
	             0.0210933588        0.0092168051       -0.0019925422
	            -0.0096754103       -0.0041893642        0.0008345657
	            -0.0113030683       -0.0043808859        0.0004551773

	Previous optimization step data not found.  Starting new optimization.

	---Fragment 1 Intrafragment Coordinates---
	 - Coordinate -           - BOHR/RAD -       - ANG/DEG -
	 R(1,2)           =         2.643463	       1.398860
	 R(1,6)           =         2.643637	       1.398953
	 R(1,7)           =         2.045352	       1.082354
	 R(2,3)           =         2.643952	       1.399119
	 R(2,10)          =         2.042767	       1.080986
	 R(3,4)           =         2.640719	       1.397408
	 R(3,11)          =         2.044034	       1.081656
	 R(4,5)           =         2.641755	       1.397957
	 R(4,8)           =         2.045126	       1.082234
	 R(5,6)           =         2.642134	       1.398157
	 R(5,9)           =         2.043720	       1.081490
	 R(6,12)          =         2.715153	       1.436797
	 R(12,13)         =         2.275232	       1.204001
	 R(13,14)         =         1.997635	       1.057103
	 B(1,2,3)         =         2.093628	     119.956051
	 B(1,2,10)        =         2.095134	     120.042316
	 B(1,6,5)         =         2.093838	     119.968092
	 B(1,6,12)        =         2.098055	     120.209677
	 B(2,1,6)         =         2.094565	     120.009750
	 B(2,1,7)         =         2.092609	     119.897679
	 B(2,3,4)         =         2.094364	     119.998238
	 B(2,3,11)        =         2.093979	     119.976166
	 B(3,2,10)        =         2.094424	     120.001630
	 B(3,4,5)         =         2.095291	     120.051316
	 B(3,4,8)         =         2.094917	     120.029907
	 B(4,3,11)        =         2.094842	     120.025596
	 B(4,5,6)         =         2.094684	     120.016542
	 B(4,5,9)         =         2.094741	     120.019847
	 B(5,4,8)         =         2.092977	     119.918775
	 B(5,6,12)        =         2.091292	     119.822207
	 B(6,1,7)         =         2.096011	     120.092564
	 B(6,5,9)         =         2.093760	     119.963607
	 L(6,12,13)       =         3.128630	     179.257306
	 l(6,12,13)       =         3.141593	     180.000000
	 L(12,13,14)      =         3.130350	     179.355869
	 l(12,13,14)      =         3.141593	     180.000000
	 D(1,2,3,4)       =        -0.000365	      -0.020885
	 D(1,2,3,11)      =         3.141161	     179.975244
	 D(1,6,5,4)       =        -0.000605	      -0.034637
	 D(1,6,5,9)       =         3.141417	     179.989955
	 D(2,1,6,5)       =         0.000629	       0.036066
	 D(2,1,6,12)      =        -3.139978	    -179.907479
	 D(2,3,4,5)       =         0.000390	       0.022337
	 D(2,3,4,8)       =        -3.141524	    -179.996086
	 D(3,2,1,6)       =        -0.000145	      -0.008315
	 D(3,2,1,7)       =        -3.141216	    -179.978410
	 D(3,4,5,6)       =         0.000095	       0.005440
	 D(3,4,5,9)       =         3.141258	     179.980834
	 D(4,3,2,10)      =         3.141566	     179.998462
	 D(4,5,6,12)      =         3.140007	     179.909129
	 D(5,4,3,11)      =        -3.141135	    -179.973790
	 D(5,6,1,7)       =        -3.141486	    -179.993898
	 D(6,1,2,10)      =         3.141110	     179.972330
	 D(6,5,4,8)       =        -3.141177	    -179.976157
	 D(7,1,2,10)      =         0.000039	       0.002235
	 D(7,1,6,12)      =         0.001092	       0.062556
	 D(8,4,3,11)      =         0.000136	       0.007786
	 D(8,4,5,9)       =        -0.000000	      -0.000000
	 D(9,5,6,12)      =        -0.001157	      -0.066280
	 D(10,2,3,11)     =        -0.000094	      -0.005409

	Current energy   :      -308.4126652060

	Generating empirical Hessian (Schlegel '84) for each fragment.
	Taking RFO optimization step.
	Going to follow RFO solution 1.
	Using RFO vector 1.
	Norm of target step-size    0.06897
	Projected energy change by RFO approximation:        -0.0020864841

	Back-transformation to cartesian coordinates...
	Could not converge backtransformation.
	Using first guess instead.

	--- Internal Coordinate Step in ANG or DEG, aJ/ANG or AJ/DEG ---
	 ---------------------------------------------------------------------------
	   Coordinate                Previous        Force       Change         New 
	   ----------                --------       ------       ------       ------
	    1 R(1,2)          =      1.398860    -0.018524    -0.002650     1.396210
	    2 R(1,6)          =      1.398953     0.065875     0.009549     1.408501
	    3 R(1,7)          =      1.082354     0.050373     0.009018     1.091372
	    4 R(2,3)          =      1.399119     0.004840     0.000283     1.399402
	    5 R(2,10)         =      1.080986     0.064047     0.011406     1.092392
	    6 R(3,4)          =      1.397408     0.013653     0.001572     1.398980
	    7 R(3,11)         =      1.081656     0.062267     0.011111     1.092767
	    8 R(4,5)          =      1.397957    -0.011677    -0.001547     1.396410
	    9 R(4,8)          =      1.082234     0.057182     0.010222     1.092456
	   10 R(5,6)          =      1.398157     0.073151     0.010608     1.408766
	   11 R(5,9)          =      1.081490     0.055366     0.009875     1.091365
	   12 R(6,12)         =      1.436797    -0.003114    -0.000491     1.436306
	   13 R(12,13)        =      1.204001     0.186963     0.011655     1.215656
	   14 R(13,14)        =      1.057103     0.099940     0.016413     1.073516
	   15 B(1,2,3)        =    119.956051     0.000120     0.286171   120.242222
	   16 B(1,2,10)       =    120.042316    -0.000099    -0.320350   119.721966
	   17 B(1,6,5)        =    119.968092    -0.000278    -0.693523   119.274569
	   18 B(1,6,12)       =    120.209677     0.000083     0.179597   120.389274
	   19 B(2,1,6)        =    120.009750     0.000038     0.169042   120.178791
	   20 B(2,1,7)        =    119.897679     0.000087     0.406226   120.303905
	   21 B(2,3,4)        =    119.998238     0.000021    -0.108957   119.889280
	   22 B(2,3,11)       =    119.976166    -0.000009     0.060799   120.036966
	   23 B(3,2,10)       =    120.001630    -0.000022     0.034228   120.035858
	   24 B(3,4,5)        =    120.051316     0.000074     0.175956   120.227272
	   25 B(3,4,8)        =    120.029907    -0.000012     0.027704   120.057610
	   26 B(4,3,11)       =    120.025596    -0.000012     0.048215   120.073811
	   27 B(4,5,6)        =    120.016542     0.000025     0.171389   120.187930
	   28 B(4,5,9)        =    120.019847     0.000073     0.308449   120.328296
	   29 B(5,4,8)        =    119.918775    -0.000062    -0.203614   119.715160
	   30 B(5,6,12)       =    119.822207     0.000195     0.514017   120.336223
	   31 B(6,1,7)        =    120.092564    -0.000125    -0.575228   119.517336
	   32 B(6,5,9)        =    119.963607    -0.000098    -0.479806   119.483802
	   33 L(6,12,13)      =    179.257306     0.000070     0.208779   179.466085
	   34 l(6,12,13)      =    180.000000     0.000001     0.003910   180.003910
	   35 L(12,13,14)     =    179.355869     0.000025     0.114368   179.470237
	   36 l(12,13,14)     =    180.000000    -0.000000    -0.002289   179.997711
	   37 D(1,2,3,4)      =     -0.020885     0.000000     0.017656    -0.003229
	   38 D(1,2,3,11)     =    179.975244     0.000000     0.022401   179.997645
	   39 D(1,6,5,4)      =     -0.034637     0.000000     0.031750    -0.002887
	   40 D(1,6,5,9)      =    179.989955    -0.000000    -0.006885   179.983070
	   41 D(2,1,6,5)      =      0.036066    -0.000000    -0.033775     0.002291
	   42 D(2,1,6,12)     =   -179.907479    -0.000001    -0.108487  -180.015966
	   43 D(2,3,4,5)      =      0.022337    -0.000000    -0.019707     0.002631
	   44 D(2,3,4,8)      =   -179.996086     0.000000     0.006455  -179.989632
	   45 D(3,2,1,6)      =     -0.008315     0.000000     0.008315     0.000000
	   46 D(3,2,1,7)      =   -179.978410    -0.000000    -0.036542  -180.014952
	   47 D(3,4,5,6)      =      0.005440    -0.000000    -0.005440     0.000000
	   48 D(3,4,5,9)      =    179.980834     0.000000     0.033767   180.014601
	   49 D(4,3,2,10)     =    179.998462    -0.000000    -0.009267   179.989195
	   50 D(4,5,6,12)     =    179.909129     0.000001     0.106232   180.015361
	   51 D(5,4,3,11)     =   -179.973790    -0.000000    -0.024454  -179.998244
	   52 D(5,6,1,7)      =   -179.993898     0.000000     0.011773  -179.982125
	   53 D(6,1,2,10)     =    179.972330     0.000000     0.035979   180.008308
	   54 D(6,5,4,8)      =   -179.976157    -0.000000    -0.031116  -180.007273
	   55 D(7,1,2,10)     =      0.002235    -0.000000    -0.009635    -0.007400
	   56 D(7,1,6,12)     =      0.062556    -0.000000    -0.062556     0.000000
	   57 D(8,4,3,11)     =      0.007786     0.000000     0.001707     0.009493
	   58 D(8,4,5,9)      =      0.000000     0.000000     0.006890     0.006890
	   59 D(9,5,6,12)     =     -0.066280     0.000000     0.067597     0.001317
	   60 D(10,2,3,11)    =     -0.005409    -0.000000    -0.004522    -0.009931
	 ---------------------------------------------------------------------------

  ==> Convergence Check <==

  Measures of convergence in internal coordinates in au.
  Criteria marked as inactive (o), active & met (*), and active & unmet ( ).
  --------------------------------------------------------------------------------------------- ~
   Step     Total Energy     Delta E     MAX Force     RMS Force      MAX Disp      RMS Disp    ~
  --------------------------------------------------------------------------------------------- ~
    Convergence Criteria    1.00e-06 *    3.00e-04 *             o    1.20e-03 *             o  ~
  --------------------------------------------------------------------------------------------- ~
      1    -308.41266521   -3.08e+02      2.27e-02      4.28e-03 o    3.10e-02      8.90e-03 o  ~
  ---------------------------------------------------------------------------------------------

	Writing optimization data to binary file.
	Structure for next step:
	Cartesian Geometry (in Angstrom)
	    C     0.2119441644  -0.8058101247   0.8944947474
	    C    -1.0852685840  -1.3186138927   0.9551131149
	    C    -2.0784675865  -0.8261303434   0.1010988555
	    C    -1.7707084974   0.1837703026  -0.8167952654
	    C    -0.4757857707   0.7020799564  -0.8838098622
	    C     0.5290137691   0.2109809983  -0.0271768028
	    H     0.9872420456  -1.1889796785   1.5602171990
	    H    -2.5439733565   0.5703721568  -1.4846735390
	    H    -0.2339383574   1.4901008297  -1.5990798373
	    H    -1.3229833161  -2.1070424160   1.6728817462
	    H    -3.0926408099  -1.2299420151   0.1513806758
	    C     1.8619098825   0.7420254949  -0.0931611980
	    C     2.9932232637   1.1843852817  -0.1407779104
	    H     3.9894989266   1.5811678351  -0.1901169338
			--------------------------
			 OPTKING Finished Execution 
			--------------------------

    Structure for next step:
    Molecular point group: c1
    Full point group: C1

    Geometry (in Angstrom), charge = 0, multiplicity = 1:

    C            0.211981536061    -0.805624023408     0.894697566042
    C           -1.085231212309    -1.318427791452     0.955315933510
    C           -2.078430214844    -0.825944242115     0.101301674068
    C           -1.770671125691     0.183956403884    -0.816592446797
    C           -0.475748399001     0.702266057731    -0.883607043619
    C            0.529051140791     0.211167099556    -0.026973984248
    H            0.987279417243    -1.188793577190     1.560420017604
    H           -2.543935984814     0.570558258128    -1.484470720441
    H           -0.233900985723     1.490286930970    -1.598877018699
    H           -1.322945944471    -2.106856314664     1.673084564824
    H           -3.092603438252    -1.229755913775     0.151583494407
    C            1.861947254140     0.742211596193    -0.092958379377
    C            2.993260635361     1.184571383008    -0.140575091767
    H            3.989536298245     1.581353936358    -0.189914115216

gradient() will perform analytic gradient computation.

*** tstart() called on gimli.chem.bethel.edu
*** at Mon Jan 25 16:22:17 2016


         ---------------------------------------------------------
                                   SCF
            by Justin Turney, Rob Parrish, and Andy Simmonett
                              RKS Reference
                        8 Threads, 100000 MiB Core
         ---------------------------------------------------------

  ==> Geometry <==

    Molecular point group: c1
    Full point group: C1

    Geometry (in Angstrom), charge = 0, multiplicity = 1:

       Center              X                  Y                   Z               Mass       
    ------------   -----------------  -----------------  -----------------  -----------------
           C          0.211981536061    -0.805624023408     0.894697566042    12.000000000000
           C         -1.085231212309    -1.318427791452     0.955315933510    12.000000000000
           C         -2.078430214844    -0.825944242115     0.101301674068    12.000000000000
           C         -1.770671125691     0.183956403884    -0.816592446797    12.000000000000
           C         -0.475748399001     0.702266057731    -0.883607043619    12.000000000000
           C          0.529051140791     0.211167099556    -0.026973984248    12.000000000000
           H          0.987279417243    -1.188793577190     1.560420017604     1.007825032070
           H         -2.543935984814     0.570558258128    -1.484470720441     1.007825032070
           H         -0.233900985723     1.490286930970    -1.598877018699     1.007825032070
           H         -1.322945944471    -2.106856314664     1.673084564824     1.007825032070
           H         -3.092603438252    -1.229755913775     0.151583494407     1.007825032070
           C          1.861947254140     0.742211596193    -0.092958379377    12.000000000000
           C          2.993260635361     1.184571383008    -0.140575091767    12.000000000000
           H          3.989536298245     1.581353936358    -0.189914115216     1.007825032070

  Running in c1 symmetry.

  Rotational constants: A =      0.18848  B =      0.05061  C =      0.03990 [cm^-1]
  Rotational constants: A =   5650.46287  B =   1517.32253  C =   1196.12602 [MHz]
  Nuclear repulsion =  297.606926068608345

  Charge       = 0
  Multiplicity = 1
  Electrons    = 54
  Nalpha       = 27
  Nbeta        = 27

  ==> Algorithm <==

  SCF Algorithm Type is DF.
  DIIS enabled.
  MOM disabled.
  Fractional occupation disabled.
  Guess Type is READ.
  Energy threshold   = 1.00e-08
  Density threshold  = 1.00e-08
  Integral threshold = 0.00e+00

  ==> Primary Basis <==

  Basis Set: CC-PVDZ
    Number of shells: 66
    Number of basis function: 142
    Number of Cartesian functions: 150
    Spherical Harmonics?: true
    Max angular momentum: 2

  ==> DFT Potential <==

   => B3LYP Composite Functional <= 

    B3LYP Hybrid-GGA Exchange-Correlation Functional

    P.J. Stephens et. al., J. Phys. Chem., 98, 11623-11627, 1994

    Points   =           5000
    Deriv    =              1
    GGA      =           TRUE
    Meta     =          FALSE

    X_LRC        =          FALSE
    X_Hybrid     =           TRUE
    X_Alpha      =   2.000000E-01
    X_Omega      =   0.000000E+00
    C_LRC        =          FALSE
    C_Hybrid     =          FALSE
    C_Alpha      =   0.000000E+00
    C_Omega      =   0.000000E+00

   => Exchange Functionals <=

    0.8000    B3_X
    0.2000      HF 

   => Correlation Functionals <=

    0.1900 VWN3RPA_C
    0.8100   LYP_C

   => Molecular Quadrature <=

    Radial Scheme    =       TREUTLER
    Pruning Scheme   =           FLAT
    Nuclear Scheme   =       TREUTLER

    BS radius alpha  =              1
    Pruning alpha    =              1
    Radial Points    =             75
    Spherical Points =            302
    Total Points     =         310318
    Total Blocks     =            275
    Max Points       =           4953
    Max Functions    =            142

  ==> Pre-Iterations <==

   -------------------------------------------------------
    Irrep   Nso     Nmo     Nalpha   Nbeta   Ndocc  Nsocc
   -------------------------------------------------------
     A        142     142       0       0       0       0
   -------------------------------------------------------
    Total     142     142      27      27      27       0
   -------------------------------------------------------

  ==> Integral Setup <==

  ==> DFJK: Density-Fitted J/K Matrices <==

    J tasked:                  Yes
    K tasked:                  Yes
    wK tasked:                  No
    OpenMP threads:              8
    Integrals threads:           8
    Memory (MB):             71525
    Algorithm:                Core
    Integral Cache:           NONE
    Schwarz Cutoff:          1E-12
    Fitting Condition:       1E-12

   => Auxiliary Basis Set <=

  Basis Set: 
    Number of shells: 246
    Number of basis function: 698
    Number of Cartesian functions: 798
    Spherical Harmonics?: true
    Max angular momentum: 3

  Minimum eigenvalue in the overlap matrix is 1.9636380911E-04.
  Using Symmetric Orthogonalization.
  SCF Guess: Reading in previously saved MOs, projecting if necessary.

  Using orbitals from previous SCF, no projection.
  Recomputing DOCC and SOCC from number of alpha and beta electrons from previous calculation.
              A 
    DOCC [    27 ]

  ==> Iterations <==

                           Total Energy        Delta E     RMS |[F,P]|

   @DF-RKS iter   0:  -308.38024250624898   -3.08380e+02   4.53068e-04 
   @DF-RKS iter   1:  -308.41349342595072   -3.32509e-02   1.09785e-04 
   @DF-RKS iter   2:  -308.41320098436177    2.92442e-04   1.95575e-04 DIIS
   @DF-RKS iter   3:  -308.41364819862713   -4.47214e-04   4.49879e-05 DIIS
   @DF-RKS iter   4:  -308.41366795251895   -1.97539e-05   1.24844e-05 DIIS
   @DF-RKS iter   5:  -308.41366941364038   -1.46112e-06   4.50317e-06 DIIS
   @DF-RKS iter   6:  -308.41366963969000   -2.26050e-07   6.37266e-07 DIIS
   @DF-RKS iter   7:  -308.41366964300579   -3.31579e-09   2.75556e-07 DIIS
   @DF-RKS iter   8:  -308.41366964376982   -7.64032e-10   4.46006e-08 DIIS
   @DF-RKS iter   9:  -308.41366964378750   -1.76783e-11   1.58754e-08 DIIS
   @DF-RKS iter  10:  -308.41366964379051   -3.01270e-12   5.14805e-09 DIIS

  ==> Post-Iterations <==

    Orbital Energies (a.u.)
    -----------------------

    Doubly Occupied:                                                      

       1A    -10.220731     2A    -10.202029     3A    -10.202017  
       4A    -10.200791     5A    -10.200108     6A    -10.199955  
       7A    -10.195013     8A    -10.189601     9A     -0.868096  
      10A     -0.786144    11A     -0.755437    12A     -0.729092  
      13A     -0.628257    14A     -0.613904    15A     -0.550961  
      16A     -0.515265    17A     -0.480042    18A     -0.462409  
      19A     -0.439328    20A     -0.428842    21A     -0.385161  
      22A     -0.364064    23A     -0.355794    24A     -0.312419  
      25A     -0.278832    26A     -0.262859    27A     -0.238380  

    Virtual:                                                              

      28A     -0.037726    29A     -0.015157    30A      0.043884  
      31A      0.056222    32A      0.080292    33A      0.087781  
      34A      0.094584    35A      0.106834    36A      0.138587  
      37A      0.141766    38A      0.165588    39A      0.226918  
      40A      0.272081    41A      0.275671    42A      0.299115  
      43A      0.308475    44A      0.349646    45A      0.384551  
      46A      0.408020    47A      0.446701    48A      0.468964  
      49A      0.477273    50A      0.478613    51A      0.499731  
      52A      0.504700    53A      0.506347    54A      0.511281  
      55A      0.515469    56A      0.521435    57A      0.532713  
      58A      0.583167    59A      0.595029    60A      0.599689  
      61A      0.611406    62A      0.635139    63A      0.663407  
      64A      0.669805    65A      0.681234    66A      0.686690  
      67A      0.695074    68A      0.713062    69A      0.748088  
      70A      0.821383    71A      0.849996    72A      0.866198  
      73A      0.868622    74A      0.897159    75A      0.905737  
      76A      0.956869    77A      0.985391    78A      0.994318  
      79A      0.995395    80A      1.013177    81A      1.014862  
      82A      1.023025    83A      1.059360    84A      1.059636  
      85A      1.078170    86A      1.083887    87A      1.102727  
      88A      1.144038    89A      1.256053    90A      1.277625  
      91A      1.294007    92A      1.329289    93A      1.353915  
      94A      1.399148    95A      1.424242    96A      1.471523  
      97A      1.477965    98A      1.480449    99A      1.500015  
     100A      1.500304   101A      1.559108   102A      1.596397  
     103A      1.596998   104A      1.609231   105A      1.630200  
     106A      1.645696   107A      1.679485   108A      1.696005  
     109A      1.698385   110A      1.736219   111A      1.774656  
     112A      1.774894   113A      1.800245   114A      1.815248  
     115A      1.831784   116A      1.848455   117A      1.849714  
     118A      1.915781   119A      1.921506   120A      1.941486  
     121A      1.968428   122A      1.987054   123A      1.991229  
     124A      2.027700   125A      2.173229   126A      2.184760  
     127A      2.194142   128A      2.197728   129A      2.363624  
     130A      2.410267   131A      2.410825   132A      2.450433  
     133A      2.462784   134A      2.608666   135A      2.657232  
     136A      2.689532   137A      2.709642   138A      2.827249  
     139A      2.849351   140A      2.933954   141A      3.179946  
     142A      3.581287  

    Final Occupation by Irrep:
              A 
    DOCC [    27 ]

  Energy converged.

  @DF-RKS Final Energy:  -308.41366964379051

   => Energetics <=

    Nuclear Repulsion Energy =            297.6069260686083453
    One-Electron Energy =               -1003.3957029864659489
    Two-Electron Energy =                 434.2368001851083932
    DFT Exchange-Correlation Energy =     -36.8616929110412741
    Empirical Dispersion Energy =           0.0000000000000000
    PCM Polarization Energy =               0.0000000000000000
    EFP Energy =                            0.0000000000000000
    Total Energy =                       -308.4136696437905130

    Alert: EFP and PCM quantities not currently incorporated into SCF psivars.

Properties will be evaluated at   0.000000,   0.000000,   0.000000 Bohr
  ==> Properties <==


Properties computed using the SCF density matrix

  Nuclear Dipole Moment: (a.u.)
     X:    -2.0780      Y:    -0.8280      Z:     0.1048

  Electronic Dipole Moment: (a.u.)
     X:     1.8358      Y:     0.7320      Z:    -0.0930

  Dipole Moment: (a.u.)
     X:    -0.2422      Y:    -0.0960      Z:     0.0118     Total:     0.2608

  Dipole Moment: (Debye)
     X:    -0.6156      Y:    -0.2441      Z:     0.0301     Total:     0.6629


  Saving occupied orbitals to File 180.

*** tstop() called on gimli.chem.bethel.edu at Mon Jan 25 16:23:21 2016
Module time:
	user time   =     247.22 seconds =       4.12 minutes
	system time =       2.22 seconds =       0.04 minutes
	total time  =         64 seconds =       1.07 minutes
Total time:
	user time   =     580.47 seconds =       9.67 minutes
	system time =       5.39 seconds =       0.09 minutes
	total time  =        148 seconds =       2.47 minutes

*** tstart() called on gimli.chem.bethel.edu
*** at Mon Jan 25 16:23:21 2016


         ------------------------------------------------------------
                                   SCF GRAD                          
                          Rob Parrish, Justin Turney,                
                       Andy Simmonett, and Alex Sokolov              
         ------------------------------------------------------------

  ==> Geometry <==

    Molecular point group: c1
    Full point group: C1

    Geometry (in Angstrom), charge = 0, multiplicity = 1:

       Center              X                  Y                   Z               Mass       
    ------------   -----------------  -----------------  -----------------  -----------------
           C          0.211981536061    -0.805624023408     0.894697566042    12.000000000000
           C         -1.085231212309    -1.318427791452     0.955315933510    12.000000000000
           C         -2.078430214844    -0.825944242115     0.101301674068    12.000000000000
           C         -1.770671125691     0.183956403884    -0.816592446797    12.000000000000
           C         -0.475748399001     0.702266057731    -0.883607043619    12.000000000000
           C          0.529051140791     0.211167099556    -0.026973984248    12.000000000000
           H          0.987279417243    -1.188793577190     1.560420017604     1.007825032070
           H         -2.543935984814     0.570558258128    -1.484470720441     1.007825032070
           H         -0.233900985723     1.490286930970    -1.598877018699     1.007825032070
           H         -1.322945944471    -2.106856314664     1.673084564824     1.007825032070
           H         -3.092603438252    -1.229755913775     0.151583494407     1.007825032070
           C          1.861947254140     0.742211596193    -0.092958379377    12.000000000000
           C          2.993260635361     1.184571383008    -0.140575091767    12.000000000000
           H          3.989536298245     1.581353936358    -0.189914115216     1.007825032070

  Nuclear repulsion =  297.606926068608345

  ==> Basis Set <==

  Basis Set: CC-PVDZ
    Number of shells: 66
    Number of basis function: 142
    Number of Cartesian functions: 150
    Spherical Harmonics?: true
    Max angular momentum: 2

  ==> DFJKGrad: Density-Fitted SCF Gradients <==

    Gradient:                    1
    J tasked:                  Yes
    K tasked:                  Yes
    wK tasked:                  No
    OpenMP threads:              8
    Integrals threads:           8
    Memory (MB):             71525
    Schwarz Cutoff:          0E+00
    Fitting Condition:       1E-12

   => Auxiliary Basis Set <=

  Basis Set: 
    Number of shells: 246
    Number of basis function: 698
    Number of Cartesian functions: 798
    Spherical Harmonics?: true
    Max angular momentum: 3

  ==> DFT Potential <==

   => B3LYP Composite Functional <= 

    B3LYP Hybrid-GGA Exchange-Correlation Functional

    P.J. Stephens et. al., J. Phys. Chem., 98, 11623-11627, 1994

    Points   =           5000
    Deriv    =              1
    GGA      =           TRUE
    Meta     =          FALSE

    X_LRC        =          FALSE
    X_Hybrid     =           TRUE
    X_Alpha      =   2.000000E-01
    X_Omega      =   0.000000E+00
    C_LRC        =          FALSE
    C_Hybrid     =          FALSE
    C_Alpha      =   0.000000E+00
    C_Omega      =   0.000000E+00

   => Exchange Functionals <=

    0.8000    B3_X
    0.2000      HF 

   => Correlation Functionals <=

    0.1900 VWN3RPA_C
    0.8100   LYP_C

   => Molecular Quadrature <=

    Radial Scheme    =       TREUTLER
    Pruning Scheme   =           FLAT
    Nuclear Scheme   =       TREUTLER

    BS radius alpha  =              1
    Pruning alpha    =              1
    Radial Points    =             75
    Spherical Points =            302
    Total Points     =         310318
    Total Blocks     =            275
    Max Points       =           4953
    Max Functions    =            142


  -Total Gradient:
     Atom            X                  Y                   Z
    ------   -----------------  -----------------  -----------------
       1        0.001999484212     0.001281243246    -0.000608463872
       2       -0.000562630719    -0.000744528452     0.000556789171
       3        0.000335491074     0.000331397906    -0.000209378726
       4       -0.001128500452    -0.000142477485    -0.000257781905
       5        0.002324432305     0.000610878386     0.000192493252
       6       -0.003463634792    -0.001766983252     0.000533915301
       7       -0.000279807694    -0.000408024156     0.000329345676
       8       -0.000177019455    -0.000007314764    -0.000048761448
       9       -0.000454425578     0.000101900339    -0.000252423087
      10       -0.000140282648    -0.000077852907     0.000036476227
      11       -0.000280610399    -0.000132604284     0.000029888462
      12        0.000392090514     0.000662641745    -0.000512847885
      13        0.000504271074    -0.000183811701     0.000366484051
      14        0.000946174745     0.000481617588    -0.000156607832


*** tstop() called on gimli.chem.bethel.edu at Mon Jan 25 16:23:34 2016
Module time:
	user time   =      43.66 seconds =       0.73 minutes
	system time =       0.51 seconds =       0.01 minutes
	total time  =         13 seconds =       0.22 minutes
Total time:
	user time   =     624.13 seconds =      10.40 minutes
	system time =       5.90 seconds =       0.10 minutes
	total time  =        161 seconds =       2.68 minutes
CURRENT ENERGY: -308.4136696438

			-----------------------------------------
			 OPTKING 2.0: for geometry optimizations 
			  - R.A. King,  Bethel University        
			-----------------------------------------

	Previous internal coordinate definitions found.
	---Fragment 1 Geometry and Gradient---
	 C           0.4005870484       -1.5224087703        1.6907333716
	 C          -2.0507897821       -2.4914674518        1.8052854847
	 C          -3.9276638924       -1.5608084186        0.1914324208
	 C          -3.3460834990        0.3476272237       -1.5431360866
	 C          -0.8990341823        1.3270905215       -1.6697753215
	 C           0.9997617664        0.3990479864       -0.0509734429
	 H           1.8656877152       -2.2464942894        2.9487664855
	 H          -4.8073423109        1.0781988507       -2.8052431139
	 H          -0.4420088052        2.8162341590       -3.0214396855
	 H          -2.5000055237       -3.9813814361        3.1616716247
	 H          -5.8441735359       -2.3239018873        0.2864512907
	 C           3.5185703842        1.4025766495       -0.1756658788
	 C           5.6564428452        2.2385154987       -0.2656484245
	 H           7.5391310009        2.9883258589       -0.3588856665
	             0.0019994842        0.0012812432       -0.0006084639
	            -0.0005626307       -0.0007445285        0.0005567892
	             0.0003354911        0.0003313979       -0.0002093787
	            -0.0011285005       -0.0001424775       -0.0002577819
	             0.0023244323        0.0006108784        0.0001924933
	            -0.0034636348       -0.0017669833        0.0005339153
	            -0.0002798077       -0.0004080242        0.0003293457
	            -0.0001770195       -0.0000073148       -0.0000487614
	            -0.0004544256        0.0001019003       -0.0002524231
	            -0.0001402826       -0.0000778529        0.0000364762
	            -0.0002806104       -0.0001326043        0.0000298885
	             0.0003920905        0.0006626417       -0.0005128479
	             0.0005042711       -0.0001838117        0.0003664841
	             0.0009461747        0.0004816176       -0.0001566078

	---Fragment 1 Intrafragment Coordinates---
	 - Coordinate -           - BOHR/RAD -       - ANG/DEG -
	 R(1,2)           =         2.638455	       1.396210
	 R(1,6)           =         2.661682	       1.408501
	 R(1,7)           =         2.062394	       1.091372
	 R(2,3)           =         2.644486	       1.399402
	 R(2,10)          =         2.064321	       1.092392
	 R(3,4)           =         2.643689	       1.398980
	 R(3,11)          =         2.065030	       1.092767
	 R(4,5)           =         2.638832	       1.396410
	 R(4,8)           =         2.064443	       1.092456
	 R(5,6)           =         2.662181	       1.408766
	 R(5,9)           =         2.062382	       1.091365
	 R(6,12)          =         2.714225	       1.436306
	 R(12,13)         =         2.297257	       1.215656
	 R(13,14)         =         2.028651	       1.073516
	 B(1,2,3)         =         2.098623	     120.242220
	 B(1,2,10)        =         2.089542	     119.721966
	 B(1,6,5)         =         2.081734	     119.274567
	 B(1,6,12)        =         2.101189	     120.389242
	 B(2,1,6)         =         2.097515	     120.178778
	 B(2,1,7)         =         2.099699	     120.303885
	 B(2,3,4)         =         2.092462	     119.889246
	 B(2,3,11)        =         2.095040	     120.036954
	 B(3,2,10)        =         2.095020	     120.035814
	 B(3,4,5)         =         2.098362	     120.227271
	 B(3,4,8)         =         2.095400	     120.057569
	 B(4,3,11)        =         2.095683	     120.073800
	 B(4,5,6)         =         2.097675	     120.187919
	 B(4,5,9)         =         2.100125	     120.328278
	 B(5,4,8)         =         2.089424	     119.715160
	 B(5,6,12)        =         2.100263	     120.336189
	 B(6,1,7)         =         2.085971	     119.517336
	 B(6,5,9)         =         2.085386	     119.483801
	 L(6,12,13)       =         3.132274	     179.466071
	 l(6,12,13)       =         3.141593	     180.000000
	 L(12,13,14)      =         3.132346	     179.470232
	 l(12,13,14)      =         3.141593	     180.000000
	 D(1,2,3,4)       =        -0.000056	      -0.003229
	 D(1,2,3,11)      =         3.141552	     179.997645
	 D(1,6,5,4)       =        -0.000050	      -0.002887
	 D(1,6,5,9)       =         3.141297	     179.983070
	 D(2,1,6,5)       =         0.000040	       0.002291
	 D(2,1,6,12)      =         3.141314	     179.984034
	 D(2,3,4,5)       =         0.000046	       0.002631
	 D(2,3,4,8)       =        -3.141412	    -179.989632
	 D(3,2,1,6)       =         0.000000	       0.000000
	 D(3,2,1,7)       =         3.141332	     179.985048
	 D(3,4,5,6)       =         0.000000	       0.000000
	 D(3,4,5,9)       =        -3.141338	    -179.985399
	 D(4,3,2,10)      =         3.141404	     179.989195
	 D(4,5,6,12)      =        -3.141325	    -179.984639
	 D(5,4,3,11)      =        -3.141562	    -179.998244
	 D(5,6,1,7)       =        -3.141281	    -179.982125
	 D(6,1,2,10)      =        -3.141448	    -179.991692
	 D(6,5,4,8)       =         3.141466	     179.992727
	 D(7,1,2,10)      =        -0.000129	      -0.007400
	 D(7,1,6,12)      =        -0.000000	      -0.000000
	 D(8,4,3,11)      =         0.000166	       0.009493
	 D(8,4,5,9)       =         0.000120	       0.006890
	 D(9,5,6,12)      =         0.000023	       0.001317
	 D(10,2,3,11)     =        -0.000173	      -0.009931

	Current energy   :      -308.4136696438

	Energy change for the previous step:
		Projected    :        -0.0020864841
		Actual       :        -0.0010044378

	Performing BFGS update.
	Previous computed or guess Hessian on step 1.
	Steps to be used in Hessian update: 1
	Taking RFO optimization step.
	Going to follow RFO solution 1.
	Using RFO vector 1.
	Norm of target step-size    0.01193
	Projected energy change by RFO approximation:        -0.0000391935

	Back-transformation to cartesian coordinates...
	Successfully converged to displaced geometry.

	--- Internal Coordinate Step in ANG or DEG, aJ/ANG or AJ/DEG ---
	 ---------------------------------------------------------------------------
	   Coordinate                Previous        Force       Change         New 
	   ----------                --------       ------       ------       ------
	    1 R(1,2)          =      1.396210    -0.008205    -0.001187     1.395023
	    2 R(1,6)          =      1.408501     0.004102     0.000774     1.409275
	    3 R(1,7)          =      1.091372    -0.001193    -0.000048     1.091324
	    4 R(2,3)          =      1.399402    -0.003731    -0.000539     1.398862
	    5 R(2,10)         =      1.092392    -0.000917     0.000046     1.092438
	    6 R(3,4)          =      1.398980    -0.001397    -0.000192     1.398787
	    7 R(3,11)         =      1.092767    -0.002570    -0.000254     1.092513
	    8 R(4,5)          =      1.396410    -0.009173    -0.001304     1.395106
	    9 R(4,8)          =      1.092456    -0.001261    -0.000038     1.092419
	   10 R(5,6)          =      1.408766     0.002407     0.000553     1.409319
	   11 R(5,9)          =      1.091365    -0.001135    -0.000021     1.091344
	   12 R(6,12)         =      1.436306    -0.017099    -0.002733     1.433573
	   13 R(12,13)        =      1.215656    -0.011927    -0.000526     1.215130
	   14 R(13,14)        =      1.073516    -0.008751    -0.001133     1.072383
	   15 B(1,2,3)        =    120.242220     0.000017     0.054253   120.296473
	   16 B(1,2,10)       =    119.721966    -0.000018    -0.075401   119.646565
	   17 B(1,6,5)        =    119.274567    -0.000060    -0.185807   119.088760
	   18 B(1,6,12)       =    120.389242     0.000020     0.060966   120.450208
	   19 B(2,1,6)        =    120.178778     0.000023     0.082847   120.261624
	   20 B(2,1,7)        =    120.303885     0.000034     0.179198   120.483082
	   21 B(2,3,4)        =    119.889246    -0.000022    -0.090988   119.798258
	   22 B(2,3,11)       =    120.036954     0.000013     0.054633   120.091588
	   23 B(3,2,10)       =    120.035814     0.000001     0.021152   120.056966
	   24 B(3,4,5)        =    120.227271     0.000020     0.060817   120.288088
	   25 B(3,4,8)        =    120.057569    -0.000002     0.009642   120.067211
	   26 B(4,3,11)       =    120.073800     0.000009     0.036356   120.110155
	   27 B(4,5,6)        =    120.187919     0.000022     0.078881   120.266800
	   28 B(4,5,9)        =    120.328278     0.000029     0.155569   120.483848
	   29 B(5,4,8)        =    119.715160    -0.000018    -0.070455   119.644705
	   30 B(5,6,12)       =    120.336189     0.000040     0.124852   120.461041
	   31 B(6,1,7)        =    119.517336    -0.000057    -0.262036   119.255300
	   32 B(6,5,9)        =    119.483801    -0.000051    -0.234443   119.249358
	   33 L(6,12,13)      =    179.466071     0.000042     0.128324   179.594394
	   34 l(6,12,13)      =    180.000000    -0.000000    -0.001102   179.998898
	   35 L(12,13,14)     =    179.470232     0.000022     0.106815   179.577047
	   36 l(12,13,14)     =    180.000000     0.000000     0.001122   180.001122
	   37 D(1,2,3,4)      =     -0.003229     0.000000     0.005171     0.001942
	   38 D(1,2,3,11)     =    179.997645     0.000000     0.000733   179.998378
	   39 D(1,6,5,4)      =     -0.002887     0.000000     0.006255     0.003368
	   40 D(1,6,5,9)      =    179.983070     0.000000     0.024493   180.007564
	   41 D(2,1,6,5)      =      0.002291    -0.000000    -0.005175    -0.002884
	   42 D(2,1,6,12)     =    179.984034     0.000000     0.025277   180.009310
	   43 D(2,3,4,5)      =      0.002631    -0.000000    -0.004087    -0.001456
	   44 D(2,3,4,8)      =   -179.989632    -0.000000    -0.014841  -180.004473
	   45 D(3,2,1,6)      =      0.000000    -0.000000     0.000000     0.000000
	   46 D(3,2,1,7)      =    179.985048     0.000000     0.020226   180.005273
	   47 D(3,4,5,6)      =      0.000000    -0.000000    -0.001218    -0.001218
	   48 D(3,4,5,9)      =   -179.985399    -0.000000    -0.020066  -180.005465
	   49 D(4,3,2,10)     =    179.989195     0.000000     0.015333   180.004528
	   50 D(4,5,6,12)     =   -179.984639    -0.000000    -0.024188  -180.008828
	   51 D(5,4,3,11)     =   -179.998244     0.000000     0.000353  -179.997891
	   52 D(5,6,1,7)      =   -179.982125    -0.000000    -0.025724  -180.007849
	   53 D(6,1,2,10)     =   -179.991692    -0.000000    -0.010636  -180.002328
	   54 D(6,5,4,8)      =    179.992727     0.000000     0.009059   180.001786
	   55 D(7,1,2,10)     =     -0.007400     0.000000     0.010098     0.002698
	   56 D(7,1,6,12)     =      0.000000     0.000000     0.004346     0.004346
	   57 D(8,4,3,11)     =      0.009493    -0.000000    -0.010402    -0.000908
	   58 D(8,4,5,9)      =      0.006890    -0.000000    -0.009351    -0.002461
	   59 D(9,5,6,12)     =      0.001317    -0.000000    -0.005950    -0.004632
	   60 D(10,2,3,11)    =     -0.009931     0.000000     0.010895     0.000964
	 ---------------------------------------------------------------------------

  ==> Convergence Check <==

  Measures of convergence in internal coordinates in au.
  Criteria marked as inactive (o), active & met (*), and active & unmet ( ).
  ---------------------------------------------------------------------------------------------
   Step     Total Energy     Delta E     MAX Force     RMS Force      MAX Disp      RMS Disp   
  ---------------------------------------------------------------------------------------------
    Convergence Criteria    1.00e-06 *    3.00e-04 *             o    1.20e-03 *             o
  ---------------------------------------------------------------------------------------------
      2    -308.41366964   -1.00e-03      2.08e-03      4.79e-04 o    5.16e-03      1.54e-03 o  ~
  ---------------------------------------------------------------------------------------------

	Writing optimization data to binary file.
	Structure for next step:
	Cartesian Geometry (in Angstrom)
	    C     0.2108091932  -0.8055407705   0.8945862250
	    C    -1.0853580424  -1.3178136886   0.9547178933
	    C    -2.0787769446  -0.8261419674   0.1013755761
	    C    -1.7698537044   0.1836702866  -0.8159311876
	    C    -0.4762423539   0.7017493618  -0.8828925088
	    C     0.5303128788   0.2119291745  -0.0266787594
	    H     0.9881929480  -1.1869353610   1.5588155635
	    H    -2.5422311970   0.5708118470  -1.4844616740
	    H    -0.2316748969   1.4895770762  -1.5974180174
	    H    -1.3219427073  -2.1064685034   1.6726815506
	    H    -3.0927654837  -1.2297732014   0.1513077731
	    C     1.8610204429   0.7411495522  -0.0920608142
	    C     2.9913725627   1.1843522489  -0.1412142654
	    H     3.9867262814   1.5804037483  -0.1903929045
			--------------------------
			 OPTKING Finished Execution 
			--------------------------

    Structure for next step:
    Molecular point group: c1
    Full point group: C1

    Geometry (in Angstrom), charge = 0, multiplicity = 1:

    C            0.211118941804    -0.805452196488     0.894446846812
    C           -1.085048293744    -1.317725114553     0.954578515092
    C           -2.078467195947    -0.826053393320     0.101236197954
    C           -1.769543955779     0.183758860611    -0.816070565809
    C           -0.475932605225     0.701837935853    -0.883031887013
    C            0.530622627392     0.212017748521    -0.026818137538
    H            0.988502696611    -1.186846786936     1.558676185277
    H           -2.541921448338     0.570900421049    -1.484601052182
    H           -0.231365148275     1.489665650238    -1.597557395614
    H           -1.321632958678    -2.106379929317     1.672542172427
    H           -3.092455735043    -1.229684627384     0.151168394936
    C            1.861330191511     0.741238126251    -0.092200192376
    C            2.991682311299     1.184440822925    -0.141353643545
    H            3.987036030022     1.580492322366    -0.190532282659

gradient() will perform analytic gradient computation.

*** tstart() called on gimli.chem.bethel.edu
*** at Mon Jan 25 16:23:34 2016


         ---------------------------------------------------------
                                   SCF
            by Justin Turney, Rob Parrish, and Andy Simmonett
                              RKS Reference
                        8 Threads, 100000 MiB Core
         ---------------------------------------------------------

  ==> Geometry <==

    Molecular point group: c1
    Full point group: C1

    Geometry (in Angstrom), charge = 0, multiplicity = 1:

       Center              X                  Y                   Z               Mass       
    ------------   -----------------  -----------------  -----------------  -----------------
           C          0.211118941804    -0.805452196488     0.894446846812    12.000000000000
           C         -1.085048293744    -1.317725114553     0.954578515092    12.000000000000
           C         -2.078467195947    -0.826053393320     0.101236197954    12.000000000000
           C         -1.769543955779     0.183758860611    -0.816070565809    12.000000000000
           C         -0.475932605225     0.701837935853    -0.883031887013    12.000000000000
           C          0.530622627392     0.212017748521    -0.026818137538    12.000000000000
           H          0.988502696611    -1.186846786936     1.558676185277     1.007825032070
           H         -2.541921448338     0.570900421049    -1.484601052182     1.007825032070
           H         -0.231365148275     1.489665650238    -1.597557395614     1.007825032070
           H         -1.321632958678    -2.106379929317     1.672542172427     1.007825032070
           H         -3.092455735043    -1.229684627384     0.151168394936     1.007825032070
           C          1.861330191511     0.741238126251    -0.092200192376    12.000000000000
           C          2.991682311299     1.184440822925    -0.141353643545    12.000000000000
           H          3.987036030022     1.580492322366    -0.190532282659     1.007825032070

  Running in c1 symmetry.

  Rotational constants: A =      0.18870  B =      0.05065  C =      0.03993 [cm^-1]
  Rotational constants: A =   5657.15427  B =   1518.30795  C =   1197.03819 [MHz]
  Nuclear repulsion =  297.723130324495969

  Charge       = 0
  Multiplicity = 1
  Electrons    = 54
  Nalpha       = 27
  Nbeta        = 27

  ==> Algorithm <==

  SCF Algorithm Type is DF.
  DIIS enabled.
  MOM disabled.
  Fractional occupation disabled.
  Guess Type is READ.
  Energy threshold   = 1.00e-08
  Density threshold  = 1.00e-08
  Integral threshold = 0.00e+00

  ==> Primary Basis <==

  Basis Set: CC-PVDZ
    Number of shells: 66
    Number of basis function: 142
    Number of Cartesian functions: 150
    Spherical Harmonics?: true
    Max angular momentum: 2

  ==> DFT Potential <==

   => B3LYP Composite Functional <= 

    B3LYP Hybrid-GGA Exchange-Correlation Functional

    P.J. Stephens et. al., J. Phys. Chem., 98, 11623-11627, 1994

    Points   =           5000
    Deriv    =              1
    GGA      =           TRUE
    Meta     =          FALSE

    X_LRC        =          FALSE
    X_Hybrid     =           TRUE
    X_Alpha      =   2.000000E-01
    X_Omega      =   0.000000E+00
    C_LRC        =          FALSE
    C_Hybrid     =          FALSE
    C_Alpha      =   0.000000E+00
    C_Omega      =   0.000000E+00

   => Exchange Functionals <=

    0.8000    B3_X
    0.2000      HF 

   => Correlation Functionals <=

    0.1900 VWN3RPA_C
    0.8100   LYP_C

   => Molecular Quadrature <=

    Radial Scheme    =       TREUTLER
    Pruning Scheme   =           FLAT
    Nuclear Scheme   =       TREUTLER

    BS radius alpha  =              1
    Pruning alpha    =              1
    Radial Points    =             75
    Spherical Points =            302
    Total Points     =         310315
    Total Blocks     =            275
    Max Points       =           4939
    Max Functions    =            142

  ==> Pre-Iterations <==

   -------------------------------------------------------
    Irrep   Nso     Nmo     Nalpha   Nbeta   Ndocc  Nsocc
   -------------------------------------------------------
     A        142     142       0       0       0       0
   -------------------------------------------------------
    Total     142     142      27      27      27       0
   -------------------------------------------------------

  ==> Integral Setup <==

  ==> DFJK: Density-Fitted J/K Matrices <==

    J tasked:                  Yes
    K tasked:                  Yes
    wK tasked:                  No
    OpenMP threads:              8
    Integrals threads:           8
    Memory (MB):             71525
    Algorithm:                Core
    Integral Cache:           NONE
[...]
           C         -1.769031391113     0.183945925970    -0.816066913224    12.000000000000
           C         -0.475563427912     0.701552802740    -0.882664867812    12.000000000000
           C          0.531467789449     0.211824929742    -0.026375047256    12.000000000000
           H          0.988369872704    -1.186866641061     1.558633227023     1.007825032070
           H         -2.540816539718     0.571536827597    -1.484783495021     1.007825032070
           H         -0.229768579049     1.489349014257    -1.596676747439     1.007825032070
           H         -1.321982674604    -2.106353949808     1.672472342810     1.007825032070
           H         -3.092665269161    -1.229046524758     0.150564330107     1.007825032070
           C          1.861687631540     0.740360649886    -0.091195112203    12.000000000000
           C          2.990823358865     1.185974922071    -0.143154268711    12.000000000000
           H          3.986064718973     1.581641756826    -0.191890317404     1.007825032070

  Nuclear repulsion =  297.732921927483517

  ==> Basis Set <==

  Basis Set: CC-PVDZ
    Number of shells: 66
    Number of basis function: 142
    Number of Cartesian functions: 150
    Spherical Harmonics?: true
    Max angular momentum: 2

  ==> DFJKGrad: Density-Fitted SCF Gradients <==

    Gradient:                    1
    J tasked:                  Yes
    K tasked:                  Yes
    wK tasked:                  No
    OpenMP threads:              8
    Integrals threads:           8
    Memory (MB):             71525
    Schwarz Cutoff:          0E+00
    Fitting Condition:       1E-12

   => Auxiliary Basis Set <=

  Basis Set: 
    Number of shells: 246
    Number of basis function: 698
    Number of Cartesian functions: 798
    Spherical Harmonics?: true
    Max angular momentum: 3

  ==> DFT Potential <==

   => B3LYP Composite Functional <= 

    B3LYP Hybrid-GGA Exchange-Correlation Functional

    P.J. Stephens et. al., J. Phys. Chem., 98, 11623-11627, 1994

    Points   =           5000
    Deriv    =              1
    GGA      =           TRUE
    Meta     =          FALSE

    X_LRC        =          FALSE
    X_Hybrid     =           TRUE
    X_Alpha      =   2.000000E-01
    X_Omega      =   0.000000E+00
    C_LRC        =          FALSE
    C_Hybrid     =          FALSE
    C_Alpha      =   0.000000E+00
    C_Omega      =   0.000000E+00

   => Exchange Functionals <=

    0.8000    B3_X
    0.2000      HF 

   => Correlation Functionals <=

    0.1900 VWN3RPA_C
    0.8100   LYP_C

   => Molecular Quadrature <=

    Radial Scheme    =       TREUTLER
    Pruning Scheme   =           FLAT
    Nuclear Scheme   =       TREUTLER

    BS radius alpha  =              1
    Pruning alpha    =              1
    Radial Points    =             75
    Spherical Points =            302
    Total Points     =         310313
    Total Blocks     =            275
    Max Points       =           4936
    Max Functions    =            142


  -Total Gradient:
     Atom            X                  Y                   Z
    ------   -----------------  -----------------  -----------------
       1       -0.000054532983    -0.000058225079     0.000032306110
       2        0.000021098728     0.000001057239     0.000004978239
       3       -0.000038021389    -0.000014427086     0.000006448714
       4        0.000019030799     0.000018239432    -0.000012613803
       5       -0.000075474853    -0.000019523190    -0.000015163618
       6        0.000132726168     0.000036419359     0.000035902955
       7        0.000009599207     0.000014094469    -0.000012650481
       8        0.000010819803    -0.000000862499     0.000004386917
       9        0.000014100603    -0.000003996467     0.000007451338
      10        0.000008749283     0.000008270348    -0.000005560346
      11        0.000021879122     0.000008612269    -0.000002867423
      12       -0.000080501452     0.000106679408    -0.000143838640
      13        0.000056396567    -0.000125194574     0.000146615920
      14       -0.000030197259     0.000035124572    -0.000046189181


*** tstop() called on gimli.chem.bethel.edu at Mon Jan 25 16:26:33 2016
Module time:
	user time   =      42.40 seconds =       0.71 minutes
	system time =       0.51 seconds =       0.01 minutes
	total time  =         11 seconds =       0.18 minutes
Total time:
	user time   =    1326.75 seconds =      22.11 minutes
	system time =      12.89 seconds =       0.21 minutes
	total time  =        340 seconds =       5.67 minutes
CURRENT ENERGY: -308.4136960497

			-----------------------------------------
			 OPTKING 2.0: for geometry optimizations 
			  - R.A. King,  Bethel University        
			-----------------------------------------

	Previous internal coordinate definitions found.
	---Fragment 1 Geometry and Gradient---
	 C           0.3979137363       -1.5230753812        1.6907820119
	 C          -2.0512908860       -2.4903746528        1.8038583371
	 C          -3.9283241712       -1.5608148631        0.1910039538
	 C          -3.3429848497        0.3476074233       -1.5421429721
	 C          -0.8986846376        1.3257426649       -1.6679948673
	 C           1.0043285705        0.4002911053       -0.0498416161
	 H           1.8677483774       -2.2428529079        2.9453899407
	 H          -4.8014474140        1.0800480790       -2.8058341722
	 H          -0.4341996883        2.8144617532       -3.0172817754
	 H          -2.4981852074       -3.9804321041        3.1605146927
	 H          -5.8442903794       -2.3225613364        0.2845253493
	 C           3.5180797686        1.3990788679       -0.1723337867
	 C           5.6518370601        2.2411678032       -0.2705223626
	 H           7.5325706668        2.9888697607       -0.3626201474
	            -0.0000545330       -0.0000582251        0.0000323061
	             0.0000210987        0.0000010572        0.0000049782
	            -0.0000380214       -0.0000144271        0.0000064487
	             0.0000190308        0.0000182394       -0.0000126138
	            -0.0000754749       -0.0000195232       -0.0000151636
	             0.0001327262        0.0000364194        0.0000359030
	             0.0000095992        0.0000140945       -0.0000126505
	             0.0000108198       -0.0000008625        0.0000043869
	             0.0000141006       -0.0000039965        0.0000074513
	             0.0000087493        0.0000082703       -0.0000055603
	             0.0000218791        0.0000086123       -0.0000028674
	            -0.0000805015        0.0001066794       -0.0001438386
	             0.0000563966       -0.0001251946        0.0001466159
	            -0.0000301973        0.0000351246       -0.0000461892

	---Fragment 1 Intrafragment Coordinates---
	 - Coordinate -           - BOHR/RAD -       - ANG/DEG -
	 R(1,2)           =         2.635727	       1.394767
	 R(1,6)           =         2.663991	       1.409723
	 R(1,7)           =         2.062167	       1.091252
	 R(2,3)           =         2.643603	       1.398934
	 R(2,10)          =         2.064098	       1.092274
	 R(3,4)           =         2.643576	       1.398920
	 R(3,11)          =         2.063960	       1.092201
	 R(4,5)           =         2.635752	       1.394780
	 R(4,8)           =         2.064097	       1.092273
	 R(5,6)           =         2.663896	       1.409673
	 R(5,9)           =         2.062185	       1.091261
	 R(6,12)          =         2.707679	       1.432842
	 R(12,13)         =         2.296013	       1.214998
	 R(13,14)         =         2.026006	       1.072116
	 B(1,2,3)         =         2.099672	     120.302336
	 B(1,2,10)        =         2.087843	     119.624608
	 B(1,6,5)         =         2.077275	     119.019072
	 B(1,6,12)        =         2.102741	     120.478165
	 B(2,1,6)         =         2.099625	     120.299629
	 B(2,1,7)         =         2.103803	     120.539040
	 B(2,3,4)         =         2.090487	     119.776099
	 B(2,3,11)        =         2.096356	     120.112371
	 B(3,2,10)        =         2.095670	     120.073055
	 B(3,4,5)         =         2.099649	     120.301009
	 B(3,4,8)         =         2.095660	     120.072455
	 B(4,3,11)        =         2.096342	     120.111530
	 B(4,5,6)         =         2.099663	     120.301856
	 B(4,5,9)         =         2.103686	     120.532319
	 B(5,4,8)         =         2.087877	     119.626536
	 B(5,6,12)        =         2.103170	     120.502762
	 B(6,1,7)         =         2.079758	     119.161332
	 B(6,5,9)         =         2.079836	     119.165825
	 L(6,12,13)       =         3.138204	     179.805830
	 l(6,12,13)       =         3.141593	     180.000000
	 L(12,13,14)      =         3.137909	     179.788922
	 l(12,13,14)      =         3.141593	     180.000000
	 D(1,2,3,4)       =         0.000041	       0.002321
	 D(1,2,3,11)      =         3.141566	     179.998490
	 D(1,6,5,4)       =         0.000100	       0.005751
	 D(1,6,5,9)       =        -3.141489	    -179.994059
	 D(2,1,6,5)       =        -0.000097	      -0.005585
	 D(2,1,6,12)      =        -3.141494	    -179.994367
	 D(2,3,4,5)       =        -0.000038	      -0.002155
	 D(2,3,4,8)       =         3.141534	     179.996662
	 D(3,2,1,6)       =         0.000028	       0.001587
	 D(3,2,1,7)       =        -3.141557	    -179.997963
	 D(3,4,5,6)       =        -0.000033	      -0.001919
	 D(3,4,5,9)       =         3.141556	     179.997888
	 D(4,3,2,10)      =        -3.141536	    -179.996731
	 D(4,5,6,12)      =         3.141497	     179.994530
	 D(5,4,3,11)      =        -3.141563	    -179.998324
	 D(5,6,1,7)       =         3.141487	     179.993971
	 D(6,1,2,10)      =         3.141593	     180.000000
	 D(6,5,4,8)       =         3.141593	     180.000000
	 D(7,1,2,10)      =         0.000019	       0.001093
	 D(7,1,6,12)      =         0.000091	       0.005189
	 D(8,4,3,11)      =         0.000000	       0.000000
	 D(8,4,5,9)       =        -0.000016	      -0.000935
	 D(9,5,6,12)      =        -0.000092	      -0.005280
	 D(10,2,3,11)     =        -0.000000	      -0.000000

	Current energy   :      -308.4136960497

	Energy change for the previous step:
		Projected    :        -0.0000009901
		Actual       :        -0.0000005954

	Performing BFGS update.
	Previous computed or guess Hessian on step 1.
	Steps to be used in Hessian update: 4 3
	Taking RFO optimization step.
	Going to follow RFO solution 1.
	Using RFO vector 1.
	Norm of target step-size    0.00517
	Projected energy change by RFO approximation:        -0.0000045354

	Back-transformation to cartesian coordinates...
	Successfully converged to displaced geometry.

	--- Internal Coordinate Step in ANG or DEG, aJ/ANG or AJ/DEG ---
	 ---------------------------------------------------------------------------
	   Coordinate                Previous        Force       Change         New 
	   ----------                --------       ------       ------       ------
	    1 R(1,2)          =      1.394767     0.000158     0.000033     1.394800
	    2 R(1,6)          =      1.409723    -0.000341    -0.000073     1.409651
	    3 R(1,7)          =      1.091252     0.000053     0.000014     1.091266
	    4 R(2,3)          =      1.398934    -0.000097    -0.000012     1.398922
	    5 R(2,10)         =      1.092274     0.000090    -0.000001     1.092272
	    6 R(3,4)          =      1.398920    -0.000111    -0.000011     1.398909
	    7 R(3,11)         =      1.092201     0.000185     0.000030     1.092231
	    8 R(4,5)          =      1.394780     0.000181     0.000033     1.394813
	    9 R(4,8)          =      1.092273     0.000083     0.000003     1.092277
	   10 R(5,6)          =      1.409673    -0.000241    -0.000049     1.409623
	   11 R(5,9)          =      1.091261     0.000043     0.000004     1.091266
	   12 R(6,12)         =      1.432842     0.000379     0.000087     1.432929
	   13 R(12,13)        =      1.214998     0.000127     0.000010     1.215007
	   14 R(13,14)        =      1.072116     0.000117     0.000029     1.072145
	   15 B(1,2,3)        =    120.302336    -0.000000    -0.003963   120.298373
	   16 B(1,2,10)       =    119.624608     0.000001     0.005229   119.629838
	   17 B(1,6,5)        =    119.019072     0.000002     0.008940   119.028012
	   18 B(1,6,12)       =    120.478165     0.000000     0.005687   120.483852
	   19 B(2,1,6)        =    120.299629    -0.000001    -0.002168   120.297461
	   20 B(2,1,7)        =    120.539040    -0.000001    -0.009531   120.529508
	   21 B(2,3,4)        =    119.776099     0.000000     0.003895   119.779993
	   22 B(2,3,11)       =    120.112371    -0.000000    -0.000975   120.111396
	   23 B(3,2,10)       =    120.073055    -0.000000    -0.001265   120.071790
	   24 B(3,4,5)        =    120.301009    -0.000000    -0.000830   120.300179
	   25 B(3,4,8)        =    120.072455    -0.000000    -0.002751   120.069703
	   26 B(4,3,11)       =    120.111530    -0.000000    -0.002918   120.108612
	   27 B(4,5,6)        =    120.301856    -0.000001    -0.005868   120.295988
	   28 B(4,5,9)        =    120.532319    -0.000001    -0.003587   120.528732
	   29 B(5,4,8)        =    119.626536     0.000000     0.003582   119.630118
	   30 B(5,6,12)       =    120.502762    -0.000002    -0.014616   120.488146
	   31 B(6,1,7)        =    119.161332     0.000002     0.011702   119.173033
	   32 B(6,5,9)        =    119.165825     0.000002     0.009457   119.175282
	   33 L(6,12,13)      =    179.805830     0.000014     0.196101   180.001931
	   34 l(6,12,13)      =    180.000000     0.000000     0.000725   180.000725
	   35 L(12,13,14)     =    179.788922     0.000010     0.210786   179.999708
	   36 l(12,13,14)     =    180.000000    -0.000000    -0.000992   179.999008
	   37 D(1,2,3,4)      =      0.002321    -0.000000    -0.009391    -0.007070
	   38 D(1,2,3,11)     =    179.998490     0.000000     0.004831   180.003320
	   39 D(1,6,5,4)      =      0.005751    -0.000000    -0.023025    -0.017274
	   40 D(1,6,5,9)      =   -179.994059    -0.000000    -0.021266  -180.015325
	   41 D(2,1,6,5)      =     -0.005585     0.000000     0.022542     0.016957
	   42 D(2,1,6,12)     =   -179.994367    -0.000000    -0.017901  -180.012268
	   43 D(2,3,4,5)      =     -0.002155     0.000000     0.008907     0.006751
	   44 D(2,3,4,8)      =    179.996662     0.000000     0.010670   180.007332
	   45 D(3,2,1,6)      =      0.001587    -0.000000    -0.006486    -0.004898
	   46 D(3,2,1,7)      =   -179.997963    -0.000000    -0.005397  -180.003360
	   47 D(3,4,5,6)      =     -0.001919     0.000000     0.007453     0.005535
	   48 D(3,4,5,9)      =    179.997888     0.000000     0.005671   180.003559
	   49 D(4,3,2,10)     =   -179.996731    -0.000000    -0.010439  -180.007169
	   50 D(4,5,6,12)     =    179.994530     0.000000     0.017422   180.011952
	   51 D(5,4,3,11)     =   -179.998324    -0.000000    -0.005315  -180.003639
	   52 D(5,6,1,7)      =    179.993971     0.000000     0.021468   180.015440
	   53 D(6,1,2,10)     =    180.000000    -0.000000    -0.004799   179.995201
	   54 D(6,5,4,8)      =    180.000000     0.000000     0.004957   180.004957
	   55 D(7,1,2,10)     =      0.001093    -0.000000    -0.004354    -0.003261
	   56 D(7,1,6,12)     =      0.005189    -0.000000    -0.018975    -0.013785
	   57 D(8,4,3,11)     =      0.000000    -0.000000    -0.003058    -0.003058
	   58 D(8,4,5,9)      =     -0.000935     0.000000     0.003916     0.002981
	   59 D(9,5,6,12)     =     -0.005280     0.000000     0.019181     0.013901
	   60 D(10,2,3,11)    =      0.000000     0.000000     0.003221     0.003221
	 ---------------------------------------------------------------------------

  ==> Convergence Check <==

  Measures of convergence in internal coordinates in au.
  Criteria marked as inactive (o), active & met (*), and active & unmet ( ).
  ---------------------------------------------------------------------------------------------
   Step     Total Energy     Delta E     MAX Force     RMS Force      MAX Disp      RMS Disp   
  ---------------------------------------------------------------------------------------------
    Convergence Criteria    1.00e-06 *    3.00e-04 *             o    1.20e-03 *             o
  ---------------------------------------------------------------------------------------------
      5    -308.41369605   -5.95e-07 *    1.84e-04 *    3.21e-05 o    3.68e-03      6.68e-04 o  ~
  ---------------------------------------------------------------------------------------------


  **** Optimization is complete! (in 5 steps) ****

  ==> Optimization Summary <==

  Measures of convergence in internal coordinates in au.
  --------------------------------------------------------------------------------------------------------------- ~
   Step         Total Energy             Delta E       MAX Force       RMS Force        MAX Disp        RMS Disp  ~
  --------------------------------------------------------------------------------------------------------------- ~
      1    -308.412665205957   -308.412665205957      0.02269317      0.00427875      0.03101548      0.00890134  ~
      2    -308.413669643791     -0.001004437833      0.00207542      0.00047857      0.00516411      0.00154024  ~
      3    -308.413693117352     -0.000023473562      0.00040017      0.00011841      0.00218346      0.00063808  ~
      4    -308.413695454229     -0.000002336877      0.00026859      0.00004412      0.00159061      0.00029823  ~
      5    -308.413696049675     -0.000000595446      0.00018443      0.00003207      0.00367891      0.00066808  ~
  --------------------------------------------------------------------------------------------------------------- ~

	Writing optimization data to binary file.
	Final energy is   -308.4136960496746
	Final (previous) structure:
	Cartesian Geometry (in Angstrom)
	    C     0.2105668802  -0.8059767787   0.8947233054
	    C    -1.0854963851  -1.3178495071   0.9545607195
	    C    -2.0787796194  -0.8259476524   0.1010749391
	    C    -1.7690313911   0.1839459260  -0.8160669132
	    C    -0.4755634279   0.7015528027  -0.8826648678
	    C     0.5314677894   0.2118249297  -0.0263750473
	    H     0.9883698727  -1.1868666411   1.5586332270
	    H    -2.5408165397   0.5715368276  -1.4847834950
	    H    -0.2297685790   1.4893490143  -1.5966767474
	    H    -1.3219826746  -2.1063539498   1.6724723428
	    H    -3.0926652692  -1.2290465248   0.1505643301
	    C     1.8616876315   0.7403606499  -0.0911951122
	    C     2.9908233589   1.1859749221  -0.1431542687
	    H     3.9860647190   1.5816417568  -0.1918903174
	Saving final (previous) structure.
			--------------------------
			 OPTKING Finished Execution 
			--------------------------

    Final optimized geometry and variables:
    Molecular point group: c1
    Full point group: C1

    Geometry (in Angstrom), charge = 0, multiplicity = 1:

    C            0.210566880233    -0.805976778693     0.894723305400
    C           -1.085496385052    -1.317849507122     0.954560719509
    C           -2.078779619360    -0.825947652355     0.101074939099
    C           -1.769031391113     0.183945925970    -0.816066913224
    C           -0.475563427912     0.701552802740    -0.882664867812
    C            0.531467789449     0.211824929742    -0.026375047256
    H            0.988369872704    -1.186866641061     1.558633227023
    H           -2.540816539718     0.571536827597    -1.484783495021
    H           -0.229768579049     1.489349014257    -1.596676747439
    H           -1.321982674604    -2.106353949808     1.672472342810
    H           -3.092665269161    -1.229046524758     0.150564330107
    C            1.861687631540     0.740360649886    -0.091195112203
    C            2.990823358865     1.185974922071    -0.143154268711
    H            3.986064718973     1.581641756826    -0.191890317404

	Cleaning optimization helper files.

*** PSI4 exiting successfully. Buy a developer a beer!
