
    -----------------------------------------------------------------------
          Psi4: An Open-Source Ab Initio Electronic Structure Package
                               Psi4 1.1rc3.dev5 

                         Git: Rev {master} 3fbd859 


    R. M. Parrish, L. A. Burns, D. G. A. Smith, A. C. Simmonett,
    A. E. DePrince III, E. G. Hohenstein, U. Bozkaya, A. Yu. Sokolov,
    R. Di Remigio, R. M. Richard, J. F. Gonthier, A. M. James,
    H. R. McAlexander, A. Kumar, M. Saitow, X. Wang, B. P. Pritchard,
    P. Verma, H. F. Schaefer III, K. Patkowski, R. A. King, E. F. Valeev,
    F. A. Evangelista, J. M. Turney, T. D. Crawford, and C. D. Sherrill,
    J. Chem. Theory Comput. in press (2017).
    (doi: 10.1021/acs.jctc.7b00174)

    -----------------------------------------------------------------------


    Psi4 started on: Monday, 15 May 2017 03:37PM

    Process ID:  14914
    PSIDATADIR: /home/psilocaluser/gits/hrw-direct/objdir4/stage/usr/local/psi4/share/psi4
    Memory:     500.0 MiB
    Threads:    1
    
  ==> Input File <==

--------------------------------------------------------------------------
#! SCF DZ allene geometry optimization, with Cartesian input, first in c2v symmetry,
#! then in Cs symmetry from a starting point with a non-linear central bond angle.

nucenergy =   59.2532646680161                                                                 #TEST
refenergy = -115.8302823663                                                                    #TEST

# starting point is D2d/c2v
molecule allene {
 H  0.0  -0.92   -1.8
 H  0.0   0.92   -1.8
 C  0.0   0.00   -1.3
 C  0.0   0.00    0.0
 C  0.0   0.00    1.3
 H  0.92  0.00    1.8
 H -0.92  0.00    1.8
}

set {
  basis DZ
  e_convergence 10
  d_convergence 10
  scf_type pk
}

thisenergy = optimize('scf')

compare_values(nucenergy, allene.nuclear_repulsion_energy(), 2, "Nuclear repulsion energy")    #TEST
compare_values(refenergy, thisenergy, 6, "Reference energy")                                   #TEST

# central C-C-C bond angle starts around 170 degrees to test the dynamic addition
# of new linear bending coordinates, and the redefinition of dihedrals.
molecule allene {
 H  0.0  -0.92   -1.8
 H  0.0   0.92   -1.8
 C  0.0   0.00   -1.3
 C  0.0   0.10    0.0
 C  0.0   0.00    1.3
 H  0.92  0.00    1.8
 H -0.92  0.00    1.8
}

thisenergy = optimize('scf')

compare_values(nucenergy, allene.nuclear_repulsion_energy(), 2, "Nuclear repulsion energy")    #TEST
compare_values(refenergy, thisenergy, 6, "Reference energy")                                   #TEST
--------------------------------------------------------------------------
gradient() will perform analytic gradient computation.

*** tstart() called on psinet
*** at Mon May 15 15:37:52 2017

   => Loading Basis Set <=

    Name: DZ
    Role: ORBITAL
    Keyword: BASIS
    atoms 1-2, 6-7 entry H          line    11 file /home/psilocaluser/gits/hrw-direct/objdir4/stage/usr/local/psi4/share/psi4/basis/dz.gbs 
    atoms 3-5      entry C          line    62 file /home/psilocaluser/gits/hrw-direct/objdir4/stage/usr/local/psi4/share/psi4/basis/dz.gbs 

    There are an even number of electrons - assuming singlet.
    Specify the multiplicity in the molecule input block.


         ---------------------------------------------------------
                                   SCF
            by Justin Turney, Rob Parrish, and Andy Simmonett
                              RHF Reference
                        1 Threads,    500 MiB Core
         ---------------------------------------------------------

  ==> Geometry <==

    Molecular point group: c2v
    Full point group: D2d

    Geometry (in Angstrom), charge = 0, multiplicity = 1:

       Center              X                  Y                   Z               Mass       
    ------------   -----------------  -----------------  -----------------  -----------------
           H          0.000000000000    -0.920000000000    -1.800000000000     1.007825032070
           H         -0.000000000000     0.920000000000    -1.800000000000     1.007825032070
           C         -0.000000000000    -0.000000000000    -1.300000000000    12.000000000000
           C         -0.000000000000    -0.000000000000     0.000000000000    12.000000000000
           C         -0.000000000000    -0.000000000000     1.300000000000    12.000000000000
           H          0.920000000000     0.000000000000     1.800000000000     1.007825032070
           H         -0.920000000000    -0.000000000000     1.800000000000     1.007825032070

  Running in c2v symmetry.

  Rotational constants: A =      4.94055  B =      0.30469  C =      0.30469 [cm^-1]
  Rotational constants: A = 148114.10171  B =   9134.32530  C =   9134.32530 [MHz]
  Nuclear repulsion =   60.102769340108352

  Charge       = 0
  Multiplicity = 1
  Electrons    = 22
  Nalpha       = 11
  Nbeta        = 11

  ==> Algorithm <==

  SCF Algorithm Type is PK.
  DIIS enabled.
  MOM disabled.
  Fractional occupation disabled.
  Guess Type is SAD.
  Energy threshold   = 1.00e-10
  Density threshold  = 1.00e-10
  Integral threshold = 0.00e+00

  ==> Primary Basis <==

  Basis Set: DZ
    Blend: DZ
    Number of shells: 26
    Number of basis function: 38
    Number of Cartesian functions: 38
    Spherical Harmonics?: false
    Max angular momentum: 1

  ==> Pre-Iterations <==

   -------------------------------------------------------
    Irrep   Nso     Nmo     Nalpha   Nbeta   Ndocc  Nsocc
   -------------------------------------------------------
     A1        22      22       0       0       0       0
     A2         0       0       0       0       0       0
     B1         8       8       0       0       0       0
     B2         8       8       0       0       0       0
   -------------------------------------------------------
    Total      38      38      11      11      11       0
   -------------------------------------------------------

  ==> Integral Setup <==

  Using in-core PK algorithm.
   Calculation information:
      Number of atoms:                   7
      Number of AO shells:              26
      Number of primitives:             58
      Number of atomic orbitals:        38
      Number of basis functions:        38

      Integral cutoff                 1.00e-12
      Number of threads:                 1

  Performing in-core PK
  Using 549822 doubles for integral storage.
  We computed 59991 shell quartets total.
  Whereas there are 61776 unique shell quartets.
  ==> DiskJK: Disk-Based J/K Matrices <==

    J tasked:                  Yes
    K tasked:                  Yes
    wK tasked:                  No
    Memory (MB):               375
    Schwarz Cutoff:          1E-12

    OpenMP threads:              1
  Minimum eigenvalue in the overlap matrix is 3.9771365849E-03.
  Using Symmetric Orthogonalization.

  SCF Guess: Superposition of Atomic Densities via on-the-fly atomic UHF.

  ==> Iterations <==

                        Total Energy        Delta E     RMS |[F,P]|

   @RHF iter   0:  -117.56487994585403   -1.17565e+02   1.36583e-01 
   @RHF iter   1:  -115.78126316881681    1.78362e+00   9.00707e-03 
   @RHF iter   2:  -115.82154758030939   -4.02844e-02   2.96088e-03 DIIS
   @RHF iter   3:  -115.82540533598981   -3.85776e-03   1.29839e-03 DIIS
   @RHF iter   4:  -115.82618443006874   -7.79094e-04   2.29627e-04 DIIS
   @RHF iter   5:  -115.82621731007904   -3.28800e-05   5.82643e-05 DIIS
   @RHF iter   6:  -115.82622051526117   -3.20518e-06   1.74616e-05 DIIS
   @RHF iter   7:  -115.82622075375713   -2.38496e-07   4.93025e-06 DIIS
   @RHF iter   8:  -115.82622077179840   -1.80413e-08   1.32487e-06 DIIS
   @RHF iter   9:  -115.82622077280931   -1.01090e-09   4.34414e-07 DIIS
   @RHF iter  10:  -115.82622077292800   -1.18689e-10   3.24435e-08 DIIS
   @RHF iter  11:  -115.82622077292901   -1.00897e-12   4.32532e-09 DIIS
   @RHF iter  12:  -115.82622077292899    1.42109e-14   5.41116e-10 DIIS
   @RHF iter  13:  -115.82622077292901   -1.42109e-14   1.28217e-10 DIIS
   @RHF iter  14:  -115.82622077292891    9.94760e-14   4.06764e-11 DIIS

  ==> Post-Iterations <==

    Orbital Energies (a.u.)
    -----------------------

    Doubly Occupied:                                                      

       1A1   -11.279460     2A1   -11.239770     3A1   -11.239693  
       4A1    -1.089608     5A1    -0.975366     6A1    -0.715695  
       1B2    -0.631574     1B1    -0.631574     7A1    -0.626258  
       2B1    -0.379389     2B2    -0.379389  

    Virtual:                                                              

       3B1     0.166875     3B2     0.166875     8A1     0.263841  
       9A1     0.295261    10A1     0.316293    11A1     0.336406  
       4B2     0.405064     4B1     0.405064     5B2     0.511198  
       5B1     0.511198    12A1     0.531029    13A1     0.561402  
       6B2     0.607919     6B1     0.607919     7B1     0.655278  
       7B2     0.655278    14A1     0.783108    15A1     1.177052  
      16A1     1.185696    17A1     1.327181    18A1     1.379750  
      19A1     1.459423     8B2     1.604317     8B1     1.604317  
      20A1    23.684784    21A1    24.049073    22A1    24.118946  

    Final Occupation by Irrep:
             A1    A2    B1    B2 
    DOCC [     7,    0,    2,    2 ]

  Energy converged.

  @RHF Final Energy:  -115.82622077292891

   => Energetics <=

    Nuclear Repulsion Energy =             60.1027693401083525
    One-Electron Energy =                -273.4824305269171987
    Two-Electron Energy =                  97.5534404138799403
    DFT Exchange-Correlation Energy =       0.0000000000000000
    Empirical Dispersion Energy =           0.0000000000000000
    PCM Polarization Energy =               0.0000000000000000
    EFP Energy =                            0.0000000000000000
    Total Energy =                       -115.8262207729289059



Properties will be evaluated at   0.000000,   0.000000,   0.000000 Bohr

Properties computed using the SCF density matrix

  Nuclear Dipole Moment: (a.u.)
     X:     0.0000      Y:     0.0000      Z:     0.0000

  Electronic Dipole Moment: (a.u.)
     X:     0.0000      Y:     0.0000      Z:    -0.0000

  Dipole Moment: (a.u.)
     X:     0.0000      Y:     0.0000      Z:    -0.0000     Total:     0.0000

  Dipole Moment: (Debye)
     X:     0.0000      Y:     0.0000      Z:    -0.0000     Total:     0.0000


*** tstop() called on psinet at Mon May 15 15:37:53 2017
Module time:
	user time   =       0.75 seconds =       0.01 minutes
	system time =       0.02 seconds =       0.00 minutes
	total time  =          1 seconds =       0.02 minutes
Total time:
	user time   =       0.75 seconds =       0.01 minutes
	system time =       0.02 seconds =       0.00 minutes
	total time  =          1 seconds =       0.02 minutes

*** tstart() called on psinet
*** at Mon May 15 15:37:53 2017


         ------------------------------------------------------------
                                   SCF GRAD                          
                          Rob Parrish, Justin Turney,                
                       Andy Simmonett, and Alex Sokolov              
         ------------------------------------------------------------

  ==> Geometry <==

    Molecular point group: c2v
    Full point group: D2d

    Geometry (in Angstrom), charge = 0, multiplicity = 1:

       Center              X                  Y                   Z               Mass       
    ------------   -----------------  -----------------  -----------------  -----------------
           H          0.000000000000    -0.920000000000    -1.800000000000     1.007825032070
           H         -0.000000000000     0.920000000000    -1.800000000000     1.007825032070
           C         -0.000000000000    -0.000000000000    -1.300000000000    12.000000000000
           C         -0.000000000000    -0.000000000000     0.000000000000    12.000000000000
           C         -0.000000000000    -0.000000000000     1.300000000000    12.000000000000
           H          0.920000000000     0.000000000000     1.800000000000     1.007825032070
           H         -0.920000000000    -0.000000000000     1.800000000000     1.007825032070

  Nuclear repulsion =   60.102769340108352

  ==> Basis Set <==

  Basis Set: DZ
    Blend: DZ
    Number of shells: 26
    Number of basis function: 38
    Number of Cartesian functions: 38
    Spherical Harmonics?: false
    Max angular momentum: 1

  ==> DirectJKGrad: Integral-Direct SCF Gradients <==

    Gradient:                    1
    J tasked:                  Yes
    K tasked:                  Yes
    wK tasked:                  No
    Integrals threads:           1
    Schwarz Cutoff:          0E+00


  -Total Gradient:
     Atom            X                  Y                   Z
    ------   -----------------  -----------------  -----------------
       1       -0.000000000000     0.015120318802     0.017785619038
       2        0.000000000000    -0.015120318802     0.017785619038
       3        0.000000000000    -0.000000000000    -0.017056535832
       4        0.000000000000    -0.000000000000     0.000000000030
       5        0.000000000000     0.000000000000     0.017056535776
       6       -0.015120318783    -0.000000000000    -0.017785619025
       7        0.015120318783     0.000000000000    -0.017785619025


*** tstop() called on psinet at Mon May 15 15:37:53 2017
Module time:
	user time   =       0.62 seconds =       0.01 minutes
	system time =       0.00 seconds =       0.00 minutes
	total time  =          0 seconds =       0.00 minutes
Total time:
	user time   =       1.37 seconds =       0.02 minutes
	system time =       0.02 seconds =       0.00 minutes
	total time  =          1 seconds =       0.02 minutes

			-----------------------------------------
			 OPTKING 2.0: for geometry optimizations 
			  - R.A. King,  Bethel University        
			-----------------------------------------

	Internal coordinates to be generated automatically.
	Detected frag 1 with atoms:  1 2 3 4 5 6 7
	---Fragment 1 Bond Connectivity---
	 1 : 3
	 2 : 3
	 3 : 1 2 4
	 4 : 3 5
	 5 : 4 6 7
	 6 : 5
	 7 : 5

trying 1 3 5 6
passed phi is    1.57080
trying 1 3 5 7
passed phi is   -1.57080
trying 2 3 5 6
passed phi is   -1.57080
trying 2 3 5 7
passed phi is    1.57080
	---Fragment 1 Geometry and Gradient---
	 H           0.0000000000       -1.7385480423       -3.4015070392
	 H          -0.0000000000        1.7385480423       -3.4015070392
	 C          -0.0000000000       -0.0000000000       -2.4566439728
	 C          -0.0000000000       -0.0000000000        0.0000000000
	 C          -0.0000000000       -0.0000000000        2.4566439728
	 H           1.7385480423        0.0000000000        3.4015070392
	 H          -1.7385480423       -0.0000000000        3.4015070392
	            -0.0000000000        0.0151203188        0.0177856190
	             0.0000000000       -0.0151203188        0.0177856190
	             0.0000000000       -0.0000000000       -0.0170565358
	             0.0000000000       -0.0000000000        0.0000000000
	             0.0000000000        0.0000000000        0.0170565358
	            -0.0151203188       -0.0000000000       -0.0177856190
	             0.0151203188        0.0000000000       -0.0177856190

	Previous optimization step data not found.  Starting new optimization.

	---Fragment 1 Intrafragment Coordinates---
	 - Coordinate -           - BOHR/RAD -       - ANG/DEG -
	 R(1,3)           =         1.978716	       1.047091
	 R(2,3)           =         1.978716	       1.047091
	 R(3,4)           =         2.456644	       1.300000
	 R(4,5)           =         2.456644	       1.300000
	 R(5,6)           =         1.978716	       1.047091
	 R(5,7)           =         1.978716	       1.047091
	 B(1,3,2)         =         2.145948	     122.953763
	 B(1,3,4)         =         2.068619	     118.523119
	 B(2,3,4)         =         2.068619	     118.523119
	 L(3,4,5)         =         3.141593	     180.000000
	 l(3,4,5)         =         3.141593	     180.000000
	 B(4,5,6)         =         2.068619	     118.523119
	 B(4,5,7)         =         2.068619	     118.523119
	 B(6,5,7)         =         2.145948	     122.953763
	 D(1,3,5,6)       =         1.570796	      90.000000
	 D(1,3,5,7)       =        -1.570796	     -90.000000
	 D(2,3,5,6)       =        -1.570796	     -90.000000
	 D(2,3,5,7)       =         1.570796	      90.000000

	Current energy   :      -115.8262207729

	Generating empirical Hessian (Schlegel '84) for each fragment.
	Taking RFO optimization step.
	Going to follow RFO solution 1.
	Using RFO vector 1.
	Norm of target step-size    0.16073
	Projected energy change by RFO approximation:        -0.0066592187

	Back-transformation to cartesian coordinates...
	Successfully converged to displaced geometry.

	--- Internal Coordinate Step in ANG or DEG, aJ/ANG or AJ/DEG ---
	 ---------------------------------------------------------------------------
	   Coordinate                Previous        Force       Change         New 
	   ----------                --------       ------       ------       ------
	    1 R(1,3)          =      1.047091     0.179422     0.028064     1.075155
	    2 R(2,3)          =      1.047091     0.179422     0.028064     1.075155
	    3 R(3,4)          =      1.300000     0.152537     0.014413     1.314413
	    4 R(4,5)          =      1.300000     0.152537     0.014413     1.314413
	    5 R(5,6)          =      1.047091     0.179422     0.028064     1.075155
	    6 R(5,7)          =      1.047091     0.179422     0.028064     1.075155
	    7 B(1,3,2)        =    122.953763    -0.000844    -3.786000   119.167763
	    8 B(1,3,4)        =    118.523119     0.000422     1.893000   120.416118
	    9 B(2,3,4)        =    118.523119     0.000422     1.893000   120.416118
	   10 L(3,4,5)        =    180.000000    -0.000000     0.000000   180.000000
	   11 l(3,4,5)        =    180.000000     0.000000     0.000000   180.000000
	   12 B(4,5,6)        =    118.523119     0.000422     1.893000   120.416118
	   13 B(4,5,7)        =    118.523119     0.000422     1.893000   120.416118
	   14 B(6,5,7)        =    122.953763    -0.000844    -3.786000   119.167763
	   15 D(1,3,5,6)      =     90.000000    -0.000000     0.000000    90.000000
	   16 D(1,3,5,7)      =    -90.000000     0.000000     0.000000   -90.000000
	   17 D(2,3,5,6)      =    -90.000000     0.000000     0.000000   -90.000000
	   18 D(2,3,5,7)      =     90.000000     0.000000     0.000000    90.000000
	 ---------------------------------------------------------------------------
	Successfully symmetrized geometry.

  ==> Convergence Check <==

  Measures of convergence in internal coordinates in au.
  Criteria marked as inactive (o), active & met (*), and active & unmet ( ).
  --------------------------------------------------------------------------------------------- ~
   Step     Total Energy     Delta E     MAX Force     RMS Force      MAX Disp      RMS Disp    ~
  --------------------------------------------------------------------------------------------- ~
    Convergence Criteria    1.00e-06 *    3.00e-04 *             o    1.20e-03 *             o  ~
  --------------------------------------------------------------------------------------------- ~
      1    -115.82622077   -1.16e+02      2.18e-02      1.28e-02 o    6.61e-02      3.79e-02 o  ~
  ---------------------------------------------------------------------------------------------

	Writing optimization data to binary file.
	Structure for next step:
	Cartesian Geometry (in Angstrom)
	    H     0.0000000000  -0.9271828120  -1.8587389034
	    H    -0.0000000000   0.9271828120  -1.8587389034
	    C     0.0000000000   0.0000000000  -1.3144133023
	    C     0.0000000000  -0.0000000000  -0.0000000000
	    C     0.0000000000  -0.0000000000   1.3144133023
	    H     0.9271828119   0.0000000000   1.8587389034
	    H    -0.9271828119  -0.0000000000   1.8587389034
			--------------------------
			 OPTKING Finished Execution 
			--------------------------

    Structure for next step:
    Molecular point group: c2v
    Full point group: D2d

    Geometry (in Angstrom), charge = 0, multiplicity = 1:

    H            0.000000000000    -0.927182811968    -1.858738903444
    H           -0.000000000000     0.927182811968    -1.858738903444
    C            0.000000000000     0.000000000000    -1.314413302287
    C            0.000000000000     0.000000000000    -0.000000000007
    C            0.000000000000     0.000000000000     1.314413302296
    H            0.927182811948     0.000000000000     1.858738903430
    H           -0.927182811948    -0.000000000000     1.858738903430

gradient() will perform analytic gradient computation.

*** tstart() called on psinet
*** at Mon May 15 15:37:53 2017

   => Loading Basis Set <=

    Name: DZ
    Role: ORBITAL
    Keyword: BASIS
    atoms 1-2, 6-7 entry H          line    11 file /home/psilocaluser/gits/hrw-direct/objdir4/stage/usr/local/psi4/share/psi4/basis/dz.gbs 
    atoms 3-5      entry C          line    62 file /home/psilocaluser/gits/hrw-direct/objdir4/stage/usr/local/psi4/share/psi4/basis/dz.gbs 


         ---------------------------------------------------------
                                   SCF
            by Justin Turney, Rob Parrish, and Andy Simmonett
                              RHF Reference
                        1 Threads,    500 MiB Core
         ---------------------------------------------------------

  ==> Geometry <==

    Molecular point group: c2v
    Full point group: D2d

    Geometry (in Angstrom), charge = 0, multiplicity = 1:

       Center              X                  Y                   Z               Mass       
    ------------   -----------------  -----------------  -----------------  -----------------
           H          0.000000000000    -0.927182811968    -1.858738903444     1.007825032070
           H         -0.000000000000     0.927182811968    -1.858738903444     1.007825032070
           C          0.000000000000     0.000000000000    -1.314413302287    12.000000000000
           C          0.000000000000     0.000000000000    -0.000000000007    12.000000000000
           C          0.000000000000     0.000000000000     1.314413302296    12.000000000000
           H          0.927182811948     0.000000000000     1.858738903430     1.007825032070
           H         -0.927182811948    -0.000000000000     1.858738903430     1.007825032070

  Running in c2v symmetry.

  Rotational constants: A =      4.86430  B =      0.29510  C =      0.29510 [cm^-1]
  Rotational constants: A = 145828.13426  B =   8846.90559  C =   8846.90559 [MHz]
  Nuclear repulsion =   59.109824832220795

  Charge       = 0
  Multiplicity = 1
  Electrons    = 22
  Nalpha       = 11
  Nbeta        = 11

  ==> Algorithm <==

  SCF Algorithm Type is PK.
  DIIS enabled.
  MOM disabled.
  Fractional occupation disabled.
  Guess Type is READ.
  Energy threshold   = 1.00e-10
  Density threshold  = 1.00e-10
  Integral threshold = 0.00e+00

  ==> Primary Basis <==

  Basis Set: DZ
    Blend: DZ
    Number of shells: 26
    Number of basis function: 38
    Number of Cartesian functions: 38
    Spherical Harmonics?: false
    Max angular momentum: 1

  Reading orbitals from file 180, no projection.

  ==> Pre-Iterations <==

   -------------------------------------------------------
    Irrep   Nso     Nmo     Nalpha   Nbeta   Ndocc  Nsocc
   -------------------------------------------------------
     A1        22      22       0       0       0       0
     A2         0       0       0       0       0       0
     B1         8       8       0       0       0       0
     B2         8       8       0       0       0       0
   -------------------------------------------------------
    Total      38      38      11      11      11       0
   -------------------------------------------------------

  ==> Integral Setup <==

  Using in-core PK algorithm.
   Calculation information:
      Number of atoms:                   7
      Number of AO shells:              26
      Number of primitives:             58
      Number of atomic orbitals:        38
      Number of basis functions:        38

      Integral cutoff                 1.00e-12
      Number of threads:                 1

  Performing in-core PK
  Using 549822 doubles for integral storage.
  We computed 59760 shell quartets total.
  Whereas there are 61776 unique shell quartets.
  ==> DiskJK: Disk-Based J/K Matrices <==

    J tasked:                  Yes
    K tasked:                  Yes
    wK tasked:                  No
    Memory (MB):               375
    Schwarz Cutoff:          1E-12

    OpenMP threads:              1
  Minimum eigenvalue in the overlap matrix is 3.9803118027E-03.
  Using Symmetric Orthogonalization.

  SCF Guess: Orbitals guess was supplied from a previous computation.

  ==> Iterations <==

                        Total Energy        Delta E     RMS |[F,P]|

   @RHF iter   0:  -115.76496759377838   -1.15765e+02   2.88264e-03 
   @RHF iter   1:  -115.83000992990296   -6.50423e-02   4.27870e-04 
   @RHF iter   2:  -115.83009595426435   -8.60244e-05   1.37004e-04 DIIS
   @RHF iter   3:  -115.83010229569632   -6.34143e-06   2.68969e-05 DIIS
   @RHF iter   4:  -115.83010277505707   -4.79361e-07   5.75954e-06 DIIS
   @RHF iter   5:  -115.83010279601679   -2.09597e-08   1.59596e-06 DIIS
   @RHF iter   6:  -115.83010279746719   -1.45040e-09   6.45541e-07 DIIS
   @RHF iter   7:  -115.83010279763553   -1.68342e-10   1.02549e-07 DIIS
   @RHF iter   8:  -115.83010279764531   -9.77707e-12   2.76649e-08 DIIS
   @RHF iter   9:  -115.83010279764622   -9.09495e-13   1.73763e-09 DIIS
   @RHF iter  10:  -115.83010279764613    8.52651e-14   1.59169e-10 DIIS
   @RHF iter  11:  -115.83010279764606    7.10543e-14   3.54285e-11 DIIS

  ==> Post-Iterations <==

    Orbital Energies (a.u.)
    -----------------------

    Doubly Occupied:                                                      

       1A1   -11.285257     2A1   -11.249243     3A1   -11.249172  
       4A1    -1.080796     5A1    -0.966034     6A1    -0.716455  
       7A1    -0.627786     1B1    -0.616054     1B2    -0.616054  
       2B1    -0.376961     2B2    -0.376961  

    Virtual:                                                              

       3B2     0.159172     3B1     0.159172     8A1     0.262299  
       9A1     0.294873    10A1     0.308323    11A1     0.337622  
       4B1     0.417277     4B2     0.417277     5B2     0.496752  
       5B1     0.496752    12A1     0.526475    13A1     0.557806  
       6B2     0.595619     6B1     0.595619     7B2     0.653307  
       7B1     0.653307    14A1     0.769532    15A1     1.162265  
      16A1     1.176188    17A1     1.288429    18A1     1.381281  
      19A1     1.474984     8B2     1.541010     8B1     1.541010  
      20A1    23.676760    21A1    24.032385    22A1    24.099839  

    Final Occupation by Irrep:
             A1    A2    B1    B2 
    DOCC [     7,    0,    2,    2 ]

  Energy converged.

  @RHF Final Energy:  -115.83010279764606

   => Energetics <=

    Nuclear Repulsion Energy =             59.1098248322207951
    One-Electron Energy =                -271.5583111377993646
    Two-Electron Energy =                  96.6183835079325064
    DFT Exchange-Correlation Energy =       0.0000000000000000
    Empirical Dispersion Energy =           0.0000000000000000
    PCM Polarization Energy =               0.0000000000000000
    EFP Energy =                            0.0000000000000000
    Total Energy =                       -115.8301027976460631



Properties will be evaluated at   0.000000,   0.000000,   0.000000 Bohr

Properties computed using the SCF density matrix

  Nuclear Dipole Moment: (a.u.)
     X:     0.0000      Y:     0.0000      Z:    -0.0000

  Electronic Dipole Moment: (a.u.)
     X:     0.0000      Y:     0.0000      Z:     0.0000

  Dipole Moment: (a.u.)
     X:     0.0000      Y:     0.0000      Z:    -0.0000     Total:     0.0000

  Dipole Moment: (Debye)
     X:     0.0000      Y:     0.0000      Z:    -0.0000     Total:     0.0000


*** tstop() called on psinet at Mon May 15 15:37:54 2017
Module time:
	user time   =       0.39 seconds =       0.01 minutes
	system time =       0.02 seconds =       0.00 minutes
	total time  =          1 seconds =       0.02 minutes
Total time:
	user time   =       1.78 seconds =       0.03 minutes
	system time =       0.04 seconds =       0.00 minutes
	total time  =          2 seconds =       0.03 minutes

*** tstart() called on psinet
*** at Mon May 15 15:37:54 2017


         ------------------------------------------------------------
                                   SCF GRAD                          
                          Rob Parrish, Justin Turney,                
                       Andy Simmonett, and Alex Sokolov              
         ------------------------------------------------------------

  ==> Geometry <==

    Molecular point group: c2v
    Full point group: D2d

    Geometry (in Angstrom), charge = 0, multiplicity = 1:

       Center              X                  Y                   Z               Mass       
    ------------   -----------------  -----------------  -----------------  -----------------
           H          0.000000000000    -0.927182811968    -1.858738903444     1.007825032070
           H         -0.000000000000     0.927182811968    -1.858738903444     1.007825032070
           C          0.000000000000     0.000000000000    -1.314413302287    12.000000000000
           C          0.000000000000     0.000000000000    -0.000000000007    12.000000000000
           C          0.000000000000     0.000000000000     1.314413302296    12.000000000000
           H          0.927182811948     0.000000000000     1.858738903430     1.007825032070
           H         -0.927182811948    -0.000000000000     1.858738903430     1.007825032070

  Nuclear repulsion =   59.109824832220795

  ==> Basis Set <==

  Basis Set: DZ
    Blend: DZ
    Number of shells: 26
    Number of basis function: 38
    Number of Cartesian functions: 38
    Spherical Harmonics?: false
    Max angular momentum: 1

  ==> DirectJKGrad: Integral-Direct SCF Gradients <==

    Gradient:                    1
    J tasked:                  Yes
    K tasked:                  Yes
    wK tasked:                  No
    Integrals threads:           1
    Schwarz Cutoff:          0E+00


  -Total Gradient:
     Atom            X                  Y                   Z
    ------   -----------------  -----------------  -----------------
       1        0.000000000000    -0.001847163178     0.001454611117
       2       -0.000000000000     0.001847163178     0.001454611117
       3       -0.000000000000     0.000000000000    -0.008793138191
       4        0.000000000000     0.000000000000    -0.000000000030
       5        0.000000000000     0.000000000000     0.008793138244
       6        0.001847163159     0.000000000000    -0.001454611128
       7       -0.001847163159    -0.000000000000    -0.001454611128


*** tstop() called on psinet at Mon May 15 15:37:55 2017
Module time:
	user time   =       0.60 seconds =       0.01 minutes
	system time =       0.00 seconds =       0.00 minutes
	total time  =          1 seconds =       0.02 minutes
Total time:
	user time   =       2.38 seconds =       0.04 minutes
	system time =       0.04 seconds =       0.00 minutes
	total time  =          3 seconds =       0.05 minutes

			-----------------------------------------
			 OPTKING 2.0: for geometry optimizations 
			  - R.A. King,  Bethel University        
			-----------------------------------------

	Previous internal coordinate definitions found.
	---Fragment 1 Geometry and Gradient---
	 H           0.0000000000       -1.7521215897       -3.5125074800
	 H          -0.0000000000        1.7521215897       -3.5125074800
	 C           0.0000000000        0.0000000000       -2.4838811667
	 C           0.0000000000        0.0000000000       -0.0000000000
	 C           0.0000000000        0.0000000000        2.4838811668
	 H           1.7521215897        0.0000000000        3.5125074800
	 H          -1.7521215897       -0.0000000000        3.5125074800
	             0.0000000000       -0.0018471632        0.0014546111
	            -0.0000000000        0.0018471632        0.0014546111
	            -0.0000000000        0.0000000000       -0.0087931382
	             0.0000000000        0.0000000000       -0.0000000000
	             0.0000000000        0.0000000000        0.0087931382
	             0.0018471632        0.0000000000       -0.0014546111
	            -0.0018471632       -0.0000000000       -0.0014546111

	---Fragment 1 Intrafragment Coordinates---
	 - Coordinate -           - BOHR/RAD -       - ANG/DEG -
	 R(1,3)           =         2.031749	       1.075155
	 R(2,3)           =         2.031749	       1.075155
	 R(3,4)           =         2.483881	       1.314413
	 R(4,5)           =         2.483881	       1.314413
	 R(5,6)           =         2.031749	       1.075155
	 R(5,7)           =         2.031749	       1.075155
	 B(1,3,2)         =         2.079870	     119.167763
	 B(1,3,4)         =         2.101658	     120.416118
	 B(2,3,4)         =         2.101658	     120.416118
	 L(3,4,5)         =         3.141593	     180.000000
	 l(3,4,5)         =         3.141593	     180.000000
	 B(4,5,6)         =         2.101658	     120.416118
	 B(4,5,7)         =         2.101658	     120.416118
	 B(6,5,7)         =         2.079870	     119.167763
	 D(1,3,5,6)       =         1.570796	      90.000000
	 D(1,3,5,7)       =        -1.570796	     -90.000000
	 D(2,3,5,6)       =        -1.570796	     -90.000000
	 D(2,3,5,7)       =         1.570796	      90.000000

	Current energy   :      -115.8301027976

	Energy change for the previous step:
		Projected    :        -0.0066592187
		Actual       :        -0.0038820247

	Performing BFGS update.
	Previous computed or guess Hessian on step 1.
	Steps to be used in Hessian update: 1
	Taking RFO optimization step.
	Going to follow RFO solution 1.
	Using RFO vector 1.
	Norm of target step-size    0.03785
	Projected energy change by RFO approximation:         0.0000956501

	Back-transformation to cartesian coordinates...
	Successfully converged to displaced geometry.

	--- Internal Coordinate Step in ANG or DEG, aJ/ANG or AJ/DEG ---
	 ---------------------------------------------------------------------------
	   Coordinate                Previous        Force       Change         New 
	   ----------                --------       ------       ------       ------
	    1 R(1,3)          =      1.075155    -0.007057    -0.000210     1.074945
	    2 R(2,3)          =      1.075155    -0.007057    -0.000210     1.074945
	    3 R(3,4)          =      1.314413    -0.048476    -0.004205     1.310208
	    4 R(4,5)          =      1.314413    -0.048476    -0.004205     1.310208
	    5 R(5,6)          =      1.075155    -0.007057    -0.000210     1.074945
	    6 R(5,7)          =      1.075155    -0.007057    -0.000210     1.074945
	    7 B(1,3,2)        =    119.167763    -0.000226    -1.195407   117.972357
	    8 B(1,3,4)        =    120.416118     0.000113     0.597703   121.013822
	    9 B(2,3,4)        =    120.416118     0.000113     0.597703   121.013822
	   10 L(3,4,5)        =    180.000000     0.000000     0.000000   180.000000
	   11 l(3,4,5)        =    180.000000     0.000000     0.000000   180.000000
	   12 B(4,5,6)        =    120.416118     0.000113     0.597703   121.013822
	   13 B(4,5,7)        =    120.416118     0.000113     0.597703   121.013822
	   14 B(6,5,7)        =    119.167763    -0.000226    -1.195407   117.972357
	   15 D(1,3,5,6)      =     90.000000     0.000000     0.000000    90.000000
	   16 D(1,3,5,7)      =    -90.000000     0.000000     0.000000   -90.000000
	   17 D(2,3,5,6)      =    -90.000000    -0.000000    -0.000000   -90.000000
	   18 D(2,3,5,7)      =     90.000000    -0.000000     0.000000    90.000000
	 ---------------------------------------------------------------------------
	Successfully symmetrized geometry.

  ==> Convergence Check <==

  Measures of convergence in internal coordinates in au.
  Criteria marked as inactive (o), active & met (*), and active & unmet ( ).
  ---------------------------------------------------------------------------------------------
   Step     Total Energy     Delta E     MAX Force     RMS Force      MAX Disp      RMS Disp   
  ---------------------------------------------------------------------------------------------
    Convergence Criteria    1.00e-06 *    3.00e-04 *             o    1.20e-03 *             o
  ---------------------------------------------------------------------------------------------
      2    -115.83010280   -3.88e-03      5.88e-03      2.34e-03 o    2.09e-02      8.92e-03 o  ~
  ---------------------------------------------------------------------------------------------

	Writing optimization data to binary file.
	Structure for next step:
	Cartesian Geometry (in Angstrom)
	    H     0.0000000000  -0.9212738419  -1.8640675130
	    H    -0.0000000000   0.9212738419  -1.8640675130
	    C     0.0000000000  -0.0000000000  -1.3102078173
	    C     0.0000000000  -0.0000000000  -0.0000000000
	    C     0.0000000000   0.0000000000   1.3102078173
	    H     0.9212738419   0.0000000000   1.8640675130
	    H    -0.9212738419  -0.0000000000   1.8640675130
			--------------------------
			 OPTKING Finished Execution 
			--------------------------

    Structure for next step:
    Molecular point group: c2v
    Full point group: D2d

    Geometry (in Angstrom), charge = 0, multiplicity = 1:

    H            0.000000000000    -0.921273841904    -1.864067512961
    H           -0.000000000000     0.921273841904    -1.864067512961
    C            0.000000000000    -0.000000000000    -1.310207817329
    C            0.000000000000    -0.000000000000     0.000000000000
    C            0.000000000000    -0.000000000000     1.310207817330
    H            0.921273841908     0.000000000000     1.864067512953
    H           -0.921273841908    -0.000000000000     1.864067512953

gradient() will perform analytic gradient computation.

*** tstart() called on psinet
*** at Mon May 15 15:37:55 2017

   => Loading Basis Set <=

    Name: DZ
    Role: ORBITAL
    Keyword: BASIS
    atoms 1-2, 6-7 entry H          line    11 file /home/psilocaluser/gits/hrw-direct/objdir4/stage/usr/local/psi4/share/psi4/basis/dz.gbs 
    atoms 3-5      entry C          line    62 file /home/psilocaluser/gits/hrw-direct/objdir4/stage/usr/local/psi4/share/psi4/basis/dz.gbs 


         ---------------------------------------------------------
                                   SCF
            by Justin Turney, Rob Parrish, and Andy Simmonett
                              RHF Reference
                        1 Threads,    500 MiB Core
         ---------------------------------------------------------

  ==> Geometry <==

    Molecular point group: c2v
    Full point group: D2d

    Geometry (in Angstrom), charge = 0, multiplicity = 1:

       Center              X                  Y                   Z               Mass       
    ------------   -----------------  -----------------  -----------------  -----------------
           H          0.000000000000    -0.921273841904    -1.864067512961     1.007825032070
           H         -0.000000000000     0.921273841904    -1.864067512961     1.007825032070
           C          0.000000000000    -0.000000000000    -1.310207817329    12.000000000000
           C          0.000000000000    -0.000000000000     0.000000000000    12.000000000000
           C          0.000000000000    -0.000000000000     1.310207817330    12.000000000000
           H          0.921273841908     0.000000000000     1.864067512953     1.007825032070
           H         -0.921273841908    -0.000000000000     1.864067512953     1.007825032070

  Running in c2v symmetry.

  Rotational constants: A =      4.92690  B =      0.29617  C =      0.29617 [cm^-1]
  Rotational constants: A = 147704.79125  B =   8879.07278  C =   8879.07278 [MHz]
  Nuclear repulsion =   59.225468291007950

  Charge       = 0
  Multiplicity = 1
  Electrons    = 22
  Nalpha       = 11
  Nbeta        = 11

  ==> Algorithm <==

  SCF Algorithm Type is PK.
  DIIS enabled.
  MOM disabled.
  Fractional occupation disabled.
  Guess Type is READ.
  Energy threshold   = 1.00e-10
  Density threshold  = 1.00e-10
  Integral threshold = 0.00e+00

  ==> Primary Basis <==

  Basis Set: DZ
    Blend: DZ
    Number of shells: 26
    Number of basis function: 38
    Number of Cartesian functions: 38
    Spherical Harmonics?: false
    Max angular momentum: 1

  Reading orbitals from file 180, no projection.

  ==> Pre-Iterations <==

   -------------------------------------------------------
    Irrep   Nso     Nmo     Nalpha   Nbeta   Ndocc  Nsocc
   -------------------------------------------------------
     A1        22      22       0       0       0       0
     A2         0       0       0       0       0       0
     B1         8       8       0       0       0       0
     B2         8       8       0       0       0       0
   -------------------------------------------------------
    Total      38      38      11      11      11       0
   -------------------------------------------------------

  ==> Integral Setup <==

  Using in-core PK algorithm.
   Calculation information:
      Number of atoms:                   7
      Number of AO shells:              26
      Number of primitives:             58
      Number of atomic orbitals:        38
      Number of basis functions:        38

      Integral cutoff                 1.00e-12
      Number of threads:                 1

  Performing in-core PK
  Using 549822 doubles for integral storage.
  We computed 59773 shell quartets total.
  Whereas there are 61776 unique shell quartets.
  ==> DiskJK: Disk-Based J/K Matrices <==

    J tasked:                  Yes
    K tasked:                  Yes
    wK tasked:                  No
    Memory (MB):               375
    Schwarz Cutoff:          1E-12

    OpenMP threads:              1
  Minimum eigenvalue in the overlap matrix is 3.9651088925E-03.
  Using Symmetric Orthogonalization.

  SCF Guess: Orbitals guess was supplied from a previous computation.

  ==> Iterations <==

                        Total Energy        Delta E     RMS |[F,P]|

   @RHF iter   0:  -115.83707000531538   -1.15837e+02   6.35760e-04 
   @RHF iter   1:  -115.83026475147759    6.80525e-03   1.35812e-04 
   @RHF iter   2:  -115.83027117916382   -6.42769e-06   8.17246e-05 DIIS
   @RHF iter   3:  -115.83027317572248   -1.99656e-06   1.02364e-05 DIIS
   @RHF iter   4:  -115.83027325143006   -7.57076e-08   5.64686e-06 DIIS
   @RHF iter   5:  -115.83027326655861   -1.51285e-08   1.33634e-06 DIIS
   @RHF iter   6:  -115.83027326801727   -1.45866e-09   2.68628e-07 DIIS
   @RHF iter   7:  -115.83027326808916   -7.18927e-11   3.60557e-08 DIIS
   @RHF iter   8:  -115.83027326809076   -1.60583e-12   2.78493e-09 DIIS
   @RHF iter   9:  -115.83027326809069    7.10543e-14   2.81202e-10 DIIS
   @RHF iter  10:  -115.83027326809072   -2.84217e-14   4.06538e-11 DIIS

  ==> Post-Iterations <==

    Orbital Energies (a.u.)
    -----------------------

    Doubly Occupied:                                                      

       1A1   -11.284439     2A1   -11.248572     3A1   -11.248499  
       4A1    -1.081891     5A1    -0.966567     6A1    -0.718488  
       7A1    -0.630795     1B1    -0.614496     1B2    -0.614496  
       2B1    -0.377451     2B2    -0.377451  

    Virtual:                                                              

       3B2     0.159611     3B1     0.159611     8A1     0.261995  
       9A1     0.294692    10A1     0.310351    11A1     0.340630  
       4B1     0.417396     4B2     0.417396     5B2     0.495723  
       5B1     0.495723    12A1     0.524086    13A1     0.561076  
       6B2     0.595290     6B1     0.595290     7B1     0.654510  
       7B2     0.654510    14A1     0.770141    15A1     1.163450  
      16A1     1.177916    17A1     1.297666    18A1     1.388642  
      19A1     1.481441     8B2     1.535217     8B1     1.535217  
      20A1    23.677618    21A1    24.034601    22A1    24.103348  

    Final Occupation by Irrep:
             A1    A2    B1    B2 
    DOCC [     7,    0,    2,    2 ]

  Energy converged.

  @RHF Final Energy:  -115.83027326809072

   => Energetics <=

    Nuclear Repulsion Energy =             59.2254682910079495
    One-Electron Energy =                -271.7851979767551711
    Two-Electron Energy =                  96.7294564176564933
    DFT Exchange-Correlation Energy =       0.0000000000000000
    Empirical Dispersion Energy =           0.0000000000000000
    PCM Polarization Energy =               0.0000000000000000
    EFP Energy =                            0.0000000000000000
    Total Energy =                       -115.8302732680907212



Properties will be evaluated at   0.000000,   0.000000,   0.000000 Bohr

Properties computed using the SCF density matrix

  Nuclear Dipole Moment: (a.u.)
     X:     0.0000      Y:     0.0000      Z:    -0.0000

  Electronic Dipole Moment: (a.u.)
     X:     0.0000      Y:     0.0000      Z:     0.0000

  Dipole Moment: (a.u.)
     X:     0.0000      Y:     0.0000      Z:    -0.0000     Total:     0.0000

  Dipole Moment: (Debye)
     X:     0.0000      Y:     0.0000      Z:    -0.0000     Total:     0.0000


*** tstop() called on psinet at Mon May 15 15:37:55 2017
Module time:
	user time   =       0.37 seconds =       0.01 minutes
	system time =       0.01 seconds =       0.00 minutes
	total time  =          0 seconds =       0.00 minutes
Total time:
	user time   =       2.77 seconds =       0.05 minutes
	system time =       0.05 seconds =       0.00 minutes
	total time  =          3 seconds =       0.05 minutes

*** tstart() called on psinet
*** at Mon May 15 15:37:55 2017


         ------------------------------------------------------------
                                   SCF GRAD                          
                          Rob Parrish, Justin Turney,                
                       Andy Simmonett, and Alex Sokolov              
         ------------------------------------------------------------

  ==> Geometry <==

    Molecular point group: c2v
    Full point group: D2d

    Geometry (in Angstrom), charge = 0, multiplicity = 1:

       Center              X                  Y                   Z               Mass       
    ------------   -----------------  -----------------  -----------------  -----------------
           H          0.000000000000    -0.921273841904    -1.864067512961     1.007825032070
           H         -0.000000000000     0.921273841904    -1.864067512961     1.007825032070
           C          0.000000000000    -0.000000000000    -1.310207817329    12.000000000000
           C          0.000000000000    -0.000000000000     0.000000000000    12.000000000000
           C          0.000000000000    -0.000000000000     1.310207817330    12.000000000000
           H          0.921273841908     0.000000000000     1.864067512953     1.007825032070
           H         -0.921273841908    -0.000000000000     1.864067512953     1.007825032070

  Nuclear repulsion =   59.225468291007950

  ==> Basis Set <==

  Basis Set: DZ
    Blend: DZ
    Number of shells: 26
    Number of basis function: 38
    Number of Cartesian functions: 38
    Spherical Harmonics?: false
    Max angular momentum: 1

  ==> DirectJKGrad: Integral-Direct SCF Gradients <==

    Gradient:                    1
    J tasked:                  Yes
    K tasked:                  Yes
    wK tasked:                  No
    Integrals threads:           1
    Schwarz Cutoff:          0E+00


  -Total Gradient:
     Atom            X                  Y                   Z
    ------   -----------------  -----------------  -----------------
       1        0.000000000000    -0.000686673643     0.000202993596
       2       -0.000000000000     0.000686673643     0.000202993596
       3        0.000000000000     0.000000000000    -0.001303119490
       4       -0.000000000000     0.000000000000     0.000000000001
       5        0.000000000000    -0.000000000000     0.001303119493
       6        0.000686673643     0.000000000000    -0.000202993598
       7       -0.000686673643    -0.000000000000    -0.000202993598


*** tstop() called on psinet at Mon May 15 15:37:56 2017
Module time:
	user time   =       0.60 seconds =       0.01 minutes
	system time =       0.01 seconds =       0.00 minutes
	total time  =          1 seconds =       0.02 minutes
Total time:
	user time   =       3.37 seconds =       0.06 minutes
	system time =       0.06 seconds =       0.00 minutes
	total time  =          4 seconds =       0.07 minutes

			-----------------------------------------
			 OPTKING 2.0: for geometry optimizations 
			  - R.A. King,  Bethel University        
			-----------------------------------------

	Previous internal coordinate definitions found.
	---Fragment 1 Geometry and Gradient---
	 H           0.0000000000       -1.7409552546       -3.5225770927
	 H          -0.0000000000        1.7409552546       -3.5225770927
	 C           0.0000000000       -0.0000000000       -2.4759339519
	 C           0.0000000000       -0.0000000000        0.0000000000
	 C           0.0000000000       -0.0000000000        2.4759339519
	 H           1.7409552546        0.0000000000        3.5225770927
	 H          -1.7409552546       -0.0000000000        3.5225770927
	             0.0000000000       -0.0006866736        0.0002029936
	            -0.0000000000        0.0006866736        0.0002029936
	             0.0000000000        0.0000000000       -0.0013031195
	            -0.0000000000        0.0000000000        0.0000000000
	             0.0000000000       -0.0000000000        0.0013031195
	             0.0006866736        0.0000000000       -0.0002029936
	            -0.0006866736       -0.0000000000       -0.0002029936

	---Fragment 1 Intrafragment Coordinates---
	 - Coordinate -           - BOHR/RAD -       - ANG/DEG -
	 R(1,3)           =         2.031351	       1.074945
	 R(2,3)           =         2.031351	       1.074945
	 R(3,4)           =         2.475934	       1.310208
	 R(4,5)           =         2.475934	       1.310208
	 R(5,6)           =         2.031351	       1.074945
	 R(5,7)           =         2.031351	       1.074945
	 B(1,3,2)         =         2.059006	     117.972357
	 B(1,3,4)         =         2.112090	     121.013822
	 B(2,3,4)         =         2.112090	     121.013822
	 L(3,4,5)         =         3.141593	     180.000000
	 l(3,4,5)         =         3.141593	     180.000000
	 B(4,5,6)         =         2.112090	     121.013822
	 B(4,5,7)         =         2.112090	     121.013822
	 B(6,5,7)         =         2.059006	     117.972357
	 D(1,3,5,6)       =         1.570796	      90.000000
	 D(1,3,5,7)       =        -1.570796	     -90.000000
	 D(2,3,5,6)       =        -1.570796	     -90.000000
	 D(2,3,5,7)       =         1.570796	      90.000000

	Current energy   :      -115.8302732681

	Energy change for the previous step:
		Projected    :         0.0000956501
		Actual       :        -0.0001704704

	Performing BFGS update.
	Previous computed or guess Hessian on step 1.
	Steps to be used in Hessian update: 2 1
	Taking RFO optimization step.
	Going to follow RFO solution 1.
	Using RFO vector 1.
	Norm of target step-size    0.01152
	Projected energy change by RFO approximation:        -0.0000544477

	Back-transformation to cartesian coordinates...
	Successfully converged to displaced geometry.

	--- Internal Coordinate Step in ANG or DEG, aJ/ANG or AJ/DEG ---
	 ---------------------------------------------------------------------------
	   Coordinate                Previous        Force       Change         New 
	   ----------                --------       ------       ------       ------
	    1 R(1,3)          =      1.074945    -0.003987    -0.000547     1.074398
	    2 R(2,3)          =      1.074945    -0.003987    -0.000547     1.074398
	    3 R(3,4)          =      1.310208    -0.007391    -0.000793     1.309415
	    4 R(4,5)          =      1.310208    -0.007391    -0.000793     1.309415
	    5 R(5,6)          =      1.074945    -0.003987    -0.000547     1.074398
	    6 R(5,7)          =      1.074945    -0.003987    -0.000547     1.074398
	    7 B(1,3,2)        =    117.972357    -0.000054    -0.368353   117.604004
	    8 B(1,3,4)        =    121.013822     0.000027     0.184176   121.197998
	    9 B(2,3,4)        =    121.013822     0.000027     0.184176   121.197998
	   10 L(3,4,5)        =    180.000000     0.000000     0.000000   180.000000
	   11 l(3,4,5)        =    180.000000     0.000000     0.000000   180.000000
	   12 B(4,5,6)        =    121.013822     0.000027     0.184176   121.197998
	   13 B(4,5,7)        =    121.013822     0.000027     0.184176   121.197998
	   14 B(6,5,7)        =    117.972357    -0.000054    -0.368353   117.604004
	   15 D(1,3,5,6)      =     90.000000     0.000000     0.000000    90.000000
	   16 D(1,3,5,7)      =    -90.000000    -0.000000    -0.000000   -90.000000
	   17 D(2,3,5,6)      =    -90.000000     0.000000     0.000000   -90.000000
	   18 D(2,3,5,7)      =     90.000000    -0.000000     0.000000    90.000000
	 ---------------------------------------------------------------------------
	Successfully symmetrized geometry.

  ==> Convergence Check <==

  Measures of convergence in internal coordinates in au.
  Criteria marked as inactive (o), active & met (*), and active & unmet ( ).
  ---------------------------------------------------------------------------------------------
   Step     Total Energy     Delta E     MAX Force     RMS Force      MAX Disp      RMS Disp   
  ---------------------------------------------------------------------------------------------
    Convergence Criteria    1.00e-06 *    3.00e-04 *             o    1.20e-03 *             o
  ---------------------------------------------------------------------------------------------
      3    -115.83027327   -1.70e-04      8.97e-04      4.76e-04 o    6.43e-03      2.72e-03 o  ~
  ---------------------------------------------------------------------------------------------

	Writing optimization data to binary file.
	Structure for next step:
	Cartesian Geometry (in Angstrom)
	    H     0.0000000000  -0.9190210145  -1.8659496574
	    H    -0.0000000000   0.9190210145  -1.8659496574
	    C    -0.0000000000   0.0000000000  -1.3094146345
	    C     0.0000000000   0.0000000000  -0.0000000000
	    C    -0.0000000000   0.0000000000   1.3094146345
	    H     0.9190210145   0.0000000000   1.8659496574
	    H    -0.9190210145  -0.0000000000   1.8659496574
			--------------------------
			 OPTKING Finished Execution 
			--------------------------

    Structure for next step:
    Molecular point group: c2v
    Full point group: D2d

    Geometry (in Angstrom), charge = 0, multiplicity = 1:

    H            0.000000000000    -0.919021014466    -1.865949657375
    H           -0.000000000000     0.919021014466    -1.865949657375
    C           -0.000000000000    -0.000000000000    -1.309414634526
    C           -0.000000000000    -0.000000000000    -0.000000000000
    C           -0.000000000000    -0.000000000000     1.309414634526
    H            0.919021014466     0.000000000000     1.865949657375
    H           -0.919021014466    -0.000000000000     1.865949657375

gradient() will perform analytic gradient computation.

*** tstart() called on psinet
*** at Mon May 15 15:37:56 2017

   => Loading Basis Set <=

    Name: DZ
    Role: ORBITAL
    Keyword: BASIS
    atoms 1-2, 6-7 entry H          line    11 file /home/psilocaluser/gits/hrw-direct/objdir4/stage/usr/local/psi4/share/psi4/basis/dz.gbs 
    atoms 3-5      entry C          line    62 file /home/psilocaluser/gits/hrw-direct/objdir4/stage/usr/local/psi4/share/psi4/basis/dz.gbs 


         ---------------------------------------------------------
                                   SCF
            by Justin Turney, Rob Parrish, and Andy Simmonett
                              RHF Reference
                        1 Threads,    500 MiB Core
         ---------------------------------------------------------

  ==> Geometry <==

    Molecular point group: c2v
    Full point group: D2d

    Geometry (in Angstrom), charge = 0, multiplicity = 1:

       Center              X                  Y                   Z               Mass       
    ------------   -----------------  -----------------  -----------------  -----------------
           H          0.000000000000    -0.919021014466    -1.865949657375     1.007825032070
           H         -0.000000000000     0.919021014466    -1.865949657375     1.007825032070
           C         -0.000000000000    -0.000000000000    -1.309414634526    12.000000000000
           C         -0.000000000000    -0.000000000000    -0.000000000000    12.000000000000
           C         -0.000000000000    -0.000000000000     1.309414634526    12.000000000000
           H          0.919021014466     0.000000000000     1.865949657375     1.007825032070
           H         -0.919021014466    -0.000000000000     1.865949657375     1.007825032070

  Running in c2v symmetry.

  Rotational constants: A =      4.95109  B =      0.29633  C =      0.29633 [cm^-1]
  Rotational constants: A = 148429.82636  B =   8883.74320  C =   8883.74320 [MHz]
  Nuclear repulsion =   59.252052081088884

  Charge       = 0
  Multiplicity = 1
  Electrons    = 22
  Nalpha       = 11
  Nbeta        = 11

  ==> Algorithm <==

  SCF Algorithm Type is PK.
  DIIS enabled.
  MOM disabled.
  Fractional occupation disabled.
  Guess Type is READ.
  Energy threshold   = 1.00e-10
  Density threshold  = 1.00e-10
  Integral threshold = 0.00e+00

  ==> Primary Basis <==

  Basis Set: DZ
    Blend: DZ
    Number of shells: 26
    Number of basis function: 38
    Number of Cartesian functions: 38
    Spherical Harmonics?: false
    Max angular momentum: 1

  Reading orbitals from file 180, no projection.

  ==> Pre-Iterations <==

   -------------------------------------------------------
    Irrep   Nso     Nmo     Nalpha   Nbeta   Ndocc  Nsocc
   -------------------------------------------------------
     A1        22      22       0       0       0       0
     A2         0       0       0       0       0       0
     B1         8       8       0       0       0       0
     B2         8       8       0       0       0       0
   -------------------------------------------------------
    Total      38      38      11      11      11       0
   -------------------------------------------------------

  ==> Integral Setup <==

  Using in-core PK algorithm.
   Calculation information:
      Number of atoms:                   7
      Number of AO shells:              26
      Number of primitives:             58
      Number of atomic orbitals:        38
      Number of basis functions:        38

      Integral cutoff                 1.00e-12
      Number of threads:                 1

  Performing in-core PK
  Using 549822 doubles for integral storage.
  We computed 59782 shell quartets total.
  Whereas there are 61776 unique shell quartets.
  ==> DiskJK: Disk-Based J/K Matrices <==

    J tasked:                  Yes
    K tasked:                  Yes
    wK tasked:                  No
    Memory (MB):               375
    Schwarz Cutoff:          1E-12

    OpenMP threads:              1
  Minimum eigenvalue in the overlap matrix is 3.9631330221E-03.
  Using Symmetric Orthogonalization.

  SCF Guess: Orbitals guess was supplied from a previous computation.

  ==> Iterations <==

                        Total Energy        Delta E     RMS |[F,P]|

   @RHF iter   0:  -115.83242544772614   -1.15832e+02   1.26682e-04 
   @RHF iter   1:  -115.83028191200371    2.14354e-03   3.07641e-05 
   @RHF iter   2:  -115.83028226342191   -3.51418e-07   1.70560e-05 DIIS
   @RHF iter   3:  -115.83028235216830   -8.87464e-08   2.25681e-06 DIIS
   @RHF iter   4:  -115.83028235618042   -4.01212e-09   1.41913e-06 DIIS
   @RHF iter   5:  -115.83028235714166   -9.61236e-10   3.97332e-07 DIIS
   @RHF iter   6:  -115.83028235727210   -1.30441e-10   5.31258e-08 DIIS
   @RHF iter   7:  -115.83028235727497   -2.87059e-12   7.31624e-09 DIIS
   @RHF iter   8:  -115.83028235727518   -2.13163e-13   8.19500e-10 DIIS
   @RHF iter   9:  -115.83028235727514    4.26326e-14   7.22350e-11 DIIS

  ==> Post-Iterations <==

    Orbital Energies (a.u.)
    -----------------------

    Doubly Occupied:                                                      

       1A1   -11.284335     2A1   -11.248364     3A1   -11.248290  
       4A1    -1.082082     5A1    -0.966733     6A1    -0.719308  
       7A1    -0.631731     1B2    -0.614123     1B1    -0.614123  
       2B1    -0.377543     2B2    -0.377543  

    Virtual:                                                              

       3B2     0.159652     3B1     0.159652     8A1     0.261868  
       9A1     0.294587    10A1     0.311128    11A1     0.341673  
       4B1     0.417345     4B2     0.417345     5B1     0.495578  
       5B2     0.495578    12A1     0.523518    13A1     0.561945  
       6B1     0.595104     6B2     0.595104     7B2     0.654774  
       7B1     0.654774    14A1     0.769836    15A1     1.163827  
      16A1     1.178498    17A1     1.299338    18A1     1.391147  
      19A1     1.483591     8B2     1.533905     8B1     1.533905  
      20A1    23.677961    21A1    24.035137    22A1    24.104011  

    Final Occupation by Irrep:
             A1    A2    B1    B2 
    DOCC [     7,    0,    2,    2 ]

  Energy converged.

  @RHF Final Energy:  -115.83028235727514

   => Energetics <=

    Nuclear Repulsion Energy =             59.2520520810888840
    One-Electron Energy =                -271.8363205079356248
    Two-Electron Energy =                  96.7539860695715959
    DFT Exchange-Correlation Energy =       0.0000000000000000
    Empirical Dispersion Energy =           0.0000000000000000
    PCM Polarization Energy =               0.0000000000000000
    EFP Energy =                            0.0000000000000000
    Total Energy =                       -115.8302823572751379



Properties will be evaluated at   0.000000,   0.000000,   0.000000 Bohr

Properties computed using the SCF density matrix

  Nuclear Dipole Moment: (a.u.)
     X:     0.0000      Y:     0.0000      Z:    -0.0000

  Electronic Dipole Moment: (a.u.)
     X:     0.0000      Y:     0.0000      Z:    -0.0000

  Dipole Moment: (a.u.)
     X:     0.0000      Y:     0.0000      Z:    -0.0000     Total:     0.0000

  Dipole Moment: (Debye)
     X:     0.0000      Y:     0.0000      Z:    -0.0000     Total:     0.0000


*** tstop() called on psinet at Mon May 15 15:37:56 2017
Module time:
	user time   =       0.37 seconds =       0.01 minutes
	system time =       0.01 seconds =       0.00 minutes
	total time  =          0 seconds =       0.00 minutes
Total time:
	user time   =       3.75 seconds =       0.06 minutes
	system time =       0.07 seconds =       0.00 minutes
	total time  =          4 seconds =       0.07 minutes

*** tstart() called on psinet
*** at Mon May 15 15:37:56 2017


         ------------------------------------------------------------
                                   SCF GRAD                          
                          Rob Parrish, Justin Turney,                
                       Andy Simmonett, and Alex Sokolov              
         ------------------------------------------------------------

  ==> Geometry <==

    Molecular point group: c2v
    Full point group: D2d

    Geometry (in Angstrom), charge = 0, multiplicity = 1:

       Center              X                  Y                   Z               Mass       
    ------------   -----------------  -----------------  -----------------  -----------------
           H          0.000000000000    -0.919021014466    -1.865949657375     1.007825032070
           H         -0.000000000000     0.919021014466    -1.865949657375     1.007825032070
           C         -0.000000000000    -0.000000000000    -1.309414634526    12.000000000000
           C         -0.000000000000    -0.000000000000    -0.000000000000    12.000000000000
           C         -0.000000000000    -0.000000000000     1.309414634526    12.000000000000
           H          0.919021014466     0.000000000000     1.865949657375     1.007825032070
           H         -0.919021014466    -0.000000000000     1.865949657375     1.007825032070

  Nuclear repulsion =   59.252052081088884

  ==> Basis Set <==

  Basis Set: DZ
    Blend: DZ
    Number of shells: 26
    Number of basis function: 38
    Number of Cartesian functions: 38
    Spherical Harmonics?: false
    Max angular momentum: 1

  ==> DirectJKGrad: Integral-Direct SCF Gradients <==

    Gradient:                    1
    J tasked:                  Yes
    K tasked:                  Yes
    wK tasked:                  No
    Integrals threads:           1
    Schwarz Cutoff:          0E+00


  -Total Gradient:
     Atom            X                  Y                   Z
    ------   -----------------  -----------------  -----------------
       1       -0.000000000000     0.000005696589    -0.000017276597
       2        0.000000000000    -0.000005696589    -0.000017276597
       3        0.000000000000     0.000000000000    -0.000010783995
       4        0.000000000000    -0.000000000000    -0.000000000001
       5        0.000000000000     0.000000000000     0.000010783995
       6       -0.000005696589    -0.000000000000     0.000017276597
       7        0.000005696589     0.000000000000     0.000017276597


*** tstop() called on psinet at Mon May 15 15:37:57 2017
Module time:
	user time   =       0.60 seconds =       0.01 minutes
	system time =       0.00 seconds =       0.00 minutes
	total time  =          1 seconds =       0.02 minutes
Total time:
	user time   =       4.35 seconds =       0.07 minutes
	system time =       0.07 seconds =       0.00 minutes
	total time  =          5 seconds =       0.08 minutes

			-----------------------------------------
			 OPTKING 2.0: for geometry optimizations 
			  - R.A. King,  Bethel University        
			-----------------------------------------

	Previous internal coordinate definitions found.
	---Fragment 1 Geometry and Gradient---
	 H           0.0000000000       -1.7366980277       -3.5261338302
	 H          -0.0000000000        1.7366980277       -3.5261338302
	 C          -0.0000000000       -0.0000000000       -2.4744350536
	 C          -0.0000000000       -0.0000000000       -0.0000000000
	 C          -0.0000000000       -0.0000000000        2.4744350536
	 H           1.7366980277        0.0000000000        3.5261338302
	 H          -1.7366980277       -0.0000000000        3.5261338302
	            -0.0000000000        0.0000056966       -0.0000172766
	             0.0000000000       -0.0000056966       -0.0000172766
	             0.0000000000        0.0000000000       -0.0000107840
	             0.0000000000       -0.0000000000       -0.0000000000
	             0.0000000000        0.0000000000        0.0000107840
	            -0.0000056966       -0.0000000000        0.0000172766
	             0.0000056966        0.0000000000        0.0000172766

	---Fragment 1 Intrafragment Coordinates---
	 - Coordinate -           - BOHR/RAD -       - ANG/DEG -
	 R(1,3)           =         2.030318	       1.074398
	 R(2,3)           =         2.030318	       1.074398
	 R(3,4)           =         2.474435	       1.309415
	 R(4,5)           =         2.474435	       1.309415
	 R(5,6)           =         2.030318	       1.074398
	 R(5,7)           =         2.030318	       1.074398
	 B(1,3,2)         =         2.052577	     117.604004
	 B(1,3,4)         =         2.115304	     121.197998
	 B(2,3,4)         =         2.115304	     121.197998
	 L(3,4,5)         =         3.141593	     180.000000
	 l(3,4,5)         =         3.141593	     180.000000
	 B(4,5,6)         =         2.115304	     121.197998
	 B(4,5,7)         =         2.115304	     121.197998
	 B(6,5,7)         =         2.052577	     117.604004
	 D(1,3,5,6)       =         1.570796	      90.000000
	 D(1,3,5,7)       =        -1.570796	     -90.000000
	 D(2,3,5,6)       =        -1.570796	     -90.000000
	 D(2,3,5,7)       =         1.570796	      90.000000

	Current energy   :      -115.8302823573

	Energy change for the previous step:
		Projected    :        -0.0000544477
		Actual       :        -0.0000090892
	Energy ratio indicates iffy step: Trust radius decreased to 1.250e-01.


	Performing BFGS update.
	Previous computed or guess Hessian on step 1.
	Steps to be used in Hessian update: 3 2
	Taking RFO optimization step.
	Going to follow RFO solution 1.
	Using RFO vector 1.
	Norm of target step-size    0.00034
	Projected energy change by RFO approximation:        -0.0000000504

	Back-transformation to cartesian coordinates...
	Successfully converged to displaced geometry.

	--- Internal Coordinate Step in ANG or DEG, aJ/ANG or AJ/DEG ---
	 ---------------------------------------------------------------------------
	   Coordinate                Previous        Force       Change         New 
	   ----------                --------       ------       ------       ------
	    1 R(1,3)          =      1.074398    -0.000034    -0.000004     1.074393
	    2 R(2,3)          =      1.074398    -0.000034    -0.000004     1.074393
	    3 R(3,4)          =      1.309415    -0.000374    -0.000028     1.309387
	    4 R(4,5)          =      1.309415    -0.000374    -0.000028     1.309387
	    5 R(5,6)          =      1.074398    -0.000034    -0.000004     1.074393
	    6 R(5,7)          =      1.074398    -0.000034    -0.000004     1.074393
	    7 B(1,3,2)        =    117.604004     0.000002     0.011025   117.615029
	    8 B(1,3,4)        =    121.197998    -0.000001    -0.005513   121.192485
	    9 B(2,3,4)        =    121.197998    -0.000001    -0.005513   121.192485
	   10 L(3,4,5)        =    180.000000    -0.000000     0.000000   180.000000
	   11 l(3,4,5)        =    180.000000    -0.000000     0.000000   180.000000
	   12 B(4,5,6)        =    121.197998    -0.000001    -0.005513   121.192485
	   13 B(4,5,7)        =    121.197998    -0.000001    -0.005513   121.192485
	   14 B(6,5,7)        =    117.604004     0.000002     0.011025   117.615029
	   15 D(1,3,5,6)      =     90.000000    -0.000000     0.000000    90.000000
	   16 D(1,3,5,7)      =    -90.000000    -0.000000     0.000000   -90.000000
	   17 D(2,3,5,6)      =    -90.000000     0.000000     0.000000   -90.000000
	   18 D(2,3,5,7)      =     90.000000     0.000000     0.000000    90.000000
	 ---------------------------------------------------------------------------
	Successfully symmetrized geometry.

  ==> Convergence Check <==

  Measures of convergence in internal coordinates in au.
  Criteria marked as inactive (o), active & met (*), and active & unmet ( ).
  ---------------------------------------------------------------------------------------------
   Step     Total Energy     Delta E     MAX Force     RMS Force      MAX Disp      RMS Disp   
  ---------------------------------------------------------------------------------------------
    Convergence Criteria    1.00e-06 *    3.00e-04 *             o    1.20e-03 *             o
  ---------------------------------------------------------------------------------------------
      4    -115.83028236   -9.09e-06      4.53e-05 *    1.81e-05 o    1.92e-04 *    8.06e-05 o  ~
  ---------------------------------------------------------------------------------------------


  **** Optimization is complete! (in 4 steps) ****

  ==> Optimization Summary <==

  Measures of convergence in internal coordinates in au.
  --------------------------------------------------------------------------------------------------------------- ~
   Step         Total Energy             Delta E       MAX Force       RMS Force        MAX Disp        RMS Disp  ~
  --------------------------------------------------------------------------------------------------------------- ~
      1    -115.826220772929   -115.826220772929      0.02177795      0.01280549      0.06607816      0.03788335  ~
      2    -115.830102797646     -0.003882024717      0.00588392      0.00234003      0.02086378      0.00892201  ~
      3    -115.830273268091     -0.000170470445      0.00089713      0.00047603      0.00642897      0.00271578  ~
      4    -115.830282357275     -0.000009089184      0.00004534      0.00001811      0.00019243      0.00008058  ~
  --------------------------------------------------------------------------------------------------------------- ~

	Writing optimization data to binary file.
	Final energy is   -115.8302823572751
	Final (previous) structure:
	Cartesian Geometry (in Angstrom)
	    H     0.0000000000  -0.9190210145  -1.8659496574
	    H    -0.0000000000   0.9190210145  -1.8659496574
	    C    -0.0000000000  -0.0000000000  -1.3094146345
	    C    -0.0000000000  -0.0000000000  -0.0000000000
	    C    -0.0000000000  -0.0000000000   1.3094146345
	    H     0.9190210145   0.0000000000   1.8659496574
	    H    -0.9190210145  -0.0000000000   1.8659496574
	Saving final (previous) structure.
			--------------------------
			 OPTKING Finished Execution 
			--------------------------

    Final optimized geometry and variables:
    Molecular point group: c2v
    Full point group: D2d

    Geometry (in Angstrom), charge = 0, multiplicity = 1:

    H            0.000000000000    -0.919021014466    -1.865949657375
    H           -0.000000000000     0.919021014466    -1.865949657375
    C           -0.000000000000    -0.000000000000    -1.309414634526
    C           -0.000000000000    -0.000000000000    -0.000000000000
    C           -0.000000000000    -0.000000000000     1.309414634526
    H            0.919021014466     0.000000000000     1.865949657375
    H           -0.919021014466    -0.000000000000     1.865949657375

	Cleaning optimization helper files.
	Nuclear repulsion energy..........................................PASSED
	Reference energy..................................................PASSED
gradient() will perform analytic gradient computation.

*** tstart() called on psinet
*** at Mon May 15 15:37:57 2017

   => Loading Basis Set <=

    Name: DZ
    Role: ORBITAL
    Keyword: BASIS
    atoms 1-2, 6-7 entry H          line    11 file /home/psilocaluser/gits/hrw-direct/objdir4/stage/usr/local/psi4/share/psi4/basis/dz.gbs 
    atoms 3-5      entry C          line    62 file /home/psilocaluser/gits/hrw-direct/objdir4/stage/usr/local/psi4/share/psi4/basis/dz.gbs 

    There are an even number of electrons - assuming singlet.
    Specify the multiplicity in the molecule input block.


         ---------------------------------------------------------
                                   SCF
            by Justin Turney, Rob Parrish, and Andy Simmonett
                              RHF Reference
                        1 Threads,    500 MiB Core
         ---------------------------------------------------------

  ==> Geometry <==

    Molecular point group: cs
    Full point group: Cs

    Geometry (in Angstrom), charge = 0, multiplicity = 1:

       Center              X                  Y                   Z               Mass       
    ------------   -----------------  -----------------  -----------------  -----------------
           H          0.949976543259     1.800000000000     0.000000000000     1.007825032070
           H         -0.890023456741     1.800000000000     0.000000000000     1.007825032070
           C          0.029976543259     1.300000000000     0.000000000000    12.000000000000
           C         -0.070023456741    -0.000000000000     0.000000000000    12.000000000000
           C          0.029976543259    -1.300000000000     0.000000000000    12.000000000000
           H          0.029976543259    -1.800000000000     0.920000000000     1.007825032070
           H          0.029976543259    -1.800000000000    -0.920000000000     1.007825032070

  Running in cs symmetry.

  Rotational constants: A =      4.82181  B =      0.30469  C =      0.30423 [cm^-1]
  Rotational constants: A = 144554.22630  B =   9134.32530  C =   9120.47365 [MHz]
  Nuclear repulsion =   60.011145510887431

  Charge       = 0
  Multiplicity = 1
  Electrons    = 22
  Nalpha       = 11
  Nbeta        = 11

  ==> Algorithm <==

  SCF Algorithm Type is PK.
  DIIS enabled.
  MOM disabled.
  Fractional occupation disabled.
  Guess Type is SAD.
  Energy threshold   = 1.00e-10
  Density threshold  = 1.00e-10
  Integral threshold = 0.00e+00

  ==> Primary Basis <==

  Basis Set: DZ
    Blend: DZ
    Number of shells: 26
    Number of basis function: 38
    Number of Cartesian functions: 38
    Spherical Harmonics?: false
    Max angular momentum: 1

  ==> Pre-Iterations <==

   -------------------------------------------------------
    Irrep   Nso     Nmo     Nalpha   Nbeta   Ndocc  Nsocc
   -------------------------------------------------------
     A'        30      30       0       0       0       0
     A"         8       8       0       0       0       0
   -------------------------------------------------------
    Total      38      38      11      11      11       0
   -------------------------------------------------------

  ==> Integral Setup <==

  Using in-core PK algorithm.
   Calculation information:
      Number of atoms:                   7
      Number of AO shells:              26
      Number of primitives:             58
      Number of atomic orbitals:        38
      Number of basis functions:        38

      Integral cutoff                 1.00e-12
      Number of threads:                 1

  Performing in-core PK
  Using 549822 doubles for integral storage.
  We computed 59991 shell quartets total.
  Whereas there are 61776 unique shell quartets.
  ==> DiskJK: Disk-Based J/K Matrices <==

    J tasked:                  Yes
    K tasked:                  Yes
    wK tasked:                  No
    Memory (MB):               375
    Schwarz Cutoff:          1E-12

    OpenMP threads:              1
  Minimum eigenvalue in the overlap matrix is 4.0272140516E-03.
  Using Symmetric Orthogonalization.

  SCF Guess: Superposition of Atomic Densities via on-the-fly atomic UHF.

  ==> Iterations <==

                        Total Energy        Delta E     RMS |[F,P]|

   @RHF iter   0:  -117.54796766333834   -1.17548e+02   1.08292e-01 
   @RHF iter   1:  -115.77755839772823    1.77041e+00   7.22879e-03 
   @RHF iter   2:  -115.81890418859940   -4.13458e-02   2.38510e-03 DIIS
   @RHF iter   3:  -115.82287496450897   -3.97078e-03   1.05933e-03 DIIS
   @RHF iter   4:  -115.82368833751590   -8.13373e-04   1.87794e-04 DIIS
   @RHF iter   5:  -115.82372284998146   -3.45125e-05   4.75354e-05 DIIS
   @RHF iter   6:  -115.82372619102573   -3.34104e-06   1.41900e-05 DIIS
   @RHF iter   7:  -115.82372644276620   -2.51740e-07   3.90612e-06 DIIS
   @RHF iter   8:  -115.82372646247494   -1.97087e-08   6.91287e-07 DIIS
   @RHF iter   9:  -115.82372646311713   -6.42189e-10   5.81954e-08 DIIS
   @RHF iter  10:  -115.82372646312203   -4.90274e-12   1.46348e-08 DIIS
   @RHF iter  11:  -115.82372646312214   -1.13687e-13   5.90805e-09 DIIS
   @RHF iter  12:  -115.82372646312224   -9.94760e-14   1.06321e-09 DIIS
   @RHF iter  13:  -115.82372646312206    1.84741e-13   2.60041e-10 DIIS
[...]
	    H     0.0026579304  -1.8659331416   0.9189620653
	    H     0.0026579304  -1.8659331416  -0.9189620653
			--------------------------
			 OPTKING Finished Execution 
			--------------------------

    Structure for next step:
    Molecular point group: cs
    Full point group: Cs

    Geometry (in Angstrom), charge = 0, multiplicity = 1:

    H            0.919523181601     1.865273226412     0.000000000000
    H           -0.918212481445     1.866764238657     0.000000000000
    C            0.000077283505     1.309310736646     0.000000000000
    C           -0.000574962445    -0.000005548030     0.000000000000
    C            0.000211331144    -1.309336938796     0.000000000000
    H            0.001049397001    -1.865829710559     0.918962065297
    H            0.001049397001    -1.865829710559    -0.918962065297

gradient() will perform analytic gradient computation.

*** tstart() called on psinet
*** at Mon May 15 15:38:04 2017

   => Loading Basis Set <=

    Name: DZ
    Role: ORBITAL
    Keyword: BASIS
    atoms 1-2, 6-7 entry H          line    11 file /home/psilocaluser/gits/hrw-direct/objdir4/stage/usr/local/psi4/share/psi4/basis/dz.gbs 
    atoms 3-5      entry C          line    62 file /home/psilocaluser/gits/hrw-direct/objdir4/stage/usr/local/psi4/share/psi4/basis/dz.gbs 


         ---------------------------------------------------------
                                   SCF
            by Justin Turney, Rob Parrish, and Andy Simmonett
                              RHF Reference
                        1 Threads,    500 MiB Core
         ---------------------------------------------------------

  ==> Geometry <==

    Molecular point group: cs
    Full point group: Cs

    Geometry (in Angstrom), charge = 0, multiplicity = 1:

       Center              X                  Y                   Z               Mass       
    ------------   -----------------  -----------------  -----------------  -----------------
           H          0.919523181601     1.865273226412     0.000000000000     1.007825032070
           H         -0.918212481445     1.866764238657     0.000000000000     1.007825032070
           C          0.000077283505     1.309310736646     0.000000000000    12.000000000000
           C         -0.000574962445    -0.000005548030     0.000000000000    12.000000000000
           C          0.000211331144    -1.309336938796     0.000000000000    12.000000000000
           H          0.001049397001    -1.865829710559     0.918962065297     1.007825032070
           H          0.001049397001    -1.865829710559    -0.918962065297     1.007825032070

  Running in cs symmetry.

  Rotational constants: A =      4.95222  B =      0.29636  C =      0.29636 [cm^-1]
  Rotational constants: A = 148463.77912  B =   8884.78146  C =   8884.72806 [MHz]
  Nuclear repulsion =   59.255638009913852

  Charge       = 0
  Multiplicity = 1
  Electrons    = 22
  Nalpha       = 11
  Nbeta        = 11

  ==> Algorithm <==

  SCF Algorithm Type is PK.
  DIIS enabled.
  MOM disabled.
  Fractional occupation disabled.
  Guess Type is READ.
  Energy threshold   = 1.00e-10
  Density threshold  = 1.00e-10
  Integral threshold = 0.00e+00

  ==> Primary Basis <==

  Basis Set: DZ
    Blend: DZ
    Number of shells: 26
    Number of basis function: 38
    Number of Cartesian functions: 38
    Spherical Harmonics?: false
    Max angular momentum: 1

  Reading orbitals from file 180, no projection.

  ==> Pre-Iterations <==

   -------------------------------------------------------
    Irrep   Nso     Nmo     Nalpha   Nbeta   Ndocc  Nsocc
   -------------------------------------------------------
     A'        30      30       0       0       0       0
     A"         8       8       0       0       0       0
   -------------------------------------------------------
    Total      38      38      11      11      11       0
   -------------------------------------------------------

  ==> Integral Setup <==

  Using in-core PK algorithm.
   Calculation information:
      Number of atoms:                   7
      Number of AO shells:              26
      Number of primitives:             58
      Number of atomic orbitals:        38
      Number of basis functions:        38

      Integral cutoff                 1.00e-12
      Number of threads:                 1

  Performing in-core PK
  Using 549822 doubles for integral storage.
  We computed 59782 shell quartets total.
  Whereas there are 61776 unique shell quartets.
  ==> DiskJK: Disk-Based J/K Matrices <==

    J tasked:                  Yes
    K tasked:                  Yes
    wK tasked:                  No
    Memory (MB):               375
    Schwarz Cutoff:          1E-12

    OpenMP threads:              1
  Minimum eigenvalue in the overlap matrix is 3.9628911919E-03.
  Using Symmetric Orthogonalization.

  SCF Guess: Orbitals guess was supplied from a previous computation.

  ==> Iterations <==

                        Total Energy        Delta E     RMS |[F,P]|

   @RHF iter   0:  -115.82999526104318   -1.15830e+02   2.25733e-04 
   @RHF iter   1:  -115.83028102195624   -2.85761e-04   3.16081e-05 
   @RHF iter   2:  -115.83028203101676   -1.00906e-06   1.04030e-05 DIIS
   @RHF iter   3:  -115.83028216136491   -1.30348e-07   3.55408e-06 DIIS
   @RHF iter   4:  -115.83028217013603   -8.77112e-09   8.42546e-07 DIIS
   @RHF iter   5:  -115.83028217128653   -1.15050e-09   2.03644e-07 DIIS
   @RHF iter   6:  -115.83028217134733   -6.08082e-11   5.22499e-08 DIIS
   @RHF iter   7:  -115.83028217135146   -4.12115e-12   7.22285e-09 DIIS
   @RHF iter   8:  -115.83028217135141    4.26326e-14   1.13410e-09 DIIS
   @RHF iter   9:  -115.83028217135148   -7.10543e-14   4.67104e-10 DIIS
   @RHF iter  10:  -115.83028217135154   -5.68434e-14   9.94888e-11 DIIS

  ==> Post-Iterations <==

    Orbital Energies (a.u.)
    -----------------------

    Doubly Occupied:                                                      

       1Ap   -11.284312     2Ap   -11.248336     3Ap   -11.248262  
       4Ap    -1.082114     5Ap    -0.966758     6Ap    -0.719340  
       7Ap    -0.631776     1App   -0.614153     8Ap    -0.614101  
       2App   -0.377557     9Ap    -0.377551  

    Virtual:                                                              

      10Ap     0.159665     3App    0.159680    11Ap     0.261866  
      12Ap     0.294588    13Ap     0.311173    14Ap     0.341717  
       4App    0.417315    15Ap     0.417338    16Ap     0.495577  
       5App    0.495611    17Ap     0.523491    18Ap     0.562003  
      19Ap     0.595104     6App    0.595132     7App    0.654786  
      20Ap     0.654799    21Ap     0.769867    22Ap     1.163873  
      23Ap     1.178541    24Ap     1.299553    25Ap     1.391264  
      26Ap     1.483664    27Ap     1.533836     8App    1.534013  
      28Ap    23.677990    29Ap    24.035201    30Ap    24.104100  

    Final Occupation by Irrep:
             Ap   App 
    DOCC [     9,    2 ]

  Energy converged.

  @RHF Final Energy:  -115.83028217135154

   => Energetics <=

    Nuclear Repulsion Energy =             59.2556380099138522
    One-Electron Energy =                -271.8433213601158513
    Two-Electron Energy =                  96.7574011788504436
    DFT Exchange-Correlation Energy =       0.0000000000000000
    Empirical Dispersion Energy =           0.0000000000000000
    PCM Polarization Energy =               0.0000000000000000
    EFP Energy =                            0.0000000000000000
    Total Energy =                       -115.8302821713515414



Properties will be evaluated at   0.000000,   0.000000,   0.000000 Bohr

Properties computed using the SCF density matrix

  Nuclear Dipole Moment: (a.u.)
     X:     0.0032      Y:     0.0004      Z:     0.0000

  Electronic Dipole Moment: (a.u.)
     X:    -0.0021      Y:    -0.0003      Z:     0.0000

  Dipole Moment: (a.u.)
     X:     0.0011      Y:     0.0000      Z:     0.0000     Total:     0.0011

  Dipole Moment: (Debye)
     X:     0.0027      Y:     0.0001      Z:     0.0000     Total:     0.0027


*** tstop() called on psinet at Mon May 15 15:38:04 2017
Module time:
	user time   =       0.33 seconds =       0.01 minutes
	system time =       0.01 seconds =       0.00 minutes
	total time  =          0 seconds =       0.00 minutes
Total time:
	user time   =      11.70 seconds =       0.19 minutes
	system time =       0.20 seconds =       0.00 minutes
	total time  =         12 seconds =       0.20 minutes

*** tstart() called on psinet
*** at Mon May 15 15:38:04 2017


         ------------------------------------------------------------
                                   SCF GRAD                          
                          Rob Parrish, Justin Turney,                
                       Andy Simmonett, and Alex Sokolov              
         ------------------------------------------------------------

  ==> Geometry <==

    Molecular point group: cs
    Full point group: Cs

    Geometry (in Angstrom), charge = 0, multiplicity = 1:

       Center              X                  Y                   Z               Mass       
    ------------   -----------------  -----------------  -----------------  -----------------
           H          0.919523181601     1.865273226412     0.000000000000     1.007825032070
           H         -0.918212481445     1.866764238657     0.000000000000     1.007825032070
           C          0.000077283505     1.309310736646     0.000000000000    12.000000000000
           C         -0.000574962445    -0.000005548030     0.000000000000    12.000000000000
           C          0.000211331144    -1.309336938796     0.000000000000    12.000000000000
           H          0.001049397001    -1.865829710559     0.918962065297     1.007825032070
           H          0.001049397001    -1.865829710559    -0.918962065297     1.007825032070

  Nuclear repulsion =   59.255638009913852

  ==> Basis Set <==

  Basis Set: DZ
    Blend: DZ
    Number of shells: 26
    Number of basis function: 38
    Number of Cartesian functions: 38
    Spherical Harmonics?: false
    Max angular momentum: 1

  ==> DirectJKGrad: Integral-Direct SCF Gradients <==

    Gradient:                    1
    J tasked:                  Yes
    K tasked:                  Yes
    wK tasked:                  No
    Integrals threads:           1
    Schwarz Cutoff:          0E+00


  -Total Gradient:
     Atom            X                  Y                   Z
    ------   -----------------  -----------------  -----------------
       1        0.000017662261     0.000055070924     0.000000000000
       2        0.000125931943     0.000000553224     0.000000000000
       3       -0.000108141514    -0.000132312553     0.000000000000
       4       -0.000060485440     0.000001401795     0.000000000000
       5       -0.000053142314     0.000047133848     0.000000000000
       6        0.000039087532     0.000014076381    -0.000051410090
       7        0.000039087532     0.000014076381     0.000051410090


*** tstop() called on psinet at Mon May 15 15:38:05 2017
Module time:
	user time   =       0.60 seconds =       0.01 minutes
	system time =       0.01 seconds =       0.00 minutes
	total time  =          1 seconds =       0.02 minutes
Total time:
	user time   =      12.30 seconds =       0.20 minutes
	system time =       0.21 seconds =       0.00 minutes
	total time  =         13 seconds =       0.22 minutes

			-----------------------------------------
			 OPTKING 2.0: for geometry optimizations 
			  - R.A. King,  Bethel University        
			-----------------------------------------

	Previous internal coordinate definitions found.
	---Fragment 1 Geometry and Gradient---
	 H           1.7376469861        3.5248555609        0.0000000000
	 H          -1.7351701217        3.5276731657        0.0000000000
	 C           0.0001460447        2.4742387151        0.0000000000
	 C          -0.0010865216       -0.0000104843        0.0000000000
	 C           0.0003993580       -2.4742882300        0.0000000000
	 H           0.0019830729       -3.5259071636        1.7365866299
	 H           0.0019830729       -3.5259071636       -1.7365866299
	             0.0000176623        0.0000550709        0.0000000000
	             0.0001259319        0.0000005532        0.0000000000
	            -0.0001081415       -0.0001323126        0.0000000000
	            -0.0000604854        0.0000014018        0.0000000000
	            -0.0000531423        0.0000471338        0.0000000000
	             0.0000390875        0.0000140764       -0.0000514101
	             0.0000390875        0.0000140764        0.0000514101

	---Fragment 1 Intrafragment Coordinates---
	 - Coordinate -           - BOHR/RAD -       - ANG/DEG -
	 R(1,3)           =         2.030445	       1.074465
	 R(2,3)           =         2.030036	       1.074249
	 R(3,4)           =         2.474250	       1.309316
	 R(4,5)           =         2.474278	       1.309332
	 R(5,6)           =         2.030182	       1.074326
	 R(5,7)           =         2.030182	       1.074326
	 B(1,3,2)         =         2.052154	     117.579749
	 B(1,3,4)         =         2.115142	     121.188689
	 B(2,3,4)         =         2.115890	     121.231562
	 B(4,5,6)         =         2.115299	     121.197714
	 B(4,5,7)         =         2.115299	     121.197714
	 B(6,5,7)         =         2.052587	     117.604544
	 L(3,4,5)         =         3.140494	     179.937050
	 l(3,4,5)         =         3.141593	     180.000000
	 D(1,3,5,6)       =         1.569915	      89.949524
	 D(1,3,5,7)       =        -1.569915	     -89.949524
	 D(2,3,5,6)       =        -1.571677	     -90.050476
	 D(2,3,5,7)       =         1.571677	      90.050476

	Current energy   :      -115.8302821714

	Energy change for the previous step:
		Projected    :        -0.0000027196
		Actual       :        -0.0000040055

	Performing BFGS update.
	Previous computed or guess Hessian on step 1.
	Steps to be used in Hessian update: 6 5
	Taking RFO optimization step.
	Going to follow RFO solution 1.
	Using RFO vector 1.
	Norm of target step-size    0.00209
	Projected energy change by RFO approximation:        -0.0000003904

	Back-transformation to cartesian coordinates...
	Successfully converged to displaced geometry.

	--- Internal Coordinate Step in ANG or DEG, aJ/ANG or AJ/DEG ---
	 ---------------------------------------------------------------------------
	   Coordinate                Previous        Force       Change         New 
	   ----------                --------       ------       ------       ------
	    1 R(1,3)          =      1.074465    -0.000359    -0.000060     1.074405
	    2 R(2,3)          =      1.074249     0.000885     0.000130     1.074378
	    3 R(3,4)          =      1.309316     0.000632     0.000056     1.309373
	    4 R(4,5)          =      1.309332     0.000620     0.000052     1.309384
	    5 R(5,6)          =      1.074326     0.000422     0.000066     1.074392
	    6 R(5,7)          =      1.074326     0.000422     0.000066     1.074392
	    7 B(1,3,2)        =    117.579749     0.000005     0.023597   117.603346
	    8 B(1,3,4)        =    121.188689    -0.000001     0.007328   121.196017
	    9 B(2,3,4)        =    121.231562    -0.000005    -0.030925   121.200637
	   10 B(4,5,6)        =    121.197714    -0.000001    -0.005624   121.192090
	   11 B(4,5,7)        =    121.197714    -0.000001    -0.005624   121.192090
	   12 B(6,5,7)        =    117.604544     0.000002     0.011276   117.615821
	   13 L(3,4,5)        =    179.937050     0.000008     0.058003   179.995053
	   14 l(3,4,5)        =    180.000000    -0.000000     0.000000   180.000000
	   15 D(1,3,5,6)      =     89.949524     0.000001     0.046779    89.996303
	   16 D(1,3,5,7)      =    -89.949524    -0.000001    -0.046779   -89.996303
	   17 D(2,3,5,6)      =    -90.050476     0.000001     0.046779   -90.003697
	   18 D(2,3,5,7)      =     90.050476    -0.000001    -0.046779    90.003697
	 ---------------------------------------------------------------------------
	Successfully symmetrized geometry.

  ==> Convergence Check <==

  Measures of convergence in internal coordinates in au.
  Criteria marked as inactive (o), active & met (*), and active & unmet ( ).
  ---------------------------------------------------------------------------------------------
   Step     Total Energy     Delta E     MAX Force     RMS Force      MAX Disp      RMS Disp   
  ---------------------------------------------------------------------------------------------
    Convergence Criteria    1.00e-06 *    3.00e-04 *             o    1.20e-03 *             o
  ---------------------------------------------------------------------------------------------
      7    -115.83028217   -4.01e-06      1.07e-04 *    5.53e-05 o    1.01e-03 *    4.92e-04 o  ~
  ---------------------------------------------------------------------------------------------


  **** Optimization is complete! (in 7 steps) ****

  ==> Optimization Summary <==

  Measures of convergence in internal coordinates in au.
  --------------------------------------------------------------------------------------------------------------- ~
   Step         Total Energy             Delta E       MAX Force       RMS Force        MAX Disp        RMS Disp  ~
  --------------------------------------------------------------------------------------------------------------- ~
      1    -115.823726463122   -115.823726463122      0.02417739      0.01407167      0.10699199      0.06106126  ~
      2    -115.829262622518     -0.005536159396      0.00939020      0.00409155      0.24519535      0.12111211  ~
      3    -115.825550934736      0.003711687782      0.02077703      0.00948991      0.18079992      0.08702427  ~
      4    -115.829397414600     -0.003846479864      0.01536761      0.00551651      0.04110599      0.01979586  ~
      5    -115.830255092358     -0.000857677758      0.00212836      0.00063848      0.00979023      0.00388609  ~
      6    -115.830278165806     -0.000023073449      0.00083863      0.00024540      0.00653757      0.00179829  ~
      7    -115.830282171352     -0.000004005545      0.00010736      0.00005531      0.00101235      0.00049169  ~
  --------------------------------------------------------------------------------------------------------------- ~

	Writing optimization data to binary file.
	Final energy is   -115.8302821713515
	Final (previous) structure:
	Cartesian Geometry (in Angstrom)
	    H     0.9195231816   1.8652732264   0.0000000000
	    H    -0.9182124814   1.8667642387   0.0000000000
	    C     0.0000772835   1.3093107366   0.0000000000
	    C    -0.0005749624  -0.0000055480   0.0000000000
	    C     0.0002113311  -1.3093369388   0.0000000000
	    H     0.0010493970  -1.8658297106   0.9189620653
	    H     0.0010493970  -1.8658297106  -0.9189620653
	Saving final (previous) structure.
			--------------------------
			 OPTKING Finished Execution 
			--------------------------

    Final optimized geometry and variables:
    Molecular point group: cs
    Full point group: Cs

    Geometry (in Angstrom), charge = 0, multiplicity = 1:

    H            0.919523181601     1.865273226412     0.000000000000
    H           -0.918212481445     1.866764238657     0.000000000000
    C            0.000077283505     1.309310736646     0.000000000000
    C           -0.000574962445    -0.000005548030     0.000000000000
    C            0.000211331144    -1.309336938796     0.000000000000
    H            0.001049397001    -1.865829710559     0.918962065297
    H            0.001049397001    -1.865829710559    -0.918962065297

	Cleaning optimization helper files.
	Nuclear repulsion energy..........................................PASSED
	Reference energy..................................................PASSED

*** Psi4 exiting successfully. Buy a developer a beer!
