    -----------------------------------------------------------------------
          Psi4: An Open-Source Ab Initio Electronic Structure Package
                              Psi4 0.5 Driver

                          Git: Rev {master} dbe9080

    J. M. Turney, A. C. Simmonett, R. M. Parrish, E. G. Hohenstein,
    F. A. Evangelista, J. T. Fermann, B. J. Mintz, L. A. Burns, J. J. Wilke,
    M. L. Abrams, N. J. Russ, M. L. Leininger, C. L. Janssen, E. T. Seidl,
    W. D. Allen, H. F. Schaefer, R. A. King, E. F. Valeev, C. D. Sherrill,
    and T. D. Crawford, WIREs Comput. Mol. Sci. 2, 556-565 (2012)
    (doi: 10.1002/wcms.93)

                         Additional Contributions by
    A. E. DePrince, M. Saitow, U. Bozkaya, A. Yu. Sokolov
    -----------------------------------------------------------------------


    Psi4 started on: Mon Mar 14 15:26:49 2016

    Process ID:  12208
    PSI4DATADIR: /home/dsmith/Gits/dgas_psi/share
    Memory level set to 256.000 MB

  ==> Input File <==

--------------------------------------------------------------------------
#! ADC/aug-cc-pVDZ on two water molecules that are distant from 1000 angstroms from each other

memory 250 mb

molecule h2ox2 {
   o                               0.000000    0.000000    0.118621
   h                               0.000000    0.756713   -0.474484
   h                               0.000000   -0.756713   -0.474484
   o                               1000.000000    0.000000    0.118621
   h                               1000.000000    0.756713   -0.474484
   h                               1000.000000   -0.756713   -0.474484
 symmetry c1
}

set globals {
    reference rhf
    basis aug-cc-pvdz
    guess core
    roots_per_irrep [2]
}

ref_energy = -152.52670794053822
adc_energy = energy('adc')
compare_values(ref_energy, adc_energy, 7, "ADC GS energy")                            #TEST
--------------------------------------------------------------------------

  Memory set to 250.000 MiB by Python script.
    There are an even number of electrons - assuming singlet.
    Specify the multiplicity in the molecule input block.


*** tstart() called on ds1.sherrill.chemistry.gatech.edu
*** at Mon Mar 14 15:26:49 2016


         ---------------------------------------------------------
                                   SCF
            by Justin Turney, Rob Parrish, and Andy Simmonett
                              RHF Reference
                        1 Threads,    250 MiB Core
         ---------------------------------------------------------

  ==> Geometry <==

    Molecular point group: c1
    Full point group: C2v

    Geometry (in Angstrom), charge = 0, multiplicity = 1:

       Center              X                  Y                   Z               Mass       
    ------------   -----------------  -----------------  -----------------  -----------------
           O       -500.000000000000    -0.000000000000     0.066377270912    15.994914619560
           H       -500.000000000000     0.756713000000    -0.526727729088     1.007825032070
           H       -500.000000000000    -0.756713000000    -0.526727729088     1.007825032070
           O        500.000000000000    -0.000000000000     0.066377270912    15.994914619560
           H        500.000000000000     0.756713000000    -0.526727729088     1.007825032070
           H        500.000000000000    -0.756713000000    -0.526727729088     1.007825032070

  Running in c1 symmetry.

  Rotational constants: A =      4.72496  B =      0.00000  C =      0.00000 [cm^-1]
  Rotational constants: A = 141650.87643  B =      0.05612  C =      0.05612 [MHz]
  Nuclear repulsion =   18.364846813406356

  Charge       = 0
  Multiplicity = 1
  Electrons    = 20
  Nalpha       = 10
  Nbeta        = 10

  ==> Algorithm <==

  SCF Algorithm Type is PK.
  DIIS enabled.
  MOM disabled.
  Fractional occupation disabled.
  Guess Type is CORE.
  Energy threshold   = 1.00e-08
  Density threshold  = 1.00e-08
  Integral threshold = 0.00e+00

  ==> Primary Basis <==

  Basis Set: AUG-CC-PVDZ
    Number of shells: 38
    Number of basis function: 82
    Number of Cartesian functions: 86
    Spherical Harmonics?: true
    Max angular momentum: 2

  ==> Pre-Iterations <==

   -------------------------------------------------------
    Irrep   Nso     Nmo     Nalpha   Nbeta   Ndocc  Nsocc
   -------------------------------------------------------
     A         82      82       0       0       0       0
   -------------------------------------------------------
    Total      82      82      10      10      10       0
   -------------------------------------------------------

  ==> Integral Setup <==

	Batch   1 pq = [       0,    1711] index = [             0,1464616]
	Batch   2 pq = [    1711,    2420] index = [       1464616,2929410]
	Batch   3 pq = [    2420,    2964] index = [       2929410,4394130]
	Batch   4 pq = [    2964,    3403] index = [       4394130,5791906]
  ==> DiskJK: Disk-Based J/K Matrices <==

    J tasked:                  Yes
    K tasked:                  Yes
    wK tasked:                  No
    Memory (MB):               178
    Schwarz Cutoff:          1E-12

  Minimum eigenvalue in the overlap matrix is 2.6798838960E-03.
  Using Symmetric Orthogonalization.
  SCF Guess: Core (One-Electron) Hamiltonian.

  ==> Iterations <==

                        Total Energy        Delta E     RMS |[F,P]|

   @RHF iter   1:  -137.14825184741659   -1.37148e+02   5.70976e-02 
   @RHF iter   2:  -133.15826595280029    3.98999e+00   4.58744e-02 DIIS
   @RHF iter   3:  -150.58953117454820   -1.74313e+01   2.38907e-02 DIIS
   @RHF iter   4:  -151.79219157939576   -1.20266e+00   1.00952e-02 DIIS
   @RHF iter   5:  -152.08014987910423   -2.87958e-01   5.56205e-04 DIIS
   @RHF iter   6:  -152.08162607616345   -1.47620e-03   4.86463e-04 DIIS
   @RHF iter   7:  -152.08220351848755   -5.77442e-04   8.19305e-05 DIIS
   @RHF iter   8:  -152.08222856346947   -2.50450e-05   9.17479e-06 DIIS
   @RHF iter   9:  -152.08222923738916   -6.73920e-07   2.44122e-06 DIIS
   @RHF iter  10:  -152.08222925632657   -1.89374e-08   3.22813e-07 DIIS
   @RHF iter  11:  -152.08222925688193   -5.55360e-10   3.48427e-08 DIIS
   @RHF iter  12:  -152.08222925689276   -1.08287e-11   6.12360e-09 DIIS

  ==> Post-Iterations <==

    Orbital Energies (a.u.)
    -----------------------

    Doubly Occupied:                                                      

       1A    -20.578282     2A    -20.578282     3A     -1.354963  
       4A     -1.354963     5A     -0.715633     6A     -0.715633  
       7A     -0.586199     8A     -0.586199     9A     -0.509293  
      10A     -0.509293  

    Virtual:                                                              

      11A      0.035307    12A      0.035307    13A      0.057967  
      14A      0.057967    15A      0.173990    16A      0.173990  
      17A      0.196963    18A      0.196963    19A      0.222440  
      20A      0.222440    21A      0.231782    22A      0.231782  
      23A      0.289208    24A      0.289208    25A      0.331949  
      26A      0.331949    27A      0.385883    28A      0.385883  
      29A      0.402145    30A      0.402145    31A      0.432163  
      32A      0.432163    33A      0.539273    34A      0.539273  
      35A      0.647365    36A      0.647365    37A      0.658181  
      38A      0.658181    39A      0.808132    40A      0.808132  
      41A      0.930706    42A      0.930706    43A      1.102092  
      44A      1.102092    45A      1.116487    46A      1.116487  
      47A      1.148479    48A      1.148479    49A      1.302963  
      50A      1.302963    51A      1.464777    52A      1.464777  
      53A      1.481075    54A      1.481075    55A      1.583153  
      56A      1.583153    57A      2.002207    58A      2.002207  
      59A      2.007313    60A      2.007313    61A      2.108548  
      62A      2.108548    63A      2.358736    64A      2.358736  
      65A      2.475657    66A      2.475657    67A      2.620332  
      68A      2.620332    69A      2.711962    70A      2.711962  
      71A      2.971437    72A      2.971437    73A      3.673277  
      74A      3.673277    75A      3.690230    76A      3.690230  
      77A      3.701839    78A      3.701839    79A      4.017712  
      80A      4.017712    81A      4.301776    82A      4.301776  

    Final Occupation by Irrep:
              A 
    DOCC [    10 ]

  Energy converged.

  @RHF Final Energy:  -152.08222925689276

   => Energetics <=

    Nuclear Repulsion Energy =             18.3648468134063556
    One-Electron Energy =                -245.9166701524829932
    Two-Electron Energy =                  75.4695940821838178
    DFT Exchange-Correlation Energy =       0.0000000000000000
    Empirical Dispersion Energy =           0.0000000000000000
    PCM Polarization Energy =               0.0000000000000000
    EFP Energy =                            0.0000000000000000
    Total Energy =                       -152.0822292568928162

    Alert: EFP and PCM quantities not currently incorporated into SCF psivars.

Properties will be evaluated at   0.000000,   0.000000,   0.000000 Bohr
  ==> Properties <==


Properties computed using the SCF density matrix

  Nuclear Dipole Moment: (a.u.)
     X:    -0.0000      Y:     0.0000      Z:    -1.9745

  Electronic Dipole Moment: (a.u.)
     X:     0.0000      Y:     0.0000      Z:     0.3904

  Dipole Moment: (a.u.)
     X:     0.0000      Y:     0.0000      Z:    -1.5841     Total:     1.5841

  Dipole Moment: (Debye)
     X:     0.0000      Y:     0.0000      Z:    -4.0265     Total:     4.0265


  Saving occupied orbitals to File 180.

*** tstop() called on ds1.sherrill.chemistry.gatech.edu at Mon Mar 14 15:26:50 2016
Module time:
	user time   =       0.80 seconds =       0.01 minutes
	system time =       0.35 seconds =       0.01 minutes
	total time  =          1 seconds =       0.02 minutes
Total time:
	user time   =       0.80 seconds =       0.01 minutes
	system time =       0.35 seconds =       0.01 minutes
	total time  =          1 seconds =       0.02 minutes

*** tstart() called on ds1.sherrill.chemistry.gatech.edu
*** at Mon Mar 14 15:26:50 2016


	****************************************
	                 A D C                  
	 An Algebraic-Diagrammatic Construction 
	 based on direct-product decomposition  
	             Masaaki Saitow             
	****************************************



	Irrep  Core  Docc  Socc  aOcc  aVir  bOcc  bVir  FVir
	*****************************************************
	   A     0    10     0    10    72    10    72     0
	*****************************************************

	==> Input Parameters <==
	NEWTON_CONV = 1e-07, NORM_TOL = 1e-06
	POLE_MAX    =  20, SEM_MAX  =  30

	NXS           = 720
	NXS_PER_IRREP = [ 720 ]

	==> Transforming (OV|OV) Integrals <==
	Presorting SO-basis two-electron integrals.
	Sorting File: SO Ints (nn|nn) nbuckets = 1
	Transforming the one-electron integrals and constructing Fock matrices
	Starting first half-transformation.
	Sorting half-transformed integrals.
	First half integral transformation complete.
	Starting second half-transformation.
	Two-electron integral transformation complete.

	==> Transforming (OO|VV) Integrals <==
	Starting first half-transformation.
	Sorting half-transformed integrals.
	First half integral transformation complete.
	Starting second half-transformation.
	Two-electron integral transformation complete.

	==> Transforming (OV|OO) Integrals <==
	Starting first half-transformation.
	Sorting half-transformed integrals.
	First half integral transformation complete.
	Starting second half-transformation.
	Two-electron integral transformation complete.

	==> Transforming (OV|VV) Integrals <==
	Starting first half-transformation.
	Sorting half-transformed integrals.
	First half integral transformation complete.
	Starting second half-transformation.
	Two-electron integral transformation complete.

	==> Ground State <==
->	MP2 energy    =    -0.44447869088328
	[Squared-norm of MP1 wavefunction    =  1.1189013]
	PR-MP2 energy =    -0.43764468906691
	[Squared-norm of PR-MP1 wavefunction =  1.1151833]

	==> CIS/ADC(1) Level <==

	1  A state:  0.3179992 (a.u.),  8.6531970 (eV)
	---------------------------------------------
	          9   0         0.5923959598
	          8   1         0.5916729398
	          9   8        -0.2601764567
	          8   9        -0.2598589110
	          9   4        -0.2536037779

	2  A state:  0.3179992 (a.u.),  8.6531970 (eV)
	---------------------------------------------
	          8   1         0.5923959597
	          9   0        -0.5916729398
	          8   9        -0.2601764566
	          9   8         0.2598589109
	          8   5        -0.2536037779

	==> ADC(2) Computation <==

->	1  A state   :  0.2557608 (a.u.),  6.9596050 (eV)
	Non-iterative:  0.2559128 (a.u.),  6.9637402 (eV)
	         Occ Vir        Coefficient
	---------------------------------------------
	          9   0         0.6376963951
	          8   1         0.6369006181
	          9   8        -0.2144401331
	          8   9        -0.2141725347
	          9   4        -0.2071556096

	Converged in   4 iteration.
	Squared norm of the S component:  0.9313765
	The S vector is rotated up to  8.194 (deg.)

->	2  A state   :  0.2557608 (a.u.),  6.9596050 (eV)
	Non-iterative:  0.2559128 (a.u.),  6.9637402 (eV)
	         Occ Vir        Coefficient
	---------------------------------------------
	          8   1         0.6376943666
	          9   0        -0.6369026493
	          8   9        -0.2144394508
	          9   8         0.2141732176
	          8   5        -0.2071549505

	Converged in   4 iteration.
	Squared norm of the S component:  0.9313765
	The S vector is rotated up to  8.194 (deg.)

->	Corresponding GS total energy (a.u.) =  -152.52670794777603

*** tstop() called on ds1.sherrill.chemistry.gatech.edu at Mon Mar 14 15:27:08 2016
Module time:
	user time   =      12.74 seconds =       0.21 minutes
	system time =       5.41 seconds =       0.09 minutes
	total time  =         18 seconds =       0.30 minutes
Total time:
	user time   =      13.54 seconds =       0.23 minutes
	system time =       5.76 seconds =       0.10 minutes
	total time  =         19 seconds =       0.32 minutes

  ∩==
(: 3)))== kskkskkskksk         BOOOoooooOOOON!
  ∪==
	ADC GS energy.....................................................PASSED

*** PSI4 exiting successfully. Buy a developer a beer!
