
    -----------------------------------------------------------------------
          Psi4: An Open-Source Ab Initio Electronic Structure Package
                               Psi4 1.2rc4.dev2 

                         Git: Rev {fexp} 9cbd6ec 


    R. M. Parrish, L. A. Burns, D. G. A. Smith, A. C. Simmonett,
    A. E. DePrince III, E. G. Hohenstein, U. Bozkaya, A. Yu. Sokolov,
    R. Di Remigio, R. M. Richard, J. F. Gonthier, A. M. James,
    H. R. McAlexander, A. Kumar, M. Saitow, X. Wang, B. P. Pritchard,
    P. Verma, H. F. Schaefer III, K. Patkowski, R. A. King, E. F. Valeev,
    F. A. Evangelista, J. M. Turney, T. D. Crawford, and C. D. Sherrill,
    J. Chem. Theory Comput. 13(7) pp 3185--3197 (2017).
    (doi: 10.1021/acs.jctc.7b00174)


                         Additional Contributions by
    P. Kraus, H. Kruse, M. H. Lechner, M. C. Schieber, and R. A. Shaw

    -----------------------------------------------------------------------


    Psi4 started on: Monday, 02 July 2018 04:16PM

    Process ID: 2916
    Host:       psinet
    PSIDATADIR: /home/psilocaluser/gits/hrw-patch/objdir-intel4/stage/usr/local/psi4/share/psi4
    Memory:     500.0 MiB
    Threads:    1
    
  ==> Input File <==

--------------------------------------------------------------------------
#! A general test of the MintsHelper function

molecule mol {
O
H 1 1.1
H 1 1.1 2 104
}

scf_e, scf_wfn = energy("SCF/6-31G", return_wfn=True)

Cocc = scf_wfn.Ca_subset("AO", "OCC")
Cvir = scf_wfn.Ca_subset("AO", "VIR")

mints = MintsHelper(scf_wfn.basisset())

# Let us simply run several of ERI functions
I = mints.ao_eri()
Ierf = mints.ao_erf_eri(0.4)
ovlp3 = mints.ao_3coverlap()

# Transform ERI's
I_iaia1 = mints.mo_eri(Cocc, Cvir, Cocc, Cvir)
I_iaia2 = mints.mo_transform(I, Cocc, Cvir, Cocc, Cvir)

compare_matrices(I_iaia1, I_iaia2, 8, "(ia|ia) transform comparison")  #TEST

# Build a spin ERI
I_iaia_spin = mints.mo_spin_eri(Cocc, Cvir)
--------------------------------------------------------------------------

*** tstart() called on psinet
*** at Mon Jul  2 16:16:45 2018

   => Loading Basis Set <=

    Name: 6-31G
    Role: ORBITAL
    Keyword: BASIS
    atoms 1   entry O          line   117 file /home/psilocaluser/gits/hrw-patch/objdir-intel4/stage/usr/local/psi4/share/psi4/basis/6-31g.gbs 
    atoms 2-3 entry H          line    26 file /home/psilocaluser/gits/hrw-patch/objdir-intel4/stage/usr/local/psi4/share/psi4/basis/6-31g.gbs 

    There are an even number of electrons - assuming singlet.
    Specify the multiplicity in the molecule input block.


         ---------------------------------------------------------
                                   SCF
            by Justin Turney, Rob Parrish, Andy Simmonett
                             and Daniel Smith
                              RHF Reference
                        1 Threads,    500 MiB Core
         ---------------------------------------------------------

  ==> Geometry <==

    Molecular point group: c2v
    Full point group: C2v

    Geometry (in Angstrom), charge = 0, multiplicity = 1:

       Center              X                  Y                   Z               Mass       
    ------------   -----------------  -----------------  -----------------  -----------------
         O            0.000000000000     0.000000000000    -0.075791843589    15.994914619560
         H            0.000000000000    -0.866811828967     0.601435779270     1.007825032070
         H            0.000000000000     0.866811828967     0.601435779270     1.007825032070

  Running in c2v symmetry.

  Rotational constants: A =     20.53324  B =     11.13094  C =      7.21807 [cm^-1]
  Rotational constants: A = 615570.97611  B = 333697.07564  C = 216392.23421 [MHz]
  Nuclear repulsion =    8.002366450719078

  Charge       = 0
  Multiplicity = 1
  Electrons    = 10
  Nalpha       = 5
  Nbeta        = 5

  ==> Algorithm <==

  SCF Algorithm Type is DF.
  DIIS enabled.
  MOM disabled.
  Fractional occupation disabled.
  Guess Type is SAD.
  Energy threshold   = 1.00e-06
  Density threshold  = 1.00e-06
  Integral threshold = 0.00e+00

  ==> Primary Basis <==

  Basis Set: 6-31G
    Blend: 6-31G
    Number of shells: 9
    Number of basis function: 13
    Number of Cartesian functions: 13
    Spherical Harmonics?: false
    Max angular momentum: 1

   => Loading Basis Set <=

    Name: (6-31G AUX)
    Role: JKFIT
    Keyword: DF_BASIS_SCF
    atoms 1   entry O          line   221 file /home/psilocaluser/gits/hrw-patch/objdir-intel4/stage/usr/local/psi4/share/psi4/basis/cc-pvdz-jkfit.gbs 
    atoms 2-3 entry H          line    51 file /home/psilocaluser/gits/hrw-patch/objdir-intel4/stage/usr/local/psi4/share/psi4/basis/cc-pvdz-jkfit.gbs 

  ==> Pre-Iterations <==

   -------------------------------------------------------
    Irrep   Nso     Nmo     Nalpha   Nbeta   Ndocc  Nsocc
   -------------------------------------------------------
     A1         7       7       0       0       0       0
     A2         0       0       0       0       0       0
     B1         2       2       0       0       0       0
     B2         4       4       0       0       0       0
   -------------------------------------------------------
    Total      13      13       5       5       5       0
   -------------------------------------------------------

  ==> Integral Setup <==

  ==> DiskDFJK: Density-Fitted J/K Matrices <==

    J tasked:                  Yes
    K tasked:                  Yes
    wK tasked:                  No
    OpenMP threads:              1
    Integrals threads:           1
    Memory (MB):               375
    Algorithm:                Core
    Integral Cache:           NONE
    Schwarz Cutoff:          1E-12
    Fitting Condition:       1E-12

   => Auxiliary Basis Set <=

  Basis Set: (6-31G AUX)
    Blend: CC-PVDZ-JKFIT
    Number of shells: 42
    Number of basis function: 131
    Number of Cartesian functions: 131
    Spherical Harmonics?: false
    Max angular momentum: 3

  Minimum eigenvalue in the overlap matrix is 8.9222633057E-02.
  Using Symmetric Orthogonalization.

  SCF Guess: Superposition of Atomic Densities via on-the-fly atomic UHF.

  ==> Iterations <==

                           Total Energy        Delta E     RMS |[F,P]|

   @DF-RHF iter   0:   -75.75648814660489   -7.57565e+01   1.50555e-01 
   @DF-RHF iter   1:   -75.90716288277446   -1.50675e-01   3.30601e-02 
   @DF-RHF iter   2:   -75.93926135217687   -3.20985e-02   2.16487e-02 DIIS
   @DF-RHF iter   3:   -75.95121372037107   -1.19524e-02   3.39190e-03 DIIS
   @DF-RHF iter   4:   -75.95238677432545   -1.17305e-03   1.03719e-03 DIIS
   @DF-RHF iter   5:   -75.95250933208818   -1.22558e-04   1.60383e-04 DIIS
   @DF-RHF iter   6:   -75.95251278924641   -3.45716e-06   4.20953e-05 DIIS
   @DF-RHF iter   7:   -75.95251298162617   -1.92380e-07   2.87989e-06 DIIS
   @DF-RHF iter   8:   -75.95251298203809   -4.11916e-10   3.02728e-07 DIIS

  ==> Post-Iterations <==

    Orbital Energies [Eh]
    ---------------------

    Doubly Occupied:                                                      

       1A1   -20.588525     2A1    -1.293834     1B2    -0.637492  
       3A1    -0.540228     1B1    -0.496634  

    Virtual:                                                              

       4A1     0.166566     2B2     0.254888     3B2     1.005321  
       5A1     1.028526     2B1     1.163448     6A1     1.233584  
       4B2     1.363553     7A1     1.678234  

    Final Occupation by Irrep:
             A1    A2    B1    B2 
    DOCC [     3,    0,    1,    1 ]

  Energy converged.

  @DF-RHF Final Energy:   -75.95251298203809

   => Energetics <=

    Nuclear Repulsion Energy =              8.0023664507190784
    One-Electron Energy =                -120.7963236616466958
    Two-Electron Energy =                  36.8414442288895216
    Total Energy =                        -75.9525129820380869



Properties will be evaluated at   0.000000,   0.000000,   0.000000 [a0]

Properties computed using the SCF density matrix

  Nuclear Dipole Moment: [e a0]
     X:     0.0000      Y:     0.0000      Z:     1.1273

  Electronic Dipole Moment: [e a0]
     X:     0.0000      Y:     0.0000      Z:    -0.0795

  Dipole Moment: [e a0]
     X:     0.0000      Y:     0.0000      Z:     1.0478     Total:     1.0478

  Dipole Moment: [D]
     X:     0.0000      Y:     0.0000      Z:     2.6632     Total:     2.6632


*** tstop() called on psinet at Mon Jul  2 16:16:46 2018
Module time:
	user time   =       0.38 seconds =       0.01 minutes
	system time =       0.01 seconds =       0.00 minutes
	total time  =          1 seconds =       0.02 minutes
Total time:
	user time   =       0.38 seconds =       0.01 minutes
	system time =       0.01 seconds =       0.00 minutes
	total time  =          1 seconds =       0.02 minutes
	(ia|ia) transform comparison......................................PASSED

    Psi4 stopped on: Monday, 02 July 2018 04:16PM
    Psi4 wall time for execution: 0:00:00.54

*** Psi4 exiting successfully. Buy a developer a beer!
