
    -----------------------------------------------------------------------
          Psi4: An Open-Source Ab Initio Electronic Structure Package
                               Psi4 1.4rc2.dev32 

                         Git: Rev {pbe_xtpl} 6b3c892 dirty


    D. G. A. Smith, L. A. Burns, A. C. Simmonett, R. M. Parrish,
    M. C. Schieber, R. Galvelis, P. Kraus, H. Kruse, R. Di Remigio,
    A. Alenaizan, A. M. James, S. Lehtola, J. P. Misiewicz, M. Scheurer,
    R. A. Shaw, J. B. Schriber, Y. Xie, Z. L. Glick, D. A. Sirianni,
    J. S. O'Brien, J. M. Waldrop, A. Kumar, E. G. Hohenstein,
    B. P. Pritchard, B. R. Brooks, H. F. Schaefer III, A. Yu. Sokolov,
    K. Patkowski, A. E. DePrince III, U. Bozkaya, R. A. King,
    F. A. Evangelista, J. M. Turney, T. D. Crawford, C. D. Sherrill,
    J. Chem. Phys. 152(18) 184108 (2020). https://doi.org/10.1063/5.0006002

                            Additional Code Authors
    E. T. Seidl, C. L. Janssen, E. F. Valeev, M. L. Leininger,
    J. F. Gonthier, R. M. Richard, H. R. McAlexander, M. Saitow, X. Wang,
    P. Verma, and M. H. Lechner

             Previous Authors, Complete List of Code Contributors,
                       and Citations for Specific Modules
    https://github.com/psi4/psi4/blob/master/codemeta.json
    https://github.com/psi4/psi4/graphs/contributors
    http://psicode.org/psi4manual/master/introduction.html#citing-psifour

    -----------------------------------------------------------------------


    Psi4 started on: Thursday, 01 April 2021 02:43PM

    Process ID: 22449
    Host:       dorje
    PSIDATADIR: /home/kraus/Applications/psi4-pbe_xtpl/share/psi4
    Memory:     500.0 MiB
    Threads:    1
    
  ==> Input File <==

--------------------------------------------------------------------------
molecule {
0 1
O 0 0 0
H 0 0 1
H 0 1 0
}

# Values converged to 1e-9
ref_blyp_dt     = -76.434228968884
ref_blyp_d3_dt  = -76.434235158884
ref_b2plyp_d3_dt= -76.416397987029
ref_b2plyp_naive= -76.402475256624
ref_blyp_b2plyp = -76.387774735844
ref_blyp_d3_dt_grad = psi4.core.Matrix.from_list(
                      [[0.00000000000000,     0.00000000000000,    -0.05020298033034],
                       [0.00000000000000,     0.00343955901157,     0.02510474695159],
                       [0.00000000000000,    -0.00343955901157,     0.02510474695159]])

compare_values(ref_blyp_dt, energy('blyp/cc-pv[dt]z'), 7,           "BLYP/cc-[DT]")
compare_values(ref_blyp_d3_dt, energy('blyp-d3/cc-pv[dt]z'), 7,     "BLYP-D3/cc-[DT]")
compare_values(ref_b2plyp_d3_dt, energy('b2plyp-d3/cc-pv[dt]z'), 7, "B2PLYP-D3/cc-[DT]")

E = energy(cbs, cbs_metadata=[{'wfn': "b2plyp-d3", 'basis': "cc-pv[dt]z", 'component': "dft"}])
compare_values(ref_b2plyp_naive, E, 7, "B2PLYP-D3/cc-[DT] total DFA energy xtpl")

E = energy(cbs, cbs_metadata=[{'wfn': "blyp-d3", 'basis': "cc-pv[dt]z"},
                              {'wfn': "b2plyp-d3", 'basis': "cc-pvdz"}])
compare_values(ref_blyp_b2plyp, E, 7, "BLYP-D3/cc-[DT]+D:B2PLYP-D3/cc-pvdz with cbs_metadata")

E = energy('blyp-d3/cc-pv[dt]z+D:b2plyp-d3/cc-pvdz')
compare_values(ref_blyp_b2plyp, E, 7, "BLYP-D3/cc-[DT]+D:B2PLYP-D3/cc-pvdz as string")

G = gradient('blyp-d3/cc-pv[dt]z', dertype=1)
compare_matrices(ref_blyp_d3_dt_grad, G, 6, "BLYP-D3/cc-pv[dt]z analytic gradient")
compare_values(2, variable("CBS NUMBER"), "BLYP-D3/cc-pv[dt]z analytic gradient - 2 steps only")

--------------------------------------------------------------------------

Scratch directory: /tmp/

  //>>>>>>>>>>>>>>>>>>>>>>>>>>>>>>>>>>>//
  //     CBS Setup:blyp/cc-pv[dt]z     //
  //<<<<<<<<<<<<<<<<<<<<<<<<<<<<<<<<<<<//

    Naive listing of computations required.
           blyp / cc-pvdz                  for  DFT FUNCTIONAL TOTAL ENERGY
           blyp / cc-pvtz                  for  DFT FUNCTIONAL TOTAL ENERGY

    Enlightened listing of computations required.
           blyp / cc-pvdz                  for  DFT FUNCTIONAL TOTAL ENERGY
           blyp / cc-pvtz                  for  DFT FUNCTIONAL TOTAL ENERGY

    Full listing of computations to be obtained (required and bonus).
           blyp / cc-pvdz                  for  DFT TOTAL ENERGY
           blyp / cc-pvdz                  for  DFT TOTAL ENERGY
           blyp / cc-pvdz                  for  DFT FUNCTIONAL TOTAL ENERGY
           blyp / cc-pvtz                  for  DFT TOTAL ENERGY
           blyp / cc-pvtz                  for  DFT TOTAL ENERGY
           blyp / cc-pvtz                  for  DFT FUNCTIONAL TOTAL ENERGY

  //>>>>>>>>>>>>>>>>>>>>>>>>>>>>>>>>>>>//
  //  CBS Computation: BLYP / CC-PVDZ  //
  //<<<<<<<<<<<<<<<<<<<<<<<<<<<<<<<<<<<//


Scratch directory: /tmp/

*** tstart() called on dorje
*** at Thu Apr  1 14:43:08 2021

   => Loading Basis Set <=

    Name: CC-PVDZ
    Role: ORBITAL
    Keyword: BASIS
    atoms 1   entry O          line   198 file /home/kraus/Applications/psi4-pbe_xtpl/share/psi4/basis/cc-pvdz.gbs 
    atoms 2-3 entry H          line    22 file /home/kraus/Applications/psi4-pbe_xtpl/share/psi4/basis/cc-pvdz.gbs 


         ---------------------------------------------------------
                                   SCF
               by Justin Turney, Rob Parrish, Andy Simmonett
                          and Daniel G. A. Smith
                              RKS Reference
                        1 Threads,    500 MiB Core
         ---------------------------------------------------------

  ==> Geometry <==

    Molecular point group: c2v
    Full point group: C2v

    Geometry (in Angstrom), charge = 0, multiplicity = 1:

       Center              X                  Y                   Z               Mass       
    ------------   -----------------  -----------------  -----------------  -----------------
         O            0.000000000000     0.000000000000    -0.079135765818    15.994914619570
         H            0.000000000000    -0.707106781187     0.627971015369     1.007825032230
         H           -0.000000000000     0.707106781187     0.627971015369     1.007825032230

  Running in c2v symmetry.

  Rotational constants: A =     18.83462  B =     16.72674  C =      8.85910 [cm^-1]
  Rotational constants: A = 564647.56744  B = 501455.10648  C = 265589.24668 [MHz]
  Nuclear repulsion =    8.841020164834140

  Charge       = 0
  Multiplicity = 1
  Electrons    = 10
  Nalpha       = 5
  Nbeta        = 5

  ==> Algorithm <==

  SCF Algorithm Type is DF.
  DIIS enabled.
  MOM disabled.
  Fractional occupation disabled.
  Guess Type is SAD.
  Energy threshold   = 1.00e-06
  Density threshold  = 1.00e-06
  Integral threshold = 1.00e-12

  ==> Primary Basis <==

  Basis Set: CC-PVDZ
    Blend: CC-PVDZ
    Number of shells: 12
    Number of basis functions: 24
    Number of Cartesian functions: 25
    Spherical Harmonics?: true
    Max angular momentum: 2

  ==> DFT Potential <==

   => Composite Functional: BLYP <= 

    BLYP GGA Exchange-Correlation Functional

    P.J. Stephens et. al., J. Phys. Chem., 98, 11623-11627, 1994
    B. Miehlich et. al., Chem. Phys. Lett., 157(3), 200-206 1989


    Deriv               =              1
    GGA                 =           TRUE
    Meta                =          FALSE

    Exchange Hybrid     =          FALSE
    MP2 Hybrid          =          FALSE

   => Exchange Functionals <=

    1.0000     XC_GGA_X_B88

   => Correlation Functionals <=

    1.0000     XC_GGA_C_LYP

   => LibXC Density Thresholds  <==

    XC_GGA_C_LYP:  1.00E-14 
    XC_GGA_X_B88:  1.00E-15 

   => Molecular Quadrature <=

    Radial Scheme          =       TREUTLER
    Pruning Scheme         =           NONE
    Nuclear Scheme         =       TREUTLER

    BS radius alpha        =              1
    Pruning alpha          =              1
    Radial Points          =             75
    Spherical Points       =            302
    Total Points           =          66297
    Total Blocks           =            549
    Max Points             =            256
    Max Functions          =             24
    Weights Tolerance      =       1.00E-15

   => Loading Basis Set <=

    Name: (CC-PVDZ AUX)
    Role: JKFIT
    Keyword: DF_BASIS_SCF
    atoms 1   entry O          line   221 file /home/kraus/Applications/psi4-pbe_xtpl/share/psi4/basis/cc-pvdz-jkfit.gbs 
    atoms 2-3 entry H          line    51 file /home/kraus/Applications/psi4-pbe_xtpl/share/psi4/basis/cc-pvdz-jkfit.gbs 

  ==> Integral Setup <==

  DFHelper Memory: AOs need 0.001 GiB; user supplied 0.320 GiB. Using in-core AOs.

  ==> MemDFJK: Density-Fitted J/K Matrices <==

    J tasked:                   Yes
    K tasked:                    No
    wK tasked:                   No
    OpenMP threads:               1
    Memory [MiB]:               327
    Algorithm:                 Core
    Schwarz Cutoff:           1E-12
    Mask sparsity (%):       0.0000
    Fitting Condition:        1E-10

   => Auxiliary Basis Set <=

  Basis Set: (CC-PVDZ AUX)
    Blend: CC-PVDZ-JKFIT
    Number of shells: 42
    Number of basis functions: 116
    Number of Cartesian functions: 131
    Spherical Harmonics?: true
    Max angular momentum: 3

  Cached 100.0% of DFT collocation blocks in 0.046 [GiB].

  Minimum eigenvalue in the overlap matrix is 3.3911067039E-02.
  Reciprocal condition number of the overlap matrix is 1.0848223856E-02.
    Using symmetric orthogonalization.

  ==> Pre-Iterations <==

  SCF Guess: Superposition of Atomic Densities via on-the-fly atomic UHF (no occupation information).

   -------------------------
    Irrep   Nso     Nmo    
   -------------------------
     A1        11      11 
     A2         2       2 
     B1         4       4 
     B2         7       7 
   -------------------------
    Total      24      24
   -------------------------

  ==> Iterations <==

                           Total Energy        Delta E     RMS |[F,P]|

   @DF-RKS iter SAD:   -76.11737821378206   -7.61174e+01   0.00000e+00 
   @DF-RKS iter   1:   -76.21426884776137   -9.68906e-02   5.06156e-02 DIIS
   @DF-RKS iter   2:   -75.73171366251709    4.82555e-01   9.11887e-02 DIIS
   @DF-RKS iter   3:   -76.39377004505930   -6.62056e-01   3.59128e-03 DIIS
   @DF-RKS iter   4:   -76.39500197554882   -1.23193e-03   6.77977e-04 DIIS
   @DF-RKS iter   5:   -76.39504041149642   -3.84359e-05   9.18864e-05 DIIS
   @DF-RKS iter   6:   -76.39504099939235   -5.87896e-07   5.46410e-06 DIIS
   @DF-RKS iter   7:   -76.39504100297559   -3.58324e-09   3.33323e-07 DIIS
  Energy and wave function converged.


  ==> Post-Iterations <==

   Electrons on quadrature grid:
      Ntotal   =   10.0000001784 ; deviation = 1.784e-07 

    Orbital Energies [Eh]
    ---------------------

    Doubly Occupied:                                                      

       1A1   -18.779708     2A1    -0.890307     1B2    -0.413345  
       3A1    -0.326866     1B1    -0.222126  

    Virtual:                                                              

       4A1     0.013847     2B2     0.090472     3B2     0.465651  
       5A1     0.569897     2B1     0.857825     6A1     0.881073  
       4B2     0.953157     7A1     1.033643     1A2     1.230543  
       3B1     1.297136     8A1     1.521289     5B2     1.649641  
       6B2     1.976698     9A1     2.017143     2A2     2.804016  
       4B1     2.864332    10A1     2.952248    11A1     3.326233  
       7B2     3.652377  

    Final Occupation by Irrep:
             A1    A2    B1    B2 
    DOCC [     3,    0,    1,    1 ]

  @DF-RKS Final Energy:   -76.39504100297559

   => Energetics <=

    Nuclear Repulsion Energy =              8.8410201648341395
    One-Electron Energy =                -122.5194372241415408
    Two-Electron Energy =                  46.5937365591460164
    DFT Exchange-Correlation Energy =      -9.3103605028141967
    Empirical Dispersion Energy =           0.0000000000000000
    VV10 Nonlocal Energy =                  0.0000000000000000
    Total Energy =                        -76.3950410029755886

Computation Completed


Properties will be evaluated at   0.000000,   0.000000,   0.000000 [a0]

Properties computed using the SCF density matrix

  Nuclear Dipole Moment: [e a0]
     X:     0.0000      Y:     0.0000      Z:     1.1770

  Electronic Dipole Moment: [e a0]
     X:     0.0000      Y:     0.0000      Z:    -0.3836

  Dipole Moment: [e a0]
     X:     0.0000      Y:     0.0000      Z:     0.7934     Total:     0.7934

  Dipole Moment: [D]
     X:     0.0000      Y:     0.0000      Z:     2.0166     Total:     2.0166


*** tstop() called on dorje at Thu Apr  1 14:43:09 2021
Module time:
	user time   =       0.81 seconds =       0.01 minutes
	system time =       0.06 seconds =       0.00 minutes
	total time  =          1 seconds =       0.02 minutes
Total time:
	user time   =       0.81 seconds =       0.01 minutes
	system time =       0.06 seconds =       0.00 minutes
	total time  =          1 seconds =       0.02 minutes

  //>>>>>>>>>>>>>>>>>>>>>>>>>>>>>>>>>>>//
  //  CBS Computation: BLYP / CC-PVTZ  //
  //<<<<<<<<<<<<<<<<<<<<<<<<<<<<<<<<<<<//


Scratch directory: /tmp/

*** tstart() called on dorje
*** at Thu Apr  1 14:43:09 2021

   => Loading Basis Set <=

    Name: CC-PVTZ
    Role: ORBITAL
    Keyword: BASIS
    atoms 1   entry O          line   262 file /home/kraus/Applications/psi4-pbe_xtpl/share/psi4/basis/cc-pvtz.gbs 
    atoms 2-3 entry H          line    23 file /home/kraus/Applications/psi4-pbe_xtpl/share/psi4/basis/cc-pvtz.gbs 


         ---------------------------------------------------------
                                   SCF
               by Justin Turney, Rob Parrish, Andy Simmonett
                          and Daniel G. A. Smith
                              RKS Reference
                        1 Threads,    500 MiB Core
         ---------------------------------------------------------

  ==> Geometry <==

    Molecular point group: c2v
    Full point group: C2v

    Geometry (in Angstrom), charge = 0, multiplicity = 1:

       Center              X                  Y                   Z               Mass       
    ------------   -----------------  -----------------  -----------------  -----------------
         O            0.000000000000     0.000000000000    -0.079135765818    15.994914619570
         H            0.000000000000    -0.707106781187     0.627971015369     1.007825032230
         H           -0.000000000000     0.707106781187     0.627971015369     1.007825032230

  Running in c2v symmetry.

  Rotational constants: A =     18.83462  B =     16.72674  C =      8.85910 [cm^-1]
  Rotational constants: A = 564647.56744  B = 501455.10648  C = 265589.24668 [MHz]
  Nuclear repulsion =    8.841020164834140

  Charge       = 0
  Multiplicity = 1
  Electrons    = 10
  Nalpha       = 5
  Nbeta        = 5

  ==> Algorithm <==

  SCF Algorithm Type is DF.
  DIIS enabled.
  MOM disabled.
  Fractional occupation disabled.
  Guess Type is SAD.
  Energy threshold   = 1.00e-06
  Density threshold  = 1.00e-06
  Integral threshold = 1.00e-12

  ==> Primary Basis <==

  Basis Set: CC-PVTZ
    Blend: CC-PVTZ
    Number of shells: 22
    Number of basis functions: 58
    Number of Cartesian functions: 65
    Spherical Harmonics?: true
    Max angular momentum: 3

  ==> DFT Potential <==

   => Composite Functional: BLYP <= 

    BLYP GGA Exchange-Correlation Functional

    P.J. Stephens et. al., J. Phys. Chem., 98, 11623-11627, 1994
    B. Miehlich et. al., Chem. Phys. Lett., 157(3), 200-206 1989


    Deriv               =              1
    GGA                 =           TRUE
    Meta                =          FALSE

    Exchange Hybrid     =          FALSE
    MP2 Hybrid          =          FALSE

   => Exchange Functionals <=

    1.0000     XC_GGA_X_B88

   => Correlation Functionals <=

    1.0000     XC_GGA_C_LYP

   => LibXC Density Thresholds  <==

    XC_GGA_C_LYP:  1.00E-14 
    XC_GGA_X_B88:  1.00E-15 

   => Molecular Quadrature <=

    Radial Scheme          =       TREUTLER
    Pruning Scheme         =           NONE
    Nuclear Scheme         =       TREUTLER

    BS radius alpha        =              1
    Pruning alpha          =              1
    Radial Points          =             75
    Spherical Points       =            302
    Total Points           =          66413
    Total Blocks           =            550
    Max Points             =            256
    Max Functions          =             58
    Weights Tolerance      =       1.00E-15

   => Loading Basis Set <=

    Name: (CC-PVTZ AUX)
    Role: JKFIT
    Keyword: DF_BASIS_SCF
    atoms 1   entry O          line   229 file /home/kraus/Applications/psi4-pbe_xtpl/share/psi4/basis/cc-pvtz-jkfit.gbs 
    atoms 2-3 entry H          line    51 file /home/kraus/Applications/psi4-pbe_xtpl/share/psi4/basis/cc-pvtz-jkfit.gbs 

  ==> Integral Setup <==

  DFHelper Memory: AOs need 0.004 GiB; user supplied 0.257 GiB. Using in-core AOs.

  ==> MemDFJK: Density-Fitted J/K Matrices <==

    J tasked:                   Yes
    K tasked:                    No
    wK tasked:                   No
    OpenMP threads:               1
    Memory [MiB]:               263
    Algorithm:                 Core
    Schwarz Cutoff:           1E-12
    Mask sparsity (%):       0.0000
    Fitting Condition:        1E-10

   => Auxiliary Basis Set <=

  Basis Set: (CC-PVTZ AUX)
    Blend: CC-PVTZ-JKFIT
    Number of shells: 45
    Number of basis functions: 139
    Number of Cartesian functions: 166
    Spherical Harmonics?: true
    Max angular momentum: 4

  Cached 100.0% of DFT collocation blocks in 0.109 [GiB].

  Minimum eigenvalue in the overlap matrix is 2.6866808554E-03.
  Reciprocal condition number of the overlap matrix is 6.1900886208E-04.
    Using symmetric orthogonalization.

  ==> Pre-Iterations <==

  SCF Guess: Superposition of Atomic Densities via on-the-fly atomic UHF (no occupation information).

   -------------------------
    Irrep   Nso     Nmo    
   -------------------------
     A1        23      23 
     A2         7       7 
     B1        11      11 
     B2        17      17 
   -------------------------
    Total      58      58
   -------------------------

  ==> Iterations <==

                           Total Energy        Delta E     RMS |[F,P]|

   @DF-RKS iter SAD:   -76.11842533299222   -7.61184e+01   0.00000e+00 
   @DF-RKS iter   1:   -76.22280892292764   -1.04384e-01   2.52718e-02 DIIS
   @DF-RKS iter   2:   -75.48348729760149    7.39322e-01   4.84990e-02 DIIS
   @DF-RKS iter   3:   -76.43219623041340   -9.48709e-01   2.93740e-03 DIIS
   @DF-RKS iter   4:   -76.43598215221373   -3.78592e-03   5.55997e-04 DIIS
   @DF-RKS iter   5:   -76.43611018488212   -1.28033e-04   6.53992e-05 DIIS
   @DF-RKS iter   6:   -76.43611161031136   -1.42543e-06   5.60768e-06 DIIS
   @DF-RKS iter   7:   -76.43611162378122   -1.34699e-08   4.75215e-07 DIIS
  Energy and wave function converged.


  ==> Post-Iterations <==

   Electrons on quadrature grid:
      Ntotal   =   10.0000009532 ; deviation = 9.532e-07 

    Orbital Energies [Eh]
    ---------------------

    Doubly Occupied:                                                      

       1A1   -18.775108     2A1    -0.906085     1B2    -0.429038  
       3A1    -0.349261     1B1    -0.246728  

    Virtual:                                                              

       4A1    -0.009109     2B2     0.065813     3B2     0.303648  
       5A1     0.381239     6A1     0.469537     2B1     0.533692  
       7A1     0.542045     4B2     0.592560     1A2     0.669401  
       3B1     0.686201     8A1     0.919038     5B2     0.986847  
       6B2     1.194706     9A1     1.234195     2A2     1.687851  
       4B1     1.741232    10A1     1.767272     7B2     1.818162  
      11A1     1.899869    12A1     2.200685     8B2     2.517107  
       5B1     2.869747    13A1     3.011289     6B1     3.224594  
       9B2     3.282670     3A2     3.298492    10B2     3.503907  
      14A1     3.533001    11B2     3.560403     4A2     3.565515  
       7B1     3.603849    15A1     3.613512    16A1     3.874765  
       5A2     3.885546     8B1     4.129521    12B2     4.142733  
      17A1     4.557038    13B2     4.592387    18A1     4.732110  
      14B2     4.946881     9B1     5.430555    19A1     5.946710  
      15B2     6.087467    10B1     6.145460     6A2     6.198358  
      20A1     6.265379    11B1     6.454391     7A2     6.583441  
      21A1     6.646825    22A1     6.836241    16B2     7.115944  
      17B2     7.521645    23A1    11.319596  

    Final Occupation by Irrep:
             A1    A2    B1    B2 
    DOCC [     3,    0,    1,    1 ]

  @DF-RKS Final Energy:   -76.43611162378122

   => Energetics <=

    Nuclear Repulsion Energy =              8.8410201648341395
    One-Electron Energy =                -122.4654697548774038
    Two-Electron Energy =                  46.4798423816074262
    DFT Exchange-Correlation Energy =      -9.2915044153453668
    Empirical Dispersion Energy =           0.0000000000000000
    VV10 Nonlocal Energy =                  0.0000000000000000
    Total Energy =                        -76.4361116237812155

Computation Completed


Properties will be evaluated at   0.000000,   0.000000,   0.000000 [a0]

Properties computed using the SCF density matrix

  Nuclear Dipole Moment: [e a0]
     X:     0.0000      Y:     0.0000      Z:     1.1770

  Electronic Dipole Moment: [e a0]
     X:     0.0000      Y:     0.0000      Z:    -0.3649

  Dipole Moment: [e a0]
     X:     0.0000      Y:     0.0000      Z:     0.8121     Total:     0.8121

  Dipole Moment: [D]
     X:     0.0000      Y:     0.0000      Z:     2.0642     Total:     2.0642


*** tstop() called on dorje at Thu Apr  1 14:43:10 2021
Module time:
	user time   =       1.96 seconds =       0.03 minutes
	system time =       0.02 seconds =       0.00 minutes
	total time  =          1 seconds =       0.02 minutes
Total time:
	user time   =       2.78 seconds =       0.05 minutes
	system time =       0.08 seconds =       0.00 minutes
	total time  =          2 seconds =       0.03 minutes

  //>>>>>>>>>>>>>>>>>>>>>>>>>>>>>>>>>>>//
  //    CBS Results:blyp/cc-pv[dt]z    //
  //<<<<<<<<<<<<<<<<<<<<<<<<<<<<<<<<<<<//


   ==> 2-point exp.-sqrt. form SCF extrapolation for method: BLYP <==

   LO-zeta (2) Energy:               -76.395041002976
   HI-zeta (3) Energy:               -76.436111623781
   Alpha (exponent) Value:             3.622000000000
   Beta (coefficient) Value:          -0.998417018394

   @Extrapolated BLYP/(D,T):        -76.434228968775


   ==> Components <==

  ---------------------------------------------------------------------------------------------------------
                          Method / Basis                      Rqd      Energy [Eh]   Variable
  ---------------------------------------------------------------------------------------------------------
                            blyp / cc-pvdz                            -76.39504100   DFT TOTAL ENERGY
                            blyp / cc-pvdz                            -76.39504100   DFT TOTAL ENERGY
                            blyp / cc-pvdz                      *     -76.39504100   DFT FUNCTIONAL TOTAL ENERGY
                            blyp / cc-pvtz                            -76.43611162   DFT TOTAL ENERGY
                            blyp / cc-pvtz                            -76.43611162   DFT TOTAL ENERGY
                            blyp / cc-pvtz                      *     -76.43611162   DFT FUNCTIONAL TOTAL ENERGY
  ---------------------------------------------------------------------------------------------------------

   ==> Stages <==

  ---------------------------------------------------------------------------------------------------------
      Stage               Method / Basis                       Wt      Energy [Eh]   Scheme
  ---------------------------------------------------------------------------------------------------------
       fctl                 blyp / cc-pv[dt]z                   1     -76.43422897   xtpl_expsqrt_2
  ---------------------------------------------------------------------------------------------------------

   ==> CBS <==

  ---------------------------------------------------------------------------------------------------------
      Stage               Method / Basis                               Energy [Eh]   Scheme
  ---------------------------------------------------------------------------------------------------------
       fctl                 blyp / cc-pv[dt]z                         -76.43422897   xtpl_expsqrt_2
      total                  CBS                                      -76.43422897   
  ---------------------------------------------------------------------------------------------------------
   => Loading Basis Set <=

    Name: DEF2-SVP
    Role: ORBITAL
    Keyword: BASIS
    atoms 1   entry O          line   130 file /home/kraus/Applications/psi4-pbe_xtpl/share/psi4/basis/def2-svp.gbs 
    atoms 2-3 entry H          line    15 file /home/kraus/Applications/psi4-pbe_xtpl/share/psi4/basis/def2-svp.gbs 

    BLYP/cc-[DT]..........................................................................PASSED

Scratch directory: /tmp/

  //>>>>>>>>>>>>>>>>>>>>>>>>>>>>>>>>>>>//
  //    CBS Setup:blyp-d3/cc-pv[dt]z   //
  //<<<<<<<<<<<<<<<<<<<<<<<<<<<<<<<<<<<//

    Naive listing of computations required.
        blyp-d3 / cc-pvdz                  for  DFT FUNCTIONAL TOTAL ENERGY
        blyp-d3 / cc-pvtz                  for  DFT FUNCTIONAL TOTAL ENERGY
        blyp-d3 / cc-pvtz                  for  DISPERSION CORRECTION ENERGY

    Enlightened listing of computations required.
        blyp-d3 / cc-pvdz                  for  DFT FUNCTIONAL TOTAL ENERGY
        blyp-d3 / cc-pvtz                  for  DFT FUNCTIONAL TOTAL ENERGY

    Full listing of computations to be obtained (required and bonus).
        blyp-d3 / cc-pvdz                  for  DFT TOTAL ENERGY
        blyp-d3 / cc-pvdz                  for  DFT TOTAL ENERGY
        blyp-d3 / cc-pvdz                  for  DFT FUNCTIONAL TOTAL ENERGY
        blyp-d3 / cc-pvdz                  for  DISPERSION CORRECTION ENERGY
        blyp-d3 / cc-pvtz                  for  DFT TOTAL ENERGY
        blyp-d3 / cc-pvtz                  for  DFT TOTAL ENERGY
        blyp-d3 / cc-pvtz                  for  DFT FUNCTIONAL TOTAL ENERGY
        blyp-d3 / cc-pvtz                  for  DISPERSION CORRECTION ENERGY

  //>>>>>>>>>>>>>>>>>>>>>>>>>>>>>>>>>>>>//
  // CBS Computation: BLYP-D3 / CC-PVDZ //
  //<<<<<<<<<<<<<<<<<<<<<<<<<<<<<<<<<<<<//


Scratch directory: /tmp/

*** tstart() called on dorje
*** at Thu Apr  1 14:43:11 2021

   => Loading Basis Set <=

    Name: CC-PVDZ
    Role: ORBITAL
    Keyword: BASIS
    atoms 1   entry O          line   198 file /home/kraus/Applications/psi4-pbe_xtpl/share/psi4/basis/cc-pvdz.gbs 
    atoms 2-3 entry H          line    22 file /home/kraus/Applications/psi4-pbe_xtpl/share/psi4/basis/cc-pvdz.gbs 

   => BLYP-D3: Empirical Dispersion <=

    Grimme's -D3 (zero-damping) Dispersion Correction
    Grimme S.; Antony J.; Ehrlich S.; Krieg H. (2010), J. Chem. Phys., 132: 154104

        s6 =       1.000000
        s8 =       1.682000
       sr6 =       1.094000
    alpha6 =      14.000000
       sr8 =       1.000000


         ---------------------------------------------------------
                                   SCF
               by Justin Turney, Rob Parrish, Andy Simmonett
                          and Daniel G. A. Smith
                              RKS Reference
                        1 Threads,    500 MiB Core
         ---------------------------------------------------------

  ==> Geometry <==

    Molecular point group: c2v
    Full point group: C2v

    Geometry (in Angstrom), charge = 0, multiplicity = 1:

       Center              X                  Y                   Z               Mass       
    ------------   -----------------  -----------------  -----------------  -----------------
         O            0.000000000000     0.000000000000    -0.079135765818    15.994914619570
         H            0.000000000000    -0.707106781187     0.627971015369     1.007825032230
         H           -0.000000000000     0.707106781187     0.627971015369     1.007825032230

  Running in c2v symmetry.

  Rotational constants: A =     18.83462  B =     16.72674  C =      8.85910 [cm^-1]
  Rotational constants: A = 564647.56744  B = 501455.10648  C = 265589.24668 [MHz]
  Nuclear repulsion =    8.841020164834140

  Charge       = 0
  Multiplicity = 1
  Electrons    = 10
  Nalpha       = 5
  Nbeta        = 5

  ==> Algorithm <==

  SCF Algorithm Type is DF.
  DIIS enabled.
  MOM disabled.
  Fractional occupation disabled.
  Guess Type is SAD.
  Energy threshold   = 1.00e-06
  Density threshold  = 1.00e-06
  Integral threshold = 1.00e-12

  ==> Primary Basis <==

  Basis Set: CC-PVDZ
    Blend: CC-PVDZ
    Number of shells: 12
    Number of basis functions: 24
    Number of Cartesian functions: 25
    Spherical Harmonics?: true
    Max angular momentum: 2

  ==> DFT Potential <==

   => Composite Functional: BLYP-D3ZERO <= 

    BLYP GGA Exchange-Correlation Functional

    P.J. Stephens et. al., J. Phys. Chem., 98, 11623-11627, 1994
    B. Miehlich et. al., Chem. Phys. Lett., 157(3), 200-206 1989


    Deriv               =              1
    GGA                 =           TRUE
    Meta                =          FALSE

    Exchange Hybrid     =          FALSE
    MP2 Hybrid          =          FALSE

   => Exchange Functionals <=

    1.0000     XC_GGA_X_B88

   => Correlation Functionals <=

    1.0000     XC_GGA_C_LYP

   => LibXC Density Thresholds  <==

    XC_GGA_C_LYP:  1.00E-14 
    XC_GGA_X_B88:  1.00E-15 

   => Molecular Quadrature <=

    Radial Scheme          =       TREUTLER
    Pruning Scheme         =           NONE
    Nuclear Scheme         =       TREUTLER

    BS radius alpha        =              1
    Pruning alpha          =              1
    Radial Points          =             75
    Spherical Points       =            302
    Total Points           =          66297
    Total Blocks           =            549
    Max Points             =            256
    Max Functions          =             24
    Weights Tolerance      =       1.00E-15

   => Loading Basis Set <=

    Name: (CC-PVDZ AUX)
    Role: JKFIT
    Keyword: DF_BASIS_SCF
    atoms 1   entry O          line   221 file /home/kraus/Applications/psi4-pbe_xtpl/share/psi4/basis/cc-pvdz-jkfit.gbs 
    atoms 2-3 entry H          line    51 file /home/kraus/Applications/psi4-pbe_xtpl/share/psi4/basis/cc-pvdz-jkfit.gbs 

  ==> Integral Setup <==

  DFHelper Memory: AOs need 0.001 GiB; user supplied 0.320 GiB. Using in-core AOs.

  ==> MemDFJK: Density-Fitted J/K Matrices <==

    J tasked:                   Yes
    K tasked:                    No
    wK tasked:                   No
    OpenMP threads:               1
    Memory [MiB]:               327
    Algorithm:                 Core
    Schwarz Cutoff:           1E-12
    Mask sparsity (%):       0.0000
    Fitting Condition:        1E-10

   => Auxiliary Basis Set <=

  Basis Set: (CC-PVDZ AUX)
    Blend: CC-PVDZ-JKFIT
    Number of shells: 42
    Number of basis functions: 116
    Number of Cartesian functions: 131
    Spherical Harmonics?: true
    Max angular momentum: 3

  Cached 100.0% of DFT collocation blocks in 0.046 [GiB].

  Minimum eigenvalue in the overlap matrix is 3.3911067039E-02.
  Reciprocal condition number of the overlap matrix is 1.0848223856E-02.
    Using symmetric orthogonalization.

  ==> Pre-Iterations <==

  SCF Guess: Superposition of Atomic Densities via on-the-fly atomic UHF (no occupation information).

   -------------------------
    Irrep   Nso     Nmo    
   -------------------------
     A1        11      11 
     A2         2       2 
     B1         4       4 
     B2         7       7 
   -------------------------
    Total      24      24
   -------------------------

  ==> Iterations <==

                           Total Energy        Delta E     RMS |[F,P]|

   @DF-RKS iter SAD:   -76.11738440378205   -7.61174e+01   0.00000e+00 
   @DF-RKS iter   1:   -76.21427503776137   -9.68906e-02   5.06156e-02 DIIS
   @DF-RKS iter   2:   -75.73171985251709    4.82555e-01   9.11887e-02 DIIS
   @DF-RKS iter   3:   -76.39377623505929   -6.62056e-01   3.59128e-03 DIIS
   @DF-RKS iter   4:   -76.39500816554882   -1.23193e-03   6.77977e-04 DIIS
   @DF-RKS iter   5:   -76.39504660149642   -3.84359e-05   9.18864e-05 DIIS
   @DF-RKS iter   6:   -76.39504718939234   -5.87896e-07   5.46410e-06 DIIS
   @DF-RKS iter   7:   -76.39504719297558   -3.58324e-09   3.33323e-07 DIIS
  Energy and wave function converged.


  ==> Post-Iterations <==

   Electrons on quadrature grid:
      Ntotal   =   10.0000001784 ; deviation = 1.784e-07 

    Orbital Energies [Eh]
    ---------------------

    Doubly Occupied:                                                      

       1A1   -18.779708     2A1    -0.890307     1B2    -0.413345  
       3A1    -0.326866     1B1    -0.222126  

    Virtual:                                                              

       4A1     0.013847     2B2     0.090472     3B2     0.465651  
       5A1     0.569897     2B1     0.857825     6A1     0.881073  
       4B2     0.953157     7A1     1.033643     1A2     1.230543  
       3B1     1.297136     8A1     1.521289     5B2     1.649641  
       6B2     1.976698     9A1     2.017143     2A2     2.804016  
       4B1     2.864332    10A1     2.952248    11A1     3.326233  
       7B2     3.652377  

    Final Occupation by Irrep:
             A1    A2    B1    B2 
    DOCC [     3,    0,    1,    1 ]

  @DF-RKS Final Energy:   -76.39504719297558

   => Energetics <=

    Nuclear Repulsion Energy =              8.8410201648341395
    One-Electron Energy =                -122.5194372241415408
    Two-Electron Energy =                  46.5937365591460164
    DFT Exchange-Correlation Energy =      -9.3103605028141967
    Empirical Dispersion Energy =          -0.0000061900000000
    VV10 Nonlocal Energy =                  0.0000000000000000
    Total Energy =                        -76.3950471929755821

Computation Completed


Properties will be evaluated at   0.000000,   0.000000,   0.000000 [a0]

Properties computed using the SCF density matrix

  Nuclear Dipole Moment: [e a0]
     X:     0.0000      Y:     0.0000      Z:     1.1770

  Electronic Dipole Moment: [e a0]
     X:     0.0000      Y:     0.0000      Z:    -0.3836

  Dipole Moment: [e a0]
     X:     0.0000      Y:     0.0000      Z:     0.7934     Total:     0.7934

  Dipole Moment: [D]
     X:     0.0000      Y:     0.0000      Z:     2.0166     Total:     2.0166


*** tstop() called on dorje at Thu Apr  1 14:43:13 2021
Module time:
	user time   =       1.21 seconds =       0.02 minutes
	system time =       0.04 seconds =       0.00 minutes
	total time  =          2 seconds =       0.03 minutes
Total time:
	user time   =       4.13 seconds =       0.07 minutes
	system time =       0.12 seconds =       0.00 minutes
	total time  =          5 seconds =       0.08 minutes

  //>>>>>>>>>>>>>>>>>>>>>>>>>>>>>>>>>>>>//
  // CBS Computation: BLYP-D3 / CC-PVTZ //
  //<<<<<<<<<<<<<<<<<<<<<<<<<<<<<<<<<<<<//


Scratch directory: /tmp/

*** tstart() called on dorje
*** at Thu Apr  1 14:43:13 2021

   => Loading Basis Set <=

    Name: CC-PVTZ
    Role: ORBITAL
    Keyword: BASIS
    atoms 1   entry O          line   262 file /home/kraus/Applications/psi4-pbe_xtpl/share/psi4/basis/cc-pvtz.gbs 
    atoms 2-3 entry H          line    23 file /home/kraus/Applications/psi4-pbe_xtpl/share/psi4/basis/cc-pvtz.gbs 

   => BLYP-D3: Empirical Dispersion <=

    Grimme's -D3 (zero-damping) Dispersion Correction
    Grimme S.; Antony J.; Ehrlich S.; Krieg H. (2010), J. Chem. Phys., 132: 154104

        s6 =       1.000000
        s8 =       1.682000
       sr6 =       1.094000
    alpha6 =      14.000000
       sr8 =       1.000000


         ---------------------------------------------------------
                                   SCF
               by Justin Turney, Rob Parrish, Andy Simmonett
                          and Daniel G. A. Smith
                              RKS Reference
                        1 Threads,    500 MiB Core
         ---------------------------------------------------------

  ==> Geometry <==

    Molecular point group: c2v
    Full point group: C2v

    Geometry (in Angstrom), charge = 0, multiplicity = 1:

       Center              X                  Y                   Z               Mass       
    ------------   -----------------  -----------------  -----------------  -----------------
         O            0.000000000000     0.000000000000    -0.079135765818    15.994914619570
         H            0.000000000000    -0.707106781187     0.627971015369     1.007825032230
         H           -0.000000000000     0.707106781187     0.627971015369     1.007825032230

  Running in c2v symmetry.

  Rotational constants: A =     18.83462  B =     16.72674  C =      8.85910 [cm^-1]
  Rotational constants: A = 564647.56744  B = 501455.10648  C = 265589.24668 [MHz]
  Nuclear repulsion =    8.841020164834140

  Charge       = 0
  Multiplicity = 1
  Electrons    = 10
  Nalpha       = 5
  Nbeta        = 5

  ==> Algorithm <==

  SCF Algorithm Type is DF.
  DIIS enabled.
  MOM disabled.
  Fractional occupation disabled.
  Guess Type is SAD.
  Energy threshold   = 1.00e-06
  Density threshold  = 1.00e-06
  Integral threshold = 1.00e-12

  ==> Primary Basis <==

  Basis Set: CC-PVTZ
    Blend: CC-PVTZ
    Number of shells: 22
    Number of basis functions: 58
    Number of Cartesian functions: 65
    Spherical Harmonics?: true
    Max angular momentum: 3

  ==> DFT Potential <==

   => Composite Functional: BLYP-D3ZERO <= 

    BLYP GGA Exchange-Correlation Functional

    P.J. Stephens et. al., J. Phys. Chem., 98, 11623-11627, 1994
    B. Miehlich et. al., Chem. Phys. Lett., 157(3), 200-206 1989


    Deriv               =              1
    GGA                 =           TRUE
    Meta                =          FALSE

    Exchange Hybrid     =          FALSE
    MP2 Hybrid          =          FALSE

   => Exchange Functionals <=

    1.0000     XC_GGA_X_B88

   => Correlation Functionals <=

    1.0000     XC_GGA_C_LYP

   => LibXC Density Thresholds  <==

    XC_GGA_C_LYP:  1.00E-14 
    XC_GGA_X_B88:  1.00E-15 

   => Molecular Quadrature <=

    Radial Scheme          =       TREUTLER
    Pruning Scheme         =           NONE
    Nuclear Scheme         =       TREUTLER

    BS radius alpha        =              1
    Pruning alpha          =              1
    Radial Points          =             75
    Spherical Points       =            302
    Total Points           =          66413
    Total Blocks           =            550
    Max Points             =            256
    Max Functions          =             58
    Weights Tolerance      =       1.00E-15

   => Loading Basis Set <=

    Name: (CC-PVTZ AUX)
    Role: JKFIT
    Keyword: DF_BASIS_SCF
    atoms 1   entry O          line   229 file /home/kraus/Applications/psi4-pbe_xtpl/share/psi4/basis/cc-pvtz-jkfit.gbs 
    atoms 2-3 entry H          line    51 file /home/kraus/Applications/psi4-pbe_xtpl/share/psi4/basis/cc-pvtz-jkfit.gbs 

  ==> Integral Setup <==

  DFHelper Memory: AOs need 0.004 GiB; user supplied 0.257 GiB. Using in-core AOs.

  ==> MemDFJK: Density-Fitted J/K Matrices <==

    J tasked:                   Yes
    K tasked:                    No
    wK tasked:                   No
    OpenMP threads:               1
    Memory [MiB]:               263
    Algorithm:                 Core
    Schwarz Cutoff:           1E-12
    Mask sparsity (%):       0.0000
    Fitting Condition:        1E-10

   => Auxiliary Basis Set <=

  Basis Set: (CC-PVTZ AUX)
    Blend: CC-PVTZ-JKFIT
    Number of shells: 45
    Number of basis functions: 139
    Number of Cartesian functions: 166
    Spherical Harmonics?: true
    Max angular momentum: 4

  Cached 100.0% of DFT collocation blocks in 0.109 [GiB].

  Minimum eigenvalue in the overlap matrix is 2.6866808554E-03.
  Reciprocal condition number of the overlap matrix is 6.1900886208E-04.
    Using symmetric orthogonalization.

  ==> Pre-Iterations <==

  SCF Guess: Superposition of Atomic Densities via on-the-fly atomic UHF (no occupation information).

   -------------------------
    Irrep   Nso     Nmo    
   -------------------------
     A1        23      23 
     A2         7       7 
     B1        11      11 
     B2        17      17 
   -------------------------
    Total      58      58
   -------------------------

  ==> Iterations <==

                           Total Energy        Delta E     RMS |[F,P]|

   @DF-RKS iter SAD:   -76.11843152299221   -7.61184e+01   0.00000e+00 
   @DF-RKS iter   1:   -76.22281511292763   -1.04384e-01   2.52718e-02 DIIS
   @DF-RKS iter   2:   -75.48349348760148    7.39322e-01   4.84990e-02 DIIS
   @DF-RKS iter   3:   -76.43220242041339   -9.48709e-01   2.93740e-03 DIIS
   @DF-RKS iter   4:   -76.43598834221372   -3.78592e-03   5.55997e-04 DIIS
   @DF-RKS iter   5:   -76.43611637488212   -1.28033e-04   6.53992e-05 DIIS
   @DF-RKS iter   6:   -76.43611780031135   -1.42543e-06   5.60768e-06 DIIS
   @DF-RKS iter   7:   -76.43611781378121   -1.34699e-08   4.75215e-07 DIIS
  Energy and wave function converged.


  ==> Post-Iterations <==

   Electrons on quadrature grid:
      Ntotal   =   10.0000009532 ; deviation = 9.532e-07 

    Orbital Energies [Eh]
    ---------------------

    Doubly Occupied:                                                      

       1A1   -18.775108     2A1    -0.906085     1B2    -0.429038  
       3A1    -0.349261     1B1    -0.246728  

    Virtual:                                                              

       4A1    -0.009109     2B2     0.065813     3B2     0.303648  
       5A1     0.381239     6A1     0.469537     2B1     0.533692  
       7A1     0.542045     4B2     0.592560     1A2     0.669401  
       3B1     0.686201     8A1     0.919038     5B2     0.986847  
       6B2     1.194706     9A1     1.234195     2A2     1.687851  
       4B1     1.741232    10A1     1.767272     7B2     1.818162  
      11A1     1.899869    12A1     2.200685     8B2     2.517107  
       5B1     2.869747    13A1     3.011289     6B1     3.224594  
       9B2     3.282670     3A2     3.298492    10B2     3.503907  
      14A1     3.533001    11B2     3.560403     4A2     3.565515  
       7B1     3.603849    15A1     3.613512    16A1     3.874765  
       5A2     3.885546     8B1     4.129521    12B2     4.142733  
      17A1     4.557038    13B2     4.592387    18A1     4.732110  
      14B2     4.946881     9B1     5.430555    19A1     5.946710  
      15B2     6.087467    10B1     6.145460     6A2     6.198358  
      20A1     6.265379    11B1     6.454391     7A2     6.583441  
      21A1     6.646825    22A1     6.836241    16B2     7.115944  
      17B2     7.521645    23A1    11.319596  

    Final Occupation by Irrep:
             A1    A2    B1    B2 
    DOCC [     3,    0,    1,    1 ]

  @DF-RKS Final Energy:   -76.43611781378121

   => Energetics <=

    Nuclear Repulsion Energy =              8.8410201648341395
    One-Electron Energy =                -122.4654697548774038
    Two-Electron Energy =                  46.4798423816074262
    DFT Exchange-Correlation Energy =      -9.2915044153453668
    Empirical Dispersion Energy =          -0.0000061900000000
    VV10 Nonlocal Energy =                  0.0000000000000000
    Total Energy =                        -76.4361178137812090

Computation Completed


Properties will be evaluated at   0.000000,   0.000000,   0.000000 [a0]

Properties computed using the SCF density matrix

  Nuclear Dipole Moment: [e a0]
     X:     0.0000      Y:     0.0000      Z:     1.1770

  Electronic Dipole Moment: [e a0]
     X:     0.0000      Y:     0.0000      Z:    -0.3649

  Dipole Moment: [e a0]
     X:     0.0000      Y:     0.0000      Z:     0.8121     Total:     0.8121

  Dipole Moment: [D]
     X:     0.0000      Y:     0.0000      Z:     2.0642     Total:     2.0642


*** tstop() called on dorje at Thu Apr  1 14:43:15 2021
Module time:
	user time   =       2.13 seconds =       0.04 minutes
	system time =       0.07 seconds =       0.00 minutes
	total time  =          2 seconds =       0.03 minutes
Total time:
	user time   =       6.28 seconds =       0.10 minutes
	system time =       0.19 seconds =       0.00 minutes
	total time  =          7 seconds =       0.12 minutes

  //>>>>>>>>>>>>>>>>>>>>>>>>>>>>>>>>>>>//
  //   CBS Results:blyp-d3/cc-pv[dt]z  //
  //<<<<<<<<<<<<<<<<<<<<<<<<<<<<<<<<<<<//


   ==> 2-point exp.-sqrt. form SCF extrapolation for method: BLYP-D3 <==

   LO-zeta (2) Energy:               -76.395041002976
   HI-zeta (3) Energy:               -76.436111623781
   Alpha (exponent) Value:             3.622000000000
   Beta (coefficient) Value:          -0.998417018394

   @Extrapolated BLYP-D3/(D,T):     -76.434228968775


   ==> BLYP-D3 <==

   HI-zeta (3) Energy:                -0.000006190000

   ==> Components <==

  ---------------------------------------------------------------------------------------------------------
                          Method / Basis                      Rqd      Energy [Eh]   Variable
  ---------------------------------------------------------------------------------------------------------
                         blyp-d3 / cc-pvdz                            -76.39504719   DFT TOTAL ENERGY
                         blyp-d3 / cc-pvdz                            -76.39504719   DFT TOTAL ENERGY
                         blyp-d3 / cc-pvdz                      *     -76.39504100   DFT FUNCTIONAL TOTAL ENERGY
                         blyp-d3 / cc-pvdz                             -0.00000619   DISPERSION CORRECTION ENERGY
                         blyp-d3 / cc-pvtz                            -76.43611781   DFT TOTAL ENERGY
                         blyp-d3 / cc-pvtz                            -76.43611781   DFT TOTAL ENERGY
                         blyp-d3 / cc-pvtz                      *     -76.43611162   DFT FUNCTIONAL TOTAL ENERGY
                         blyp-d3 / cc-pvtz                      *      -0.00000619   DISPERSION CORRECTION ENERGY
  ---------------------------------------------------------------------------------------------------------

   ==> Stages <==

  ---------------------------------------------------------------------------------------------------------
      Stage               Method / Basis                       Wt      Energy [Eh]   Scheme
  ---------------------------------------------------------------------------------------------------------
       fctl              blyp-d3 / cc-pv[dt]z                   1     -76.43422897   xtpl_expsqrt_2
       disp              blyp-d3 / cc-pvtz                      1      -0.00000619   xtpl_highest_1
  ---------------------------------------------------------------------------------------------------------

   ==> CBS <==

  ---------------------------------------------------------------------------------------------------------
      Stage               Method / Basis                               Energy [Eh]   Scheme
  ---------------------------------------------------------------------------------------------------------
       fctl              blyp-d3 / cc-pv[dt]z                         -76.43422897   xtpl_expsqrt_2
       disp              blyp-d3 / cc-pvtz                             -0.00000619   xtpl_highest_1
      total                  CBS                                      -76.43423516   
  ---------------------------------------------------------------------------------------------------------
   => Loading Basis Set <=

    Name: DEF2-SVP
    Role: ORBITAL
    Keyword: BASIS
    atoms 1   entry O          line   130 file /home/kraus/Applications/psi4-pbe_xtpl/share/psi4/basis/def2-svp.gbs 
    atoms 2-3 entry H          line    15 file /home/kraus/Applications/psi4-pbe_xtpl/share/psi4/basis/def2-svp.gbs 

    BLYP-D3/cc-[DT].......................................................................PASSED

Scratch directory: /tmp/

  //>>>>>>>>>>>>>>>>>>>>>>>>>>>>>>>>>>>//
  //   CBS Setup:b2plyp-d3/cc-pv[dt]z  //
  //<<<<<<<<<<<<<<<<<<<<<<<<<<<<<<<<<<<//

    Naive listing of computations required.
      b2plyp-d3 / cc-pvdz                  for  DFT FUNCTIONAL TOTAL ENERGY
      b2plyp-d3 / cc-pvtz                  for  DFT FUNCTIONAL TOTAL ENERGY
      b2plyp-d3 / cc-pvdz                  for  DOUBLE-HYBRID CORRECTION ENERGY
      b2plyp-d3 / cc-pvtz                  for  DOUBLE-HYBRID CORRECTION ENERGY
      b2plyp-d3 / cc-pvtz                  for  DISPERSION CORRECTION ENERGY

    Enlightened listing of computations required.
      b2plyp-d3 / cc-pvdz                  for  DFT FUNCTIONAL TOTAL ENERGY
      b2plyp-d3 / cc-pvtz                  for  DFT FUNCTIONAL TOTAL ENERGY

    Full listing of computations to be obtained (required and bonus).
      b2plyp-d3 / cc-pvdz                  for  DFT TOTAL ENERGY
      b2plyp-d3 / cc-pvdz                  for  DFT TOTAL ENERGY
      b2plyp-d3 / cc-pvdz                  for  DFT FUNCTIONAL TOTAL ENERGY
      b2plyp-d3 / cc-pvdz                  for  DISPERSION CORRECTION ENERGY
      b2plyp-d3 / cc-pvdz                  for  DOUBLE-HYBRID CORRECTION ENERGY
      b2plyp-d3 / cc-pvtz                  for  DFT TOTAL ENERGY
      b2plyp-d3 / cc-pvtz                  for  DFT TOTAL ENERGY
      b2plyp-d3 / cc-pvtz                  for  DFT FUNCTIONAL TOTAL ENERGY
      b2plyp-d3 / cc-pvtz                  for  DISPERSION CORRECTION ENERGY
      b2plyp-d3 / cc-pvtz                  for  DOUBLE-HYBRID CORRECTION ENERGY

  //>>>>>>>>>>>>>>>>>>>>>>>>>>>>>>>>>>>>>>//
  // CBS Computation: B2PLYP-D3 / CC-PVDZ //
  //<<<<<<<<<<<<<<<<<<<<<<<<<<<<<<<<<<<<<<//


Scratch directory: /tmp/

*** tstart() called on dorje
*** at Thu Apr  1 14:43:15 2021

   => Loading Basis Set <=

    Name: CC-PVDZ
    Role: ORBITAL
    Keyword: BASIS
    atoms 1   entry O          line   198 file /home/kraus/Applications/psi4-pbe_xtpl/share/psi4/basis/cc-pvdz.gbs 
    atoms 2-3 entry H          line    22 file /home/kraus/Applications/psi4-pbe_xtpl/share/psi4/basis/cc-pvdz.gbs 

   => B2PLYP-D3: Empirical Dispersion <=

    Grimme's -D3 (zero-damping) Dispersion Correction
    Grimme S.; Antony J.; Ehrlich S.; Krieg H. (2010), J. Chem. Phys., 132: 154104
    Parametrisation from:    L. Goerigk, S. Grimme, J. Chem. Theory Comput. 7, 291-309, 2011

        s6 =       0.640000
        s8 =       1.022000
       sr6 =       1.427000
    alpha6 =      14.000000
       sr8 =       1.000000


         ---------------------------------------------------------
                                   SCF
               by Justin Turney, Rob Parrish, Andy Simmonett
                          and Daniel G. A. Smith
                              RKS Reference
                        1 Threads,    500 MiB Core
         ---------------------------------------------------------

  ==> Geometry <==

    Molecular point group: c2v
    Full point group: C2v

    Geometry (in Angstrom), charge = 0, multiplicity = 1:

       Center              X                  Y                   Z               Mass       
    ------------   -----------------  -----------------  -----------------  -----------------
         O            0.000000000000     0.000000000000    -0.079135765818    15.994914619570
         H            0.000000000000    -0.707106781187     0.627971015369     1.007825032230
         H           -0.000000000000     0.707106781187     0.627971015369     1.007825032230

  Running in c2v symmetry.

  Rotational constants: A =     18.83462  B =     16.72674  C =      8.85910 [cm^-1]
  Rotational constants: A = 564647.56744  B = 501455.10648  C = 265589.24668 [MHz]
  Nuclear repulsion =    8.841020164834140

  Charge       = 0
  Multiplicity = 1
  Electrons    = 10
  Nalpha       = 5
  Nbeta        = 5

  ==> Algorithm <==

  SCF Algorithm Type is DF.
  DIIS enabled.
  MOM disabled.
  Fractional occupation disabled.
  Guess Type is SAD.
  Energy threshold   = 1.00e-06
  Density threshold  = 1.00e-06
  Integral threshold = 1.00e-12

  ==> Primary Basis <==

  Basis Set: CC-PVDZ
    Blend: CC-PVDZ
    Number of shells: 12
    Number of basis functions: 24
    Number of Cartesian functions: 25
    Spherical Harmonics?: true
    Max angular momentum: 2

  ==> DFT Potential <==

   => Composite Functional: B2PLYP-D3ZERO <= 

    B2PLYP Double Hybrid Exchange-Correlation Functional

    S. Grimme, J. Chem. Phys., 124, 034108, 2006


    Deriv               =              1
    GGA                 =           TRUE
    Meta                =          FALSE

    Exchange Hybrid     =           TRUE
    MP2 Hybrid          =           TRUE

   => Exchange Functionals <=

    0.4700     XC_GGA_X_B88

   => Exact (HF) Exchange <=

    0.5300               HF 

   => Correlation Functionals <=

    0.7300     XC_GGA_C_LYP

   => MP2 Correlation <=

    0.2700       MP2 

   => LibXC Density Thresholds  <==

    XC_GGA_C_LYP:  1.00E-14 
    XC_GGA_X_B88:  1.00E-15 

   => Molecular Quadrature <=

    Radial Scheme          =       TREUTLER
    Pruning Scheme         =           NONE
    Nuclear Scheme         =       TREUTLER

    BS radius alpha        =              1
    Pruning alpha          =              1
    Radial Points          =             75
    Spherical Points       =            302
    Total Points           =          66297
    Total Blocks           =            549
    Max Points             =            256
    Max Functions          =             24
    Weights Tolerance      =       1.00E-15

   => Loading Basis Set <=

    Name: (CC-PVDZ AUX)
    Role: JKFIT
    Keyword: DF_BASIS_SCF
    atoms 1   entry O          line   221 file /home/kraus/Applications/psi4-pbe_xtpl/share/psi4/basis/cc-pvdz-jkfit.gbs 
    atoms 2-3 entry H          line    51 file /home/kraus/Applications/psi4-pbe_xtpl/share/psi4/basis/cc-pvdz-jkfit.gbs 

  ==> Integral Setup <==

  DFHelper Memory: AOs need 0.001 GiB; user supplied 0.320 GiB. Using in-core AOs.

  ==> MemDFJK: Density-Fitted J/K Matrices <==

    J tasked:                   Yes
    K tasked:                   Yes
    wK tasked:                   No
    OpenMP threads:               1
    Memory [MiB]:               327
    Algorithm:                 Core
    Schwarz Cutoff:           1E-12
    Mask sparsity (%):       0.0000
    Fitting Condition:        1E-10

   => Auxiliary Basis Set <=

  Basis Set: (CC-PVDZ AUX)
    Blend: CC-PVDZ-JKFIT
    Number of shells: 42
    Number of basis functions: 116
    Number of Cartesian functions: 131
    Spherical Harmonics?: true
    Max angular momentum: 3

  Cached 100.0% of DFT collocation blocks in 0.046 [GiB].

  Minimum eigenvalue in the overlap matrix is 3.3911067039E-02.
  Reciprocal condition number of the overlap matrix is 1.0848223856E-02.
    Using symmetric orthogonalization.

  ==> Pre-Iterations <==

  SCF Guess: Superposition of Atomic Densities via on-the-fly atomic UHF (no occupation information).

   -------------------------
    Irrep   Nso     Nmo    
   -------------------------
     A1        11      11 
     A2         2       2 
     B1         4       4 
     B2         7       7 
   -------------------------
    Total      24      24
   -------------------------

  ==> Iterations <==

                           Total Energy        Delta E     RMS |[F,P]|

   @DF-RKS iter SAD:   -75.86075298858967   -7.58608e+01   0.00000e+00 
   @DF-RKS iter   1:   -76.17420864238063   -3.13456e-01   3.77033e-02 DIIS
   @DF-RKS iter   2:   -76.17227853033012    1.93011e-03   3.98307e-02 DIIS
   @DF-RKS iter   3:   -76.28114184128283   -1.08863e-01   8.93462e-04 DIIS
   @DF-RKS iter   4:   -76.28122400583339   -8.21646e-05   2.61565e-04 DIIS
   @DF-RKS iter   5:   -76.28122976708289   -5.76125e-06   3.69126e-05 DIIS
   @DF-RKS iter   6:   -76.28122990928520   -1.42202e-07   2.72252e-06 DIIS
   @DF-RKS iter   7:   -76.28122991053198   -1.24678e-09   3.00417e-07 DIIS
  Energy and wave function converged.


  ==> Post-Iterations <==

   Electrons on quadrature grid:
      Ntotal   =   10.0000001899 ; deviation = 1.899e-07 

    Orbital Energies [Eh]
    ---------------------

    Doubly Occupied:                                                      

       1A1   -19.733575     2A1    -1.129560     1B2    -0.546107  
       3A1    -0.473524     1B1    -0.375569  

    Virtual:                                                              

       4A1     0.093665     2B2     0.171611     3B2     0.593698  
       5A1     0.719334     2B1     1.027628     6A1     1.036250  
       4B2     1.114113     7A1     1.171570     1A2     1.376863  
       3B1     1.442147     8A1     1.688887     5B2     1.812289  
       6B2     2.168975     9A1     2.220708     2A2     3.032105  
       4B1     3.091611    10A1     3.188176    11A1     3.568774  
       7B2     3.907007  

    Final Occupation by Irrep:
             A1    A2    B1    B2 
    DOCC [     3,    0,    1,    1 ]

  @DF-RKS Final Energy:   -76.28122991053198

   => Energetics <=

    Nuclear Repulsion Energy =              8.8410201648341395
    One-Electron Energy =                -122.5194647330737041
    Two-Electron Energy =                  41.8609046982384285
    DFT Exchange-Correlation Energy =      -4.4636869505308345
    Empirical Dispersion Energy =          -0.0000030900000000
    VV10 Nonlocal Energy =                  0.0000000000000000
    Total Energy =                        -76.2812299105319767

Computation Completed


Properties will be evaluated at   0.000000,   0.000000,   0.000000 [a0]

Properties computed using the SCF density matrix

  Nuclear Dipole Moment: [e a0]
     X:     0.0000      Y:     0.0000      Z:     1.1770

  Electronic Dipole Moment: [e a0]
     X:     0.0000      Y:     0.0000      Z:    -0.3140

  Dipole Moment: [e a0]
     X:     0.0000      Y:     0.0000      Z:     0.8631     Total:     0.8631

  Dipole Moment: [D]
     X:     0.0000      Y:     0.0000      Z:     2.1937     Total:     2.1937


*** tstop() called on dorje at Thu Apr  1 14:43:16 2021
Module time:
	user time   =       0.87 seconds =       0.01 minutes
	system time =       0.02 seconds =       0.00 minutes
	total time  =          1 seconds =       0.02 minutes
Total time:
	user time   =       7.28 seconds =       0.12 minutes
	system time =       0.21 seconds =       0.00 minutes
	total time  =          8 seconds =       0.13 minutes

*** tstart() called on dorje
*** at Thu Apr  1 14:43:16 2021

   => Loading Basis Set <=

    Name: (CC-PVDZ AUX)
    Role: RIFIT
    Keyword: DF_BASIS_MP2
    atoms 1   entry O          line   235 file /home/kraus/Applications/psi4-pbe_xtpl/share/psi4/basis/cc-pvdz-ri.gbs 
    atoms 2-3 entry H          line    19 file /home/kraus/Applications/psi4-pbe_xtpl/share/psi4/basis/cc-pvdz-ri.gbs 

	 --------------------------------------------------------
	                          DF-MP2                         
	      2nd-Order Density-Fitted Moller-Plesset Theory     
	              RMP2 Wavefunction,   1 Threads             
	                                                         
	        Rob Parrish, Justin Turney, Andy Simmonett,      
	           Ed Hohenstein, and C. David Sherrill          
	 --------------------------------------------------------

   => Auxiliary Basis Set <=

  Basis Set: (CC-PVDZ AUX)
    Blend: CC-PVDZ-RI
    Number of shells: 30
    Number of basis functions: 84
    Number of Cartesian functions: 96
    Spherical Harmonics?: true
    Max angular momentum: 3

	 --------------------------------------------------------
	                 NBF =    24, NAUX =    84
	 --------------------------------------------------------
	   CLASS    FOCC     OCC    AOCC    AVIR     VIR    FVIR
	   PAIRS       0       5       5      19      19       0
	 --------------------------------------------------------

	-----------------------------------------------------------
	 ==================> DF-MP2 Energies <==================== 
	-----------------------------------------------------------
	 Reference Energy          =     -76.2812299105319767 [Eh]
	 Singles Energy            =      -0.0000000000000000 [Eh]
	 Same-Spin Energy          =      -0.0626731465124488 [Eh]
	 Opposite-Spin Energy      =      -0.1867967189162065 [Eh]
	 Correlation Energy        =      -0.2494698654286553 [Eh]
	 Total Energy              =     -76.5306997759606276 [Eh]
	-----------------------------------------------------------
	 ================> DF-SCS-MP2 Energies <================== 
	-----------------------------------------------------------
	 SCS Same-Spin Scale       =       0.3333333333333333 [-]
	 SCS Opposite-Spin Scale   =       1.2000000000000000 [-]
	 SCS Same-Spin Energy      =      -0.0208910488374829 [Eh]
	 SCS Opposite-Spin Energy  =      -0.2241560626994478 [Eh]
	 SCS Correlation Energy    =      -0.2450471115369307 [Eh]
	 SCS Total Energy          =     -76.5262770220689106 [Eh]
	-----------------------------------------------------------



    B2PLYP-D3 Energy Summary
    ------------------------
    DFT Reference Energy                  =   -76.2812299105319767
    Scaled MP2 Correlation                =    -0.0673568636657370
    @Final double-hybrid DFT total energy =   -76.3485867741977131


*** tstop() called on dorje at Thu Apr  1 14:43:16 2021
Module time:
	user time   =       0.03 seconds =       0.00 minutes
	system time =       0.01 seconds =       0.00 minutes
	total time  =          0 seconds =       0.00 minutes
Total time:
	user time   =       7.31 seconds =       0.12 minutes
	system time =       0.22 seconds =       0.00 minutes
	total time  =          8 seconds =       0.13 minutes

  //>>>>>>>>>>>>>>>>>>>>>>>>>>>>>>>>>>>>>>//
  // CBS Computation: B2PLYP-D3 / CC-PVTZ //
  //<<<<<<<<<<<<<<<<<<<<<<<<<<<<<<<<<<<<<<//


Scratch directory: /tmp/

*** tstart() called on dorje
*** at Thu Apr  1 14:43:16 2021

   => Loading Basis Set <=

    Name: CC-PVTZ
    Role: ORBITAL
    Keyword: BASIS
    atoms 1   entry O          line   262 file /home/kraus/Applications/psi4-pbe_xtpl/share/psi4/basis/cc-pvtz.gbs 
    atoms 2-3 entry H          line    23 file /home/kraus/Applications/psi4-pbe_xtpl/share/psi4/basis/cc-pvtz.gbs 

   => B2PLYP-D3: Empirical Dispersion <=

    Grimme's -D3 (zero-damping) Dispersion Correction
    Grimme S.; Antony J.; Ehrlich S.; Krieg H. (2010), J. Chem. Phys., 132: 154104
    Parametrisation from:    L. Goerigk, S. Grimme, J. Chem. Theory Comput. 7, 291-309, 2011

        s6 =       0.640000
        s8 =       1.022000
       sr6 =       1.427000
    alpha6 =      14.000000
       sr8 =       1.000000


         ---------------------------------------------------------
                                   SCF
               by Justin Turney, Rob Parrish, Andy Simmonett
                          and Daniel G. A. Smith
                              RKS Reference
                        1 Threads,    500 MiB Core
         ---------------------------------------------------------

  ==> Geometry <==

    Molecular point group: c2v
    Full point group: C2v

    Geometry (in Angstrom), charge = 0, multiplicity = 1:

       Center              X                  Y                   Z               Mass       
    ------------   -----------------  -----------------  -----------------  -----------------
         O            0.000000000000     0.000000000000    -0.079135765818    15.994914619570
         H            0.000000000000    -0.707106781187     0.627971015369     1.007825032230
         H           -0.000000000000     0.707106781187     0.627971015369     1.007825032230

  Running in c2v symmetry.

  Rotational constants: A =     18.83462  B =     16.72674  C =      8.85910 [cm^-1]
  Rotational constants: A = 564647.56744  B = 501455.10648  C = 265589.24668 [MHz]
  Nuclear repulsion =    8.841020164834140

  Charge       = 0
  Multiplicity = 1
  Electrons    = 10
  Nalpha       = 5
  Nbeta        = 5

  ==> Algorithm <==

  SCF Algorithm Type is DF.
  DIIS enabled.
  MOM disabled.
  Fractional occupation disabled.
  Guess Type is SAD.
  Energy threshold   = 1.00e-06
  Density threshold  = 1.00e-06
  Integral threshold = 1.00e-12

  ==> Primary Basis <==

  Basis Set: CC-PVTZ
    Blend: CC-PVTZ
    Number of shells: 22
    Number of basis functions: 58
    Number of Cartesian functions: 65
    Spherical Harmonics?: true
    Max angular momentum: 3

  ==> DFT Potential <==

   => Composite Functional: B2PLYP-D3ZERO <= 

    B2PLYP Double Hybrid Exchange-Correlation Functional

    S. Grimme, J. Chem. Phys., 124, 034108, 2006


    Deriv               =              1
    GGA                 =           TRUE
    Meta                =          FALSE

    Exchange Hybrid     =           TRUE
    MP2 Hybrid          =           TRUE

   => Exchange Functionals <=

    0.4700     XC_GGA_X_B88

   => Exact (HF) Exchange <=

    0.5300               HF 

   => Correlation Functionals <=

    0.7300     XC_GGA_C_LYP

   => MP2 Correlation <=

    0.2700       MP2 

   => LibXC Density Thresholds  <==

    XC_GGA_C_LYP:  1.00E-14 
    XC_GGA_X_B88:  1.00E-15 

   => Molecular Quadrature <=

    Radial Scheme          =       TREUTLER
    Pruning Scheme         =           NONE
    Nuclear Scheme         =       TREUTLER

    BS radius alpha        =              1
    Pruning alpha          =              1
    Radial Points          =             75
    Spherical Points       =            302
    Total Points           =          66413
    Total Blocks           =            550
    Max Points             =            256
    Max Functions          =             58
    Weights Tolerance      =       1.00E-15

   => Loading Basis Set <=

    Name: (CC-PVTZ AUX)
    Role: JKFIT
    Keyword: DF_BASIS_SCF
    atoms 1   entry O          line   229 file /home/kraus/Applications/psi4-pbe_xtpl/share/psi4/basis/cc-pvtz-jkfit.gbs 
    atoms 2-3 entry H          line    51 file /home/kraus/Applications/psi4-pbe_xtpl/share/psi4/basis/cc-pvtz-jkfit.gbs 

  ==> Integral Setup <==

  DFHelper Memory: AOs need 0.004 GiB; user supplied 0.257 GiB. Using in-core AOs.

  ==> MemDFJK: Density-Fitted J/K Matrices <==

    J tasked:                   Yes
    K tasked:                   Yes
    wK tasked:                   No
    OpenMP threads:               1
    Memory [MiB]:               263
    Algorithm:                 Core
    Schwarz Cutoff:           1E-12
    Mask sparsity (%):       0.0000
    Fitting Condition:        1E-10

   => Auxiliary Basis Set <=

  Basis Set: (CC-PVTZ AUX)
    Blend: CC-PVTZ-JKFIT
    Number of shells: 45
    Number of basis functions: 139
    Number of Cartesian functions: 166
    Spherical Harmonics?: true
    Max angular momentum: 4

  Cached 100.0% of DFT collocation blocks in 0.109 [GiB].

  Minimum eigenvalue in the overlap matrix is 2.6866808554E-03.
  Reciprocal condition number of the overlap matrix is 6.1900886208E-04.
    Using symmetric orthogonalization.

  ==> Pre-Iterations <==

  SCF Guess: Superposition of Atomic Densities via on-the-fly atomic UHF (no occupation information).

   -------------------------
    Irrep   Nso     Nmo    
   -------------------------
     A1        23      23 
     A2         7       7 
     B1        11      11 
     B2        17      17 
   -------------------------
    Total      58      58
   -------------------------

  ==> Iterations <==

                           Total Energy        Delta E     RMS |[F,P]|

   @DF-RKS iter SAD:   -75.85872400165694   -7.58587e+01   0.00000e+00 
   @DF-RKS iter   1:   -76.19485872234944   -3.36135e-01   1.82355e-02 DIIS
   @DF-RKS iter   2:   -76.16281355954484    3.20452e-02   2.11999e-02 DIIS
   @DF-RKS iter   3:   -76.31444309084570   -1.51630e-01   3.46745e-04 DIIS
   @DF-RKS iter   4:   -76.31452431448523   -8.12236e-05   1.20122e-04 DIIS
   @DF-RKS iter   5:   -76.31453050669788   -6.19221e-06   2.03136e-05 DIIS
   @DF-RKS iter   6:   -76.31453075685049   -2.50153e-07   2.73137e-06 DIIS
   @DF-RKS iter   7:   -76.31453076250062   -5.65014e-09   2.93385e-07 DIIS
  Energy and wave function converged.


  ==> Post-Iterations <==

   Electrons on quadrature grid:
      Ntotal   =   10.0000009315 ; deviation = 9.315e-07 

    Orbital Energies [Eh]
    ---------------------

    Doubly Occupied:                                                      

       1A1   -19.733187     2A1    -1.140864     1B2    -0.558573  
       3A1    -0.488748     1B1    -0.391657  

    Virtual:                                                              

       4A1     0.063098     2B2     0.136902     3B2     0.403876  
       5A1     0.497150     6A1     0.570289     7A1     0.643766  
       2B1     0.658115     4B2     0.704181     1A2     0.776891  
       3B1     0.790576     8A1     1.050391     5B2     1.100092  
       6B2     1.330848     9A1     1.383994     2A2     1.855619  
       4B1     1.908528    10A1     1.941362     7B2     1.971606  
      11A1     2.067510    12A1     2.409058     8B2     2.736726  
       5B1     3.048456    13A1     3.196726     9B2     3.478970  
       6B1     3.490715     3A2     3.496974    10B2     3.707234  
      14A1     3.736097     4A2     3.760439    11B2     3.794559  
       7B1     3.804678    15A1     3.867638    16A1     4.065064  
       5A2     4.071368    12B2     4.364072     8B1     4.381500  
      13B2     4.799187    17A1     4.806369    18A1     5.005792  
      14B2     5.213369     9B1     5.711775    19A1     6.248684  
      15B2     6.368683    10B1     6.454086     6A2     6.527217  
      20A1     6.594290    11B1     6.768972     7A2     6.878819  
      21A1     6.980534    22A1     7.135070    16B2     7.440254  
      17B2     7.851125    23A1    11.756183  

    Final Occupation by Irrep:
             A1    A2    B1    B2 
    DOCC [     3,    0,    1,    1 ]

  @DF-RKS Final Energy:   -76.31453076250062

   => Energetics <=

    Nuclear Repulsion Energy =              8.8410201648341395
    One-Electron Energy =                -122.4807474500065325
    Two-Electron Energy =                  41.7821167243853466
    DFT Exchange-Correlation Energy =      -4.4569171117135582
    Empirical Dispersion Energy =          -0.0000030900000000
    VV10 Nonlocal Energy =                  0.0000000000000000
    Total Energy =                        -76.3145307625006240

Computation Completed


Properties will be evaluated at   0.000000,   0.000000,   0.000000 [a0]

Properties computed using the SCF density matrix

  Nuclear Dipole Moment: [e a0]
     X:     0.0000      Y:     0.0000      Z:     1.1770

  Electronic Dipole Moment: [e a0]
     X:     0.0000      Y:     0.0000      Z:    -0.3112

  Dipole Moment: [e a0]
     X:     0.0000      Y:     0.0000      Z:     0.8659     Total:     0.8659

  Dipole Moment: [D]
     X:     0.0000      Y:     0.0000      Z:     2.2008     Total:     2.2008


*** tstop() called on dorje at Thu Apr  1 14:43:18 2021
Module time:
	user time   =       1.79 seconds =       0.03 minutes
	system time =       0.05 seconds =       0.00 minutes
	total time  =          2 seconds =       0.03 minutes
Total time:
	user time   =       9.11 seconds =       0.15 minutes
	system time =       0.27 seconds =       0.00 minutes
	total time  =         10 seconds =       0.17 minutes

*** tstart() called on dorje
*** at Thu Apr  1 14:43:18 2021

   => Loading Basis Set <=

    Name: (CC-PVTZ AUX)
    Role: RIFIT
    Keyword: DF_BASIS_MP2
    atoms 1   entry O          line   305 file /home/kraus/Applications/psi4-pbe_xtpl/share/psi4/basis/cc-pvtz-ri.gbs 
    atoms 2-3 entry H          line    19 file /home/kraus/Applications/psi4-pbe_xtpl/share/psi4/basis/cc-pvtz-ri.gbs 

	 --------------------------------------------------------
	                          DF-MP2                         
	      2nd-Order Density-Fitted Moller-Plesset Theory     
	              RMP2 Wavefunction,   1 Threads             
	                                                         
	        Rob Parrish, Justin Turney, Andy Simmonett,      
	           Ed Hohenstein, and C. David Sherrill          
	 --------------------------------------------------------

   => Auxiliary Basis Set <=

  Basis Set: (CC-PVTZ AUX)
    Blend: CC-PVTZ-RI
    Number of shells: 43
    Number of basis functions: 141
    Number of Cartesian functions: 171
    Spherical Harmonics?: true
    Max angular momentum: 4

	 --------------------------------------------------------
	                 NBF =    58, NAUX =   141
	 --------------------------------------------------------
	   CLASS    FOCC     OCC    AOCC    AVIR     VIR    FVIR
	   PAIRS       0       5       5      53      53       0
	 --------------------------------------------------------

	-----------------------------------------------------------
	 ==================> DF-MP2 Energies <==================== 
	-----------------------------------------------------------
	 Reference Energy          =     -76.3145307625006240 [Eh]
	 Singles Energy            =      -0.0000000000000000 [Eh]
	 Same-Spin Energy          =      -0.0807966461030442 [Eh]
	 Opposite-Spin Energy      =      -0.2501422518807468 [Eh]
	 Correlation Energy        =      -0.3309388979837909 [Eh]
	 Total Energy              =     -76.6454696604844088 [Eh]
	-----------------------------------------------------------
	 ================> DF-SCS-MP2 Energies <================== 
	-----------------------------------------------------------
	 SCS Same-Spin Scale       =       0.3333333333333333 [-]
	 SCS Opposite-Spin Scale   =       1.2000000000000000 [-]
	 SCS Same-Spin Energy      =      -0.0269322153676814 [Eh]
	 SCS Opposite-Spin Energy  =      -0.3001707022568961 [Eh]
	 SCS Correlation Energy    =      -0.3271029176245775 [Eh]
	 SCS Total Energy          =     -76.6416336801251958 [Eh]
	-----------------------------------------------------------



    B2PLYP-D3 Energy Summary
    ------------------------
    DFT Reference Energy                  =   -76.3145307625006240
    Scaled MP2 Correlation                =    -0.0893535024556236
    @Final double-hybrid DFT total energy =   -76.4038842649562469


*** tstop() called on dorje at Thu Apr  1 14:43:18 2021
Module time:
	user time   =       0.17 seconds =       0.00 minutes
	system time =       0.00 seconds =       0.00 minutes
	total time  =          0 seconds =       0.00 minutes
Total time:
	user time   =       9.28 seconds =       0.15 minutes
	system time =       0.27 seconds =       0.00 minutes
	total time  =         10 seconds =       0.17 minutes

  //>>>>>>>>>>>>>>>>>>>>>>>>>>>>>>>>>>>//
  //  CBS Results:b2plyp-d3/cc-pv[dt]z //
  //<<<<<<<<<<<<<<<<<<<<<<<<<<<<<<<<<<<//


   ==> 2-point exp.-sqrt. form SCF extrapolation for method: B2PLYP-D3 <==

   LO-zeta (2) Energy:               -76.281226820532
   HI-zeta (3) Energy:               -76.314527672501
   Alpha (exponent) Value:             4.424180000000
   Beta (coefficient) Value:          -1.805586918999

   @Extrapolated B2PLYP-D3/(D,T):   -76.313679154145


   ==> 2-point power form extrapolation for method: B2PLYP-D3 <==

   LO-zeta (2) Energy:                -0.067356863666
   HI-zeta (3) Energy:                -0.089353502456
   Alpha (exponent) Value:             2.400000000000
   Beta (coefficient) Value:           0.186625332207

   @Extrapolated B2PLYP-D3/(D,T):    -0.102715752135


   ==> B2PLYP-D3 <==

   HI-zeta (3) Energy:                -0.000003090000

   ==> Components <==

  ---------------------------------------------------------------------------------------------------------
                          Method / Basis                      Rqd      Energy [Eh]   Variable
  ---------------------------------------------------------------------------------------------------------
                       b2plyp-d3 / cc-pvdz                            -76.34858677   DFT TOTAL ENERGY
                       b2plyp-d3 / cc-pvdz                            -76.34858677   DFT TOTAL ENERGY
                       b2plyp-d3 / cc-pvdz                      *     -76.28122682   DFT FUNCTIONAL TOTAL ENERGY
                       b2plyp-d3 / cc-pvdz                             -0.00000309   DISPERSION CORRECTION ENERGY
                       b2plyp-d3 / cc-pvdz                      *      -0.06735686   DOUBLE-HYBRID CORRECTION ENERGY
                       b2plyp-d3 / cc-pvtz                            -76.40388426   DFT TOTAL ENERGY
                       b2plyp-d3 / cc-pvtz                            -76.40388426   DFT TOTAL ENERGY
                       b2plyp-d3 / cc-pvtz                      *     -76.31452767   DFT FUNCTIONAL TOTAL ENERGY
                       b2plyp-d3 / cc-pvtz                      *      -0.00000309   DISPERSION CORRECTION ENERGY
                       b2plyp-d3 / cc-pvtz                      *      -0.08935350   DOUBLE-HYBRID CORRECTION ENERGY
  ---------------------------------------------------------------------------------------------------------

   ==> Stages <==

  ---------------------------------------------------------------------------------------------------------
      Stage               Method / Basis                       Wt      Energy [Eh]   Scheme
  ---------------------------------------------------------------------------------------------------------
       fctl            b2plyp-d3 / cc-pv[dt]z                   1     -76.31367915   xtpl_expsqrt_2
         dh            b2plyp-d3 / cc-pv[dt]z                   1      -0.10271575   xtpl_power_2
       disp            b2plyp-d3 / cc-pvtz                      1      -0.00000309   xtpl_highest_1
  ---------------------------------------------------------------------------------------------------------

   ==> CBS <==

  ---------------------------------------------------------------------------------------------------------
      Stage               Method / Basis                               Energy [Eh]   Scheme
  ---------------------------------------------------------------------------------------------------------
       fctl            b2plyp-d3 / cc-pv[dt]z                         -76.31367915   xtpl_expsqrt_2
         dh            b2plyp-d3 / cc-pv[dt]z                          -0.10271575   xtpl_power_2
       disp            b2plyp-d3 / cc-pvtz                             -0.00000309   xtpl_highest_1
      total                  CBS                                      -76.41639800   
  ---------------------------------------------------------------------------------------------------------
   => Loading Basis Set <=

    Name: DEF2-SVP
    Role: ORBITAL
    Keyword: BASIS
    atoms 1   entry O          line   130 file /home/kraus/Applications/psi4-pbe_xtpl/share/psi4/basis/def2-svp.gbs 
    atoms 2-3 entry H          line    15 file /home/kraus/Applications/psi4-pbe_xtpl/share/psi4/basis/def2-svp.gbs 

    B2PLYP-D3/cc-[DT].....................................................................PASSED

Scratch directory: /tmp/

  //>>>>>>>>>>>>>>>>>>>>>>>>>>>>>>>>>>>//
  //     CBS Setup:custom function     //
  //<<<<<<<<<<<<<<<<<<<<<<<<<<<<<<<<<<<//

    Naive listing of computations required.
      b2plyp-d3 / cc-pvdz                  for  DFT TOTAL ENERGY
      b2plyp-d3 / cc-pvtz                  for  DFT TOTAL ENERGY

    Enlightened listing of computations required.
      b2plyp-d3 / cc-pvdz                  for  DFT TOTAL ENERGY
      b2plyp-d3 / cc-pvtz                  for  DFT TOTAL ENERGY

[...]
    Number of basis functions: 116
    Number of Cartesian functions: 131
    Spherical Harmonics?: true
    Max angular momentum: 3

  ==> DFT Potential <==

   => Composite Functional: BLYP-D3ZERO <= 

    BLYP GGA Exchange-Correlation Functional

    P.J. Stephens et. al., J. Phys. Chem., 98, 11623-11627, 1994
    B. Miehlich et. al., Chem. Phys. Lett., 157(3), 200-206 1989


    Deriv               =              1
    GGA                 =           TRUE
    Meta                =          FALSE

    Exchange Hybrid     =          FALSE
    MP2 Hybrid          =          FALSE

   => Exchange Functionals <=

    1.0000     XC_GGA_X_B88

   => Correlation Functionals <=

    1.0000     XC_GGA_C_LYP

   => LibXC Density Thresholds  <==

    XC_GGA_C_LYP:  1.00E-14 
    XC_GGA_X_B88:  1.00E-15 

   => Molecular Quadrature <=

    Radial Scheme          =       TREUTLER
    Pruning Scheme         =           NONE
    Nuclear Scheme         =       TREUTLER

    BS radius alpha        =              1
    Pruning alpha          =              1
    Radial Points          =             75
    Spherical Points       =            302
    Total Points           =          66297
    Total Blocks           =            549
    Max Points             =            256
    Max Functions          =             24
    Weights Tolerance      =       1.00E-15


  -Total Gradient:
     Atom            X                  Y                   Z
    ------   -----------------  -----------------  -----------------
       1        0.000000000000     0.000000000000    -0.039082505804
       2       -0.000000000000     0.006431410108     0.019544050057
       3        0.000000000000    -0.006431410108     0.019544050057


*** tstop() called on dorje at Thu Apr  1 14:43:35 2021
Module time:
	user time   =       0.25 seconds =       0.00 minutes
	system time =       0.00 seconds =       0.00 minutes
	total time  =          1 seconds =       0.02 minutes
Total time:
	user time   =      24.72 seconds =       0.41 minutes
	system time =       0.76 seconds =       0.01 minutes
	total time  =         27 seconds =       0.45 minutes

  //>>>>>>>>>>>>>>>>>>>>>>>>>>>>>>>>>>>>>>>>>>>>>>//
  // CBS Computation: BLYP-D3 / CC-PVTZ, GRADIENT //
  //<<<<<<<<<<<<<<<<<<<<<<<<<<<<<<<<<<<<<<<<<<<<<<//


Scratch directory: /tmp/
gradient() will perform analytic gradient computation.

*** tstart() called on dorje
*** at Thu Apr  1 14:43:35 2021

   => Loading Basis Set <=

    Name: CC-PVTZ
    Role: ORBITAL
    Keyword: BASIS
    atoms 1   entry O          line   262 file /home/kraus/Applications/psi4-pbe_xtpl/share/psi4/basis/cc-pvtz.gbs 
    atoms 2-3 entry H          line    23 file /home/kraus/Applications/psi4-pbe_xtpl/share/psi4/basis/cc-pvtz.gbs 

   => BLYP-D3: Empirical Dispersion <=

    Grimme's -D3 (zero-damping) Dispersion Correction
    Grimme S.; Antony J.; Ehrlich S.; Krieg H. (2010), J. Chem. Phys., 132: 154104

        s6 =       1.000000
        s8 =       1.682000
       sr6 =       1.094000
    alpha6 =      14.000000
       sr8 =       1.000000


         ---------------------------------------------------------
                                   SCF
               by Justin Turney, Rob Parrish, Andy Simmonett
                          and Daniel G. A. Smith
                              RKS Reference
                        1 Threads,    500 MiB Core
         ---------------------------------------------------------

  ==> Geometry <==

    Molecular point group: c2v
    Full point group: C2v

    Geometry (in Angstrom), charge = 0, multiplicity = 1:

       Center              X                  Y                   Z               Mass       
    ------------   -----------------  -----------------  -----------------  -----------------
         O            0.000000000000     0.000000000000    -0.079135765818    15.994914619570
         H            0.000000000000    -0.707106781187     0.627971015369     1.007825032230
         H           -0.000000000000     0.707106781187     0.627971015369     1.007825032230

  Running in c2v symmetry.

  Rotational constants: A =     18.83462  B =     16.72674  C =      8.85910 [cm^-1]
  Rotational constants: A = 564647.56744  B = 501455.10648  C = 265589.24668 [MHz]
  Nuclear repulsion =    8.841020164834140

  Charge       = 0
  Multiplicity = 1
  Electrons    = 10
  Nalpha       = 5
  Nbeta        = 5

  ==> Algorithm <==

  SCF Algorithm Type is DF.
  DIIS enabled.
  MOM disabled.
  Fractional occupation disabled.
  Guess Type is SAD.
  Energy threshold   = 1.00e-08
  Density threshold  = 1.00e-08
  Integral threshold = 1.00e-12

  ==> Primary Basis <==

  Basis Set: CC-PVTZ
    Blend: CC-PVTZ
    Number of shells: 22
    Number of basis functions: 58
    Number of Cartesian functions: 65
    Spherical Harmonics?: true
    Max angular momentum: 3

  ==> DFT Potential <==

   => Composite Functional: BLYP-D3ZERO <= 

    BLYP GGA Exchange-Correlation Functional

    P.J. Stephens et. al., J. Phys. Chem., 98, 11623-11627, 1994
    B. Miehlich et. al., Chem. Phys. Lett., 157(3), 200-206 1989


    Deriv               =              1
    GGA                 =           TRUE
    Meta                =          FALSE

    Exchange Hybrid     =          FALSE
    MP2 Hybrid          =          FALSE

   => Exchange Functionals <=

    1.0000     XC_GGA_X_B88

   => Correlation Functionals <=

    1.0000     XC_GGA_C_LYP

   => LibXC Density Thresholds  <==

    XC_GGA_C_LYP:  1.00E-14 
    XC_GGA_X_B88:  1.00E-15 

   => Molecular Quadrature <=

    Radial Scheme          =       TREUTLER
    Pruning Scheme         =           NONE
    Nuclear Scheme         =       TREUTLER

    BS radius alpha        =              1
    Pruning alpha          =              1
    Radial Points          =             75
    Spherical Points       =            302
    Total Points           =          66413
    Total Blocks           =            550
    Max Points             =            256
    Max Functions          =             58
    Weights Tolerance      =       1.00E-15

   => Loading Basis Set <=

    Name: (CC-PVTZ AUX)
    Role: JKFIT
    Keyword: DF_BASIS_SCF
    atoms 1   entry O          line   229 file /home/kraus/Applications/psi4-pbe_xtpl/share/psi4/basis/cc-pvtz-jkfit.gbs 
    atoms 2-3 entry H          line    51 file /home/kraus/Applications/psi4-pbe_xtpl/share/psi4/basis/cc-pvtz-jkfit.gbs 

  ==> Integral Setup <==

  DFHelper Memory: AOs need 0.004 GiB; user supplied 0.257 GiB. Using in-core AOs.

  ==> MemDFJK: Density-Fitted J/K Matrices <==

    J tasked:                   Yes
    K tasked:                    No
    wK tasked:                   No
    OpenMP threads:               1
    Memory [MiB]:               263
    Algorithm:                 Core
    Schwarz Cutoff:           1E-12
    Mask sparsity (%):       0.0000
    Fitting Condition:        1E-10

   => Auxiliary Basis Set <=

  Basis Set: (CC-PVTZ AUX)
    Blend: CC-PVTZ-JKFIT
    Number of shells: 45
    Number of basis functions: 139
    Number of Cartesian functions: 166
    Spherical Harmonics?: true
    Max angular momentum: 4

  Cached 100.0% of DFT collocation blocks in 0.109 [GiB].

  Minimum eigenvalue in the overlap matrix is 2.6866808554E-03.
  Reciprocal condition number of the overlap matrix is 6.1900886208E-04.
    Using symmetric orthogonalization.

  ==> Pre-Iterations <==

  SCF Guess: Superposition of Atomic Densities via on-the-fly atomic UHF (no occupation information).

   -------------------------
    Irrep   Nso     Nmo    
   -------------------------
     A1        23      23 
     A2         7       7 
     B1        11      11 
     B2        17      17 
   -------------------------
    Total      58      58
   -------------------------

  ==> Iterations <==

                           Total Energy        Delta E     RMS |[F,P]|

   @DF-RKS iter SAD:   -76.11843152299221   -7.61184e+01   0.00000e+00 
   @DF-RKS iter   1:   -76.22281511292763   -1.04384e-01   2.52718e-02 DIIS
   @DF-RKS iter   2:   -75.48349348760148    7.39322e-01   4.84990e-02 DIIS
   @DF-RKS iter   3:   -76.43220242041339   -9.48709e-01   2.93740e-03 DIIS
   @DF-RKS iter   4:   -76.43598834221372   -3.78592e-03   5.55997e-04 DIIS
   @DF-RKS iter   5:   -76.43611637488212   -1.28033e-04   6.53992e-05 DIIS
   @DF-RKS iter   6:   -76.43611780031135   -1.42543e-06   5.60768e-06 DIIS
   @DF-RKS iter   7:   -76.43611781378121   -1.34699e-08   4.75215e-07 DIIS
   @DF-RKS iter   8:   -76.43611781389504   -1.13829e-10   3.54685e-08 DIIS
   @DF-RKS iter   9:   -76.43611781389578   -7.38964e-13   2.56975e-09 DIIS
  Energy and wave function converged.


  ==> Post-Iterations <==

   Electrons on quadrature grid:
      Ntotal   =   10.0000009532 ; deviation = 9.532e-07 

    Orbital Energies [Eh]
    ---------------------

    Doubly Occupied:                                                      

       1A1   -18.775108     2A1    -0.906085     1B2    -0.429038  
       3A1    -0.349260     1B1    -0.246728  

    Virtual:                                                              

       4A1    -0.009109     2B2     0.065813     3B2     0.303648  
       5A1     0.381238     6A1     0.469537     2B1     0.533692  
       7A1     0.542045     4B2     0.592560     1A2     0.669401  
       3B1     0.686201     8A1     0.919038     5B2     0.986847  
       6B2     1.194706     9A1     1.234195     2A2     1.687851  
       4B1     1.741232    10A1     1.767272     7B2     1.818162  
      11A1     1.899870    12A1     2.200685     8B2     2.517107  
       5B1     2.869747    13A1     3.011289     6B1     3.224594  
       9B2     3.282670     3A2     3.298492    10B2     3.503907  
      14A1     3.533001    11B2     3.560403     4A2     3.565515  
       7B1     3.603848    15A1     3.613512    16A1     3.874765  
       5A2     3.885546     8B1     4.129521    12B2     4.142732  
      17A1     4.557038    13B2     4.592386    18A1     4.732110  
      14B2     4.946881     9B1     5.430556    19A1     5.946710  
      15B2     6.087467    10B1     6.145460     6A2     6.198359  
      20A1     6.265380    11B1     6.454391     7A2     6.583441  
      21A1     6.646825    22A1     6.836241    16B2     7.115944  
      17B2     7.521645    23A1    11.319596  

    Final Occupation by Irrep:
             A1    A2    B1    B2 
    DOCC [     3,    0,    1,    1 ]

  @DF-RKS Final Energy:   -76.43611781389578

   => Energetics <=

    Nuclear Repulsion Energy =              8.8410201648341395
    One-Electron Energy =                -122.4654329269930741
    Two-Electron Energy =                  46.4797986859813861
    DFT Exchange-Correlation Energy =      -9.2914975477182260
    Empirical Dispersion Energy =          -0.0000061900000000
    VV10 Nonlocal Energy =                  0.0000000000000000
    Total Energy =                        -76.4361178138957769

Computation Completed


Properties will be evaluated at   0.000000,   0.000000,   0.000000 [a0]

Properties computed using the SCF density matrix

  Nuclear Dipole Moment: [e a0]
     X:     0.0000      Y:     0.0000      Z:     1.1770

  Electronic Dipole Moment: [e a0]
     X:     0.0000      Y:     0.0000      Z:    -0.3649

  Dipole Moment: [e a0]
     X:     0.0000      Y:     0.0000      Z:     0.8121     Total:     0.8121

  Dipole Moment: [D]
     X:     0.0000      Y:     0.0000      Z:     2.0642     Total:     2.0642


*** tstop() called on dorje at Thu Apr  1 14:43:38 2021
Module time:
	user time   =       3.20 seconds =       0.05 minutes
	system time =       0.08 seconds =       0.00 minutes
	total time  =          3 seconds =       0.05 minutes
Total time:
	user time   =      27.94 seconds =       0.47 minutes
	system time =       0.85 seconds =       0.01 minutes
	total time  =         30 seconds =       0.50 minutes

*** tstart() called on dorje
*** at Thu Apr  1 14:43:38 2021


         ------------------------------------------------------------
                                   SCF GRAD                          
                          Rob Parrish, Justin Turney,                
                       Andy Simmonett, and Alex Sokolov              
         ------------------------------------------------------------

  ==> Geometry <==

    Molecular point group: c2v
    Full point group: C2v

    Geometry (in Angstrom), charge = 0, multiplicity = 1:

       Center              X                  Y                   Z               Mass       
    ------------   -----------------  -----------------  -----------------  -----------------
         O            0.000000000000     0.000000000000    -0.079135765818    15.994914619570
         H            0.000000000000    -0.707106781187     0.627971015369     1.007825032230
         H           -0.000000000000     0.707106781187     0.627971015369     1.007825032230

  Nuclear repulsion =    8.841020164834140

  ==> Basis Set <==

  Basis Set: CC-PVTZ
    Blend: CC-PVTZ
    Number of shells: 22
    Number of basis functions: 58
    Number of Cartesian functions: 65
    Spherical Harmonics?: true
    Max angular momentum: 3

  ==> DFJKGrad: Density-Fitted SCF Gradients <==

    Gradient:                    1
    J tasked:                  Yes
    K tasked:                   No
    wK tasked:                  No
    OpenMP threads:              1
    Integrals threads:           1
    Memory [MiB]:              375
    Schwarz Cutoff:          1E-12
    Fitting Condition:       1E-10

   => Auxiliary Basis Set <=

  Basis Set: (CC-PVTZ AUX)
    Blend: CC-PVTZ-JKFIT
    Number of shells: 45
    Number of basis functions: 139
    Number of Cartesian functions: 166
    Spherical Harmonics?: true
    Max angular momentum: 4

  ==> DFT Potential <==

   => Composite Functional: BLYP-D3ZERO <= 

    BLYP GGA Exchange-Correlation Functional

    P.J. Stephens et. al., J. Phys. Chem., 98, 11623-11627, 1994
    B. Miehlich et. al., Chem. Phys. Lett., 157(3), 200-206 1989


    Deriv               =              1
    GGA                 =           TRUE
    Meta                =          FALSE

    Exchange Hybrid     =          FALSE
    MP2 Hybrid          =          FALSE

   => Exchange Functionals <=

    1.0000     XC_GGA_X_B88

   => Correlation Functionals <=

    1.0000     XC_GGA_C_LYP

   => LibXC Density Thresholds  <==

    XC_GGA_C_LYP:  1.00E-14 
    XC_GGA_X_B88:  1.00E-15 

   => Molecular Quadrature <=

    Radial Scheme          =       TREUTLER
    Pruning Scheme         =           NONE
    Nuclear Scheme         =       TREUTLER

    BS radius alpha        =              1
    Pruning alpha          =              1
    Radial Points          =             75
    Spherical Points       =            302
    Total Points           =          66413
    Total Blocks           =            550
    Max Points             =            256
    Max Functions          =             58
    Weights Tolerance      =       1.00E-15


  -Total Gradient:
     Atom            X                  Y                   Z
    ------   -----------------  -----------------  -----------------
       1       -0.000000000000     0.000000000000    -0.050745987255
       2       -0.000000000000     0.003261148375     0.025376272496
       3        0.000000000000    -0.003261148375     0.025376272496


*** tstop() called on dorje at Thu Apr  1 14:43:39 2021
Module time:
	user time   =       0.63 seconds =       0.01 minutes
	system time =       0.00 seconds =       0.00 minutes
	total time  =          1 seconds =       0.02 minutes
Total time:
	user time   =      28.57 seconds =       0.48 minutes
	system time =       0.85 seconds =       0.01 minutes
	total time  =         31 seconds =       0.52 minutes

  //>>>>>>>>>>>>>>>>>>>>>>>>>>>>>>>>>>>//
  //   CBS Results:blyp-d3/cc-pv[dt]z  //
  //<<<<<<<<<<<<<<<<<<<<<<<<<<<<<<<<<<<//


   ==> 2-point exp.-sqrt. form SCF extrapolation for method: BLYP-D3 <==

   LO-zeta (2) Energy:               -76.395047192984
   HI-zeta (3) Energy:               -76.436117813896
   Alpha (exponent) Value:             3.622000000000
   Beta (coefficient) Value:          -0.998417020978

   @Extrapolated BLYP-D3/(D,T):     -76.434235158884


   ==> BLYP-D3 <==

   HI-zeta (3) Energy:                -0.000006190000

   ==> Components <==

  ---------------------------------------------------------------------------------------------------------
                          Method / Basis                      Rqd      Energy [Eh]   Variable
  ---------------------------------------------------------------------------------------------------------
                         blyp-d3 / cc-pvdz                              0.00000000   DFT TOTAL ENERGY
                         blyp-d3 / cc-pvdz                              0.00000000   DFT TOTAL ENERGY
                         blyp-d3 / cc-pvdz                      *     -76.39504719   DFT FUNCTIONAL TOTAL ENERGY
                         blyp-d3 / cc-pvdz                             -0.00000619   DISPERSION CORRECTION ENERGY
                         blyp-d3 / cc-pvtz                              0.00000000   DFT TOTAL ENERGY
                         blyp-d3 / cc-pvtz                              0.00000000   DFT TOTAL ENERGY
                         blyp-d3 / cc-pvtz                      *     -76.43611781   DFT FUNCTIONAL TOTAL ENERGY
                         blyp-d3 / cc-pvtz                      *      -0.00000619   DISPERSION CORRECTION ENERGY
  ---------------------------------------------------------------------------------------------------------

   ==> Stages <==

  ---------------------------------------------------------------------------------------------------------
      Stage               Method / Basis                       Wt      Energy [Eh]   Scheme
  ---------------------------------------------------------------------------------------------------------
       fctl              blyp-d3 / cc-pv[dt]z                   1     -76.43423516   xtpl_expsqrt_2
       disp              blyp-d3 / cc-pvtz                      1      -0.00000619   xtpl_highest_1
  ---------------------------------------------------------------------------------------------------------

   ==> CBS <==

  ---------------------------------------------------------------------------------------------------------
      Stage               Method / Basis                               Energy [Eh]   Scheme
  ---------------------------------------------------------------------------------------------------------
       fctl              blyp-d3 / cc-pv[dt]z                         -76.43423516   xtpl_expsqrt_2
       disp              blyp-d3 / cc-pvtz                             -0.00000619   xtpl_highest_1
      total                  CBS                                      -76.43424135   
  ---------------------------------------------------------------------------------------------------------
   => Loading Basis Set <=

    Name: DEF2-SVP
    Role: ORBITAL
    Keyword: BASIS
    atoms 1   entry O          line   130 file /home/kraus/Applications/psi4-pbe_xtpl/share/psi4/basis/def2-svp.gbs 
    atoms 2-3 entry H          line    15 file /home/kraus/Applications/psi4-pbe_xtpl/share/psi4/basis/def2-svp.gbs 

CURRENT GRADIENT  Irrep: 1 Size: 3 x 3

                 1                   2                   3

    1    -0.00000000000000     0.00000000000000    -0.05020297998894
    2    -0.00000000000000     0.00343955913449     0.02510474678093
    3     0.00000000000000    -0.00343955913449     0.02510474678093



    BLYP-D3/cc-pv[dt]z analytic gradient..................................................PASSED
    BLYP-D3/cc-pv[dt]z analytic gradient - 2 steps only...................................PASSED

    Psi4 stopped on: Thursday, 01 April 2021 02:43PM
    Psi4 wall time for execution: 0:00:31.10

*** Psi4 exiting successfully. Buy a developer a beer!
