    -----------------------------------------------------------------------
          Psi4: An Open-Source Ab Initio Electronic Structure Package
                              Psi4 0.3.1164 Driver

                          Git: Rev {numpy_support} f11ddd5 dirty

    J. M. Turney, A. C. Simmonett, R. M. Parrish, E. G. Hohenstein,
    F. A. Evangelista, J. T. Fermann, B. J. Mintz, L. A. Burns, J. J. Wilke,
    M. L. Abrams, N. J. Russ, M. L. Leininger, C. L. Janssen, E. T. Seidl,
    W. D. Allen, H. F. Schaefer, R. A. King, E. F. Valeev, C. D. Sherrill,
    and T. D. Crawford, WIREs Comput. Mol. Sci. 2, 556-565 (2012)
    (doi: 10.1002/wcms.93)

                         Additional Contributions by
    A. E. DePrince, U. Bozkaya, A. Yu. Sokolov, D. G. A. Smith, R. Di Remigio,
    R. M. Richard, J. F. Gonthier, H. R. McAlexander, M. Saitow, and
    B. P. Pritchard
    -----------------------------------------------------------------------


    Psi4 started on: Mon May  9 12:12:40 2016

    Process ID:  19120
    PSI4DATADIR: /home/dsmith/Gits/psi4cas/share
    Memory level set to 256.000 MB

  ==> Input File <==

--------------------------------------------------------------------------
#! Extrapolated energies with delta correction
memory 500 mb

nucenergy_ref =   5.1767335623    #TEST

molecule hf {
    F
    H 1 0.92
}

# Get a reasonable guess, to save some iterations
set {
    scf_type      df
    mp2_type      df
    e_convergence 7
    reference     rhf
}

hf.update_geometry()
compare_values(nucenergy_ref, hf.nuclear_repulsion_energy(), 9, "Nuclear repulsion energy") #TEST

# Equivalence tests
mp3_energy = energy('MP3/cc-pVDZ')
mp3_energy_delta = energy('MP2/cc-pVDZ + D:MP3/cc-pVDZ')
compare_values(mp3_energy_delta, mp3_energy, 6, 'MP3 Energy Call vs Delta Check')

ccsd_energy_delta = energy('MP2/cc-pVDZ + D:CCSD/cc-pVDZ')
ccsd_energy = energy('CCSD/cc-pVDZ')
compare_values(ccsd_energy_delta, ccsd_energy, 6, 'CCSD Energy Call vs Delta Check')

ccsd_t_energy_delta = energy('CCSD/cc-pVDZ + D:CCSD(T)/cc-pVDZ')
ccsd_t_energy = energy('CCSD(T)/cc-pVDZ')
compare_values(ccsd_t_energy_delta, ccsd_t_energy, 6, 'CCSD(T) Energy Call vs Delta Check')

ccsd_t_energy_delta = energy('CCSD/cc-pV[DT]Z + D:CCSD(T)/cc-pV[DT]Z')
ccsd_t_energy = energy('CCSD(T)/cc-pV[DT]Z')
compare_values(ccsd_t_energy_delta, ccsd_t_energy, 6, 'CCSD(T) Energy Call vs Delta Check')

# Extrapolation test
cbs1_energy = energy('MP2/cc-pV[DT]Z + D:CCSD(T)/cc-pVDZ')
compare_values(-100.383956631, cbs1_energy, 6, 'MP2/cc-pV[DT]Z + D:CCSD(T)/cc-pVDZ Energy')

# Need higher angular momentum to do more

--------------------------------------------------------------------------

  Memory set to 500.000 MiB by Python script.
	Nuclear repulsion energy..........................................PASSED
    There are an even number of electrons - assuming singlet.
    Specify the multiplicity in the molecule input block.


*** tstart() called on ds1.sherrill.chemistry.gatech.edu
*** at Mon May  9 12:12:41 2016


         ---------------------------------------------------------
                                   SCF
            by Justin Turney, Rob Parrish, and Andy Simmonett
                              RHF Reference
                        1 Threads,    500 MiB Core
         ---------------------------------------------------------

  ==> Geometry <==

    Molecular point group: c2v
    Full point group: C_inf_v

    Geometry (in Angstrom), charge = 0, multiplicity = 1:

       Center              X                  Y                   Z               Mass       
    ------------   -----------------  -----------------  -----------------  -----------------
           F          0.000000000000     0.000000000000    -0.046345518887    18.998403224000
           H          0.000000000000     0.000000000000     0.873654481113     1.007825032070

  Running in c2v symmetry.

  Rotational constants: A = ************  B =     20.81056  C =     20.81056 [cm^-1]
  Rotational constants: A = ************  B = 623884.96375  C = 623884.96375 [MHz]
  Nuclear repulsion =    5.176733562293480

  Charge       = 0
  Multiplicity = 1
  Electrons    = 10
  Nalpha       = 5
  Nbeta        = 5

  ==> Algorithm <==

  SCF Algorithm Type is DF.
  DIIS enabled.
  MOM disabled.
  Fractional occupation disabled.
  Guess Type is CORE.
  Energy threshold   = 1.00e-07
  Density threshold  = 1.00e-08
  Integral threshold = 0.00e+00

  ==> Primary Basis <==

  Basis Set: CC-PVDZ
    Number of shells: 9
    Number of basis function: 19
    Number of Cartesian functions: 20
    Spherical Harmonics?: true
    Max angular momentum: 2

  ==> Pre-Iterations <==

   -------------------------------------------------------
    Irrep   Nso     Nmo     Nalpha   Nbeta   Ndocc  Nsocc
   -------------------------------------------------------
     A1        10      10       0       0       0       0
     A2         1       1       0       0       0       0
     B1         4       4       0       0       0       0
     B2         4       4       0       0       0       0
   -------------------------------------------------------
    Total      19      19       5       5       5       0
   -------------------------------------------------------

  ==> Integral Setup <==

  ==> DFJK: Density-Fitted J/K Matrices <==

    J tasked:                  Yes
    K tasked:                  Yes
    wK tasked:                  No
    OpenMP threads:              1
    Integrals threads:           1
    Memory (MB):               357
    Algorithm:                Core
    Integral Cache:           NONE
    Schwarz Cutoff:          1E-12
    Fitting Condition:       1E-12

   => Auxiliary Basis Set <=

  Basis Set: 
    Number of shells: 33
    Number of basis function: 93
    Number of Cartesian functions: 106
    Spherical Harmonics?: true
    Max angular momentum: 3

  Minimum eigenvalue in the overlap matrix is 4.9502195779E-02.
  Using Symmetric Orthogonalization.
  SCF Guess: Core (One-Electron) Hamiltonian.

  ==> Iterations <==

                           Total Energy        Delta E     RMS |[F,P]|

    Occupation by irrep:
             A1    A2    B1    B2 
    DOCC [     4,    0,    1,    0 ]

   @DF-RHF iter   1:   -93.63009959748092   -9.36301e+01   2.67935e-01 
    Occupation by irrep:
             A1    A2    B1    B2 
    DOCC [     3,    0,    1,    1 ]

   @DF-RHF iter   2:   -95.75935649792986   -2.12926e+00   2.42658e-01 DIIS
   @DF-RHF iter   3:   -99.95006097523265   -4.19070e+00   3.97723e-02 DIIS
   @DF-RHF iter   4:  -100.01545035527785   -6.53894e-02   7.80979e-03 DIIS
   @DF-RHF iter   5:  -100.01911207718564   -3.66172e-03   1.04233e-03 DIIS
   @DF-RHF iter   6:  -100.01926206700817   -1.49990e-04   5.04740e-04 DIIS
   @DF-RHF iter   7:  -100.01927788767000   -1.58207e-05   5.71061e-05 DIIS
   @DF-RHF iter   8:  -100.01927823810988   -3.50440e-07   2.13167e-05 DIIS
   @DF-RHF iter   9:  -100.01927825673206   -1.86222e-08   1.09982e-06 DIIS
   @DF-RHF iter  10:  -100.01927825684133   -1.09267e-10   8.33168e-08 DIIS
   @DF-RHF iter  11:  -100.01927825684190   -5.68434e-13   2.44817e-08 DIIS
   @DF-RHF iter  12:  -100.01927825684193   -2.84217e-14   2.36433e-09 DIIS

  ==> Post-Iterations <==

    Orbital Energies (a.u.)
    -----------------------

    Doubly Occupied:                                                      

       1A1   -26.278184     2A1    -1.582399     3A1    -0.746003  
       1B1    -0.628588     1B2    -0.628588  

    Virtual:                                                              

       4A1     0.183201     5A1     0.807103     2B1     1.411032  
       2B2     1.411032     6A1     1.416792     3B2     1.605022  
       3B1     1.605022     7A1     2.134558     8A1     2.490861  
       1A2     4.005101     9A1     4.005101     4B2     4.278076  
       4B1     4.278076    10A1     5.052238  

    Final Occupation by Irrep:
             A1    A2    B1    B2 
    DOCC [     3,    0,    1,    1 ]

  Energy converged.

  @DF-RHF Final Energy:  -100.01927825684193

   => Energetics <=

    Nuclear Repulsion Energy =              5.1767335622934798
    One-Electron Energy =                -150.6645008589882480
    Two-Electron Energy =                  45.4684890398528694
    DFT Exchange-Correlation Energy =       0.0000000000000000
    Empirical Dispersion Energy =           0.0000000000000000
    PCM Polarization Energy =               0.0000000000000000
    EFP Energy =                            0.0000000000000000
    Total Energy =                       -100.0192782568418863


  Saving occupied orbitals to File 180.

*** tstop() called on ds1.sherrill.chemistry.gatech.edu at Mon May  9 12:12:41 2016
Module time:
	user time   =       0.10 seconds =       0.00 minutes
	system time =       0.01 seconds =       0.00 minutes
	total time  =          0 seconds =       0.00 minutes
Total time:
	user time   =       0.10 seconds =       0.00 minutes
	system time =       0.01 seconds =       0.00 minutes
	total time  =          0 seconds =       0.00 minutes


Properties will be evaluated at   0.000000,   0.000000,   0.000000 Bohr

Properties computed using the SCF density matrix

  Nuclear Dipole Moment: (a.u.)
     X:     0.0000      Y:     0.0000      Z:     0.8627

  Electronic Dipole Moment: (a.u.)
     X:     0.0000      Y:     0.0000      Z:    -0.0932

  Dipole Moment: (a.u.)
     X:     0.0000      Y:     0.0000      Z:     0.7695     Total:     0.7695

  Dipole Moment: (Debye)
     X:     0.0000      Y:     0.0000      Z:     1.9559     Total:     1.9559


*** tstart() called on ds1.sherrill.chemistry.gatech.edu
*** at Mon May  9 12:12:41 2016



  Options:
  ----------------------------------------------------------------------------
  ACTIVE                      => [  ]             
  BENCH                       => 0                
  CACHELEVEL                  => 2                
  CCL_ENERGY                  => FALSE            
  CC_DIIS_MAX_VECS            => 6                
  CC_DIIS_MIN_VECS            => 2                
  CC_MAXITER                  => 50               
  CC_TYPE                     => CONV             
  CEPA_OS_SCALE               => 1.27             
  CEPA_SOS_SCALE              => 1.3              
  CEPA_SS_SCALE               => 1.13             
  CEPA_TYPE                   => CEPA0            
  CI_TYPE                     => CONV             
  CUBEPROP_BASIS_FUNCTIONS    => [  ]             
  CUBEPROP_FILEPATH           => .                
  CUBEPROP_ORBITALS           => [  ]             
  CUBEPROP_TASKS              => [  ]             
  CUBIC_BASIS_TOLERANCE       => 1e-12            
  CUBIC_BLOCK_MAX_POINTS      => 1000             
  CUBIC_GRID_OVERAGE          => [  ]             
  CUBIC_GRID_SPACING          => [  ]             
  CUTOFF                      => 14               
  DEBUG                       => 0                
  DERTYPE                     => NONE             
  DF_BASIS_CC                 => (empty)          
  DIE_IF_NOT_CONVERGED        => TRUE             
  DKH_ORDER                   => 2                
  DOCC                        => [  ]             
  DO_DIIS                     => TRUE             
  DO_LEVEL_SHIFT              => TRUE             
  DO_SCS                      => FALSE           !
  DO_SOS                      => FALSE           !
  E3_SCALE                    => 0.25             
  EA_POLES                    => FALSE            
  EKT_EA                      => FALSE            
  EKT_IP                      => FALSE            
  EP_EA_POLES                 => FALSE            
  EP_IP_POLES                 => FALSE            
  EP_MAXITER                  => 30               
  EXTERNAL_POTENTIAL_SYMMETRY => FALSE            
  E_CONVERGENCE               => 1e-07           !
  FREEZE_CORE                 => FALSE            
  FROZEN_DOCC                 => [  ]             
  FROZEN_UOCC                 => [  ]             
  INTEGRAL_PACKAGE            => ERD              
  IP_POLES                    => FALSE            
  LEVEL_SHIFT                 => 0.02             
  LINEQ_SOLVER                => CDGESV           
  LITERAL_CFOUR               => (empty)          
  MAT_NUM_COLUMN_PRINT        => 5                
  MAX_MOGRAD_CONVERGENCE      => 0.001            
  MOGRAD_DAMPING              => 1                
  MO_DIIS_NUM_VECS            => 6                
  MO_MAXITER                  => 50               
  MO_READ                     => FALSE            
  MO_STEP_MAX                 => 0.5              
  MO_WRITE                    => FALSE            
  MP2_OS_SCALE                => 1.2              
  MP2_SOS_SCALE               => 1.3              
  MP2_SOS_SCALE2              => 1.2              
  MP2_SS_SCALE                => 0.333333         
  MP2_TYPE                    => DF              !
  MP_TYPE                     => CONV             
  NAT_ORBS                    => FALSE            
  NUM_FROZEN_DOCC             => 0                
  NUM_FROZEN_UOCC             => 0                
  OCC_ORBS_PRINT              => FALSE            
  OEPROP                      => FALSE            
  OPT_METHOD                  => ORB_RESP         
  ORB_OPT                     => FALSE           !
  ORB_RESP_SOLVER             => PCG              
  ORTH_TYPE                   => MGS              
  PCG_BETA_TYPE               => FLETCHER_REEVES  
  PCG_CONVERGENCE             => 1e-06            
  PCG_MAXITER                 => 30               
  PCM                         => FALSE            
  PCM_SCF_TYPE                => TOTAL            
  PRINT                       => 1                
  PRINT_NOONS                 => 3                
  PROPERTIES                  => [  ]             
  PROPERTIES_ORIGIN           => [  ]             
  PUREAM                      => TRUE             
  QC_MODULE                   => (empty)          
  RAS1                        => [  ]             
  RAS2                        => [  ]             
  RAS3                        => [  ]             
  RAS4                        => [  ]             
  RELATIVISTIC                => NO               
  RELAXED                     => TRUE             
  REL_BASIS                   => (empty)          
  RESTRICTED_DOCC             => [  ]             
  RESTRICTED_UOCC             => [  ]             
  RMS_MOGRAD_CONVERGENCE      => 1e-06            
  RUN_CCTRANSORT              => TRUE             
  R_CONVERGENCE               => 1e-05            
  SCS_TYPE                    => SCS              
  SOCC                        => [  ]             
  SOS_TYPE                    => SOS              
  SYMMETRIZE                  => TRUE             
  TPDM_ABCD_TYPE              => DIRECT           
  UNITS                       => ANGSTROMS        
  WFN                         => SCF              
  WFN_TYPE                    => OMP3            !
  WRITER_FILE_LABEL           => (empty)          


 ============================================================================== 
 ============================================================================== 
 ============================================================================== 

                       MP3   
              Program Written by Ugur Bozkaya,
              Latest Revision June 25, 2014.

 ============================================================================== 
 ============================================================================== 
 ============================================================================== 

	RMS orbital gradient is changed to :     3.16e-06
	MAX orbital gradient is changed to :     1.00e-04
	MO spaces per irreps... 

	IRREP   FC    OCC   VIR  FV 
	==============================
	  A1     0     3     7    0
	  A2     0     0     1    0
	  B1     0     1     3    0
	  B2     0     1     3    0
	==============================

	Computing MP2 energy using SCF MOs (Canonical MP2)... 
	============================================================================== 
	Nuclear Repulsion Energy (a.u.)    :     5.17673356229348
	SCF Energy (a.u.)                  :  -100.01927825684193
	REF Energy (a.u.)                  :  -100.01927825684193
	Alpha-Alpha Contribution (a.u.)    :    -0.02714747608795
	Alpha-Beta Contribution (a.u.)     :    -0.14959999213460
	Beta-Beta Contribution (a.u.)      :    -0.02714747608795
	Scaled_SS Correlation Energy (a.u.):    -0.01809831739197
	Scaled_OS Correlation Energy (a.u.):    -0.17951999056152
	SCS-MP2 Total Energy (a.u.)        :  -100.21689656479542
	SOS-MP2 Total Energy (a.u.)        :  -100.21375824661691
	SCSN-MP2 Total Energy (a.u.)       :  -100.11483737267152
	SCS-MP2-VDW Total Energy (a.u.)    :  -100.23791372286216
	SOS-PI-MP2 Total Energy (a.u.)     :  -100.22871824583036
	MP2 Correlation Energy (a.u.)      :    -0.20389494431050
	MP2 Total Energy (a.u.)            :  -100.22317320115243
	============================================================================== 


	Computing MP3 energy using SCF MOs (Canonical MP3)... 
	============================================================================== 
	Nuclear Repulsion Energy (a.u.)    :     5.17673356229348
	SCF Energy (a.u.)                  :  -100.01927825684193
	REF Energy (a.u.)                  :  -100.01927825684193
	Alpha-Alpha Contribution (a.u.)    :    -0.02494527130607
	Alpha-Beta Contribution (a.u.)     :    -0.15668090052540
	Beta-Beta Contribution (a.u.)      :    -0.02494527130607
	MP2.5 Correlation Energy (a.u.)    :    -0.20523319372402
	MP2.5 Total Energy (a.u.)          :  -100.22451145056596
	SCS-MP3 Total Energy (a.u.)        :  -100.21756568950218
	SOS-MP3 Total Energy (a.u.)        :  -100.21442737132367
	SCSN-MP3 Total Energy (a.u.)       :  -100.11550649737828
	SCS-MP3-VDW Total Energy (a.u.)    :  -100.23858284756892
	SOS-PI-MP3 Total Energy (a.u.)     :  -100.22938737053713
	3rd Order Energy (a.u.)            :    -0.00267649882703
	MP3 Correlation Energy (a.u.)      :    -0.20657144313754
	MP3 Total Energy (a.u.)            :  -100.22584969997946
	============================================================================== 


*** tstop() called on ds1.sherrill.chemistry.gatech.edu at Mon May  9 12:12:41 2016
Module time:
	user time   =       0.00 seconds =       0.00 minutes
	system time =       0.01 seconds =       0.00 minutes
	total time  =          0 seconds =       0.00 minutes
Total time:
	user time   =       0.13 seconds =       0.00 minutes
	system time =       0.02 seconds =       0.00 minutes
	total time  =          0 seconds =       0.00 minutes

  //>>>>>>>>>>>>>>>>>>>>>>>>>>>>>>>>>>>>>>>>//
  // CBS Setup: MP2/cc-pVDZ + D:MP3/cc-pVDZ //
  //<<<<<<<<<<<<<<<<<<<<<<<<<<<<<<<<<<<<<<<<//

    Naive listing of computations required.
             hf / cc-pvdz                  for  HF TOTAL ENERGY
            mp2 / cc-pvdz                  for  MP2 TOTAL ENERGY
             hf / cc-pvdz                  for  HF TOTAL ENERGY
            mp3 / cc-pvdz                  for  MP3 TOTAL ENERGY
            mp2 / cc-pvdz                  for  MP2 TOTAL ENERGY

    Enlightened listing of computations required.
            mp3 / cc-pvdz                  for  MP3 TOTAL ENERGY

    Full listing of computations to be obtained (required and bonus).
          mp2.5 / cc-pvdz                  for  MP2.5 TOTAL ENERGY
            scf / cc-pvdz                  for  SCF TOTAL ENERGY
            mp2 / cc-pvdz                  for  MP2 TOTAL ENERGY
            mp3 / cc-pvdz                  for  MP3 TOTAL ENERGY

  //>>>>>>>>>>>>>>>>>>>>>>>>>>>>>>>>>>>//
  //   CBS Computation: MP3 / CC-PVDZ  //
  //<<<<<<<<<<<<<<<<<<<<<<<<<<<<<<<<<<<//


*** tstart() called on ds1.sherrill.chemistry.gatech.edu
*** at Mon May  9 12:12:41 2016


         ---------------------------------------------------------
                                   SCF
            by Justin Turney, Rob Parrish, and Andy Simmonett
                              RHF Reference
                        1 Threads,    500 MiB Core
         ---------------------------------------------------------

  ==> Geometry <==

    Molecular point group: c2v
    Full point group: C_inf_v

    Geometry (in Angstrom), charge = 0, multiplicity = 1:

       Center              X                  Y                   Z               Mass       
    ------------   -----------------  -----------------  -----------------  -----------------
           F          0.000000000000     0.000000000000    -0.046345518887    18.998403224000
           H          0.000000000000     0.000000000000     0.873654481113     1.007825032070

  Running in c2v symmetry.

  Rotational constants: A = ************  B =     20.81056  C =     20.81056 [cm^-1]
  Rotational constants: A = ************  B = 623884.96375  C = 623884.96375 [MHz]
  Nuclear repulsion =    5.176733562293482

  Charge       = 0
  Multiplicity = 1
  Electrons    = 10
  Nalpha       = 5
  Nbeta        = 5

  ==> Algorithm <==

  SCF Algorithm Type is DF.
  DIIS enabled.
  MOM disabled.
  Fractional occupation disabled.
  Guess Type is CORE.
  Energy threshold   = 1.00e-07
  Density threshold  = 1.00e-08
  Integral threshold = 0.00e+00

  ==> Primary Basis <==

  Basis Set: CC-PVDZ
    Number of shells: 9
    Number of basis function: 19
    Number of Cartesian functions: 20
    Spherical Harmonics?: true
    Max angular momentum: 2

  ==> Pre-Iterations <==

   -------------------------------------------------------
    Irrep   Nso     Nmo     Nalpha   Nbeta   Ndocc  Nsocc
   -------------------------------------------------------
     A1        10      10       0       0       0       0
     A2         1       1       0       0       0       0
     B1         4       4       0       0       0       0
     B2         4       4       0       0       0       0
   -------------------------------------------------------
    Total      19      19       5       5       5       0
   -------------------------------------------------------

  ==> Integral Setup <==

  ==> DFJK: Density-Fitted J/K Matrices <==

    J tasked:                  Yes
    K tasked:                  Yes
    wK tasked:                  No
    OpenMP threads:              1
    Integrals threads:           1
    Memory (MB):               357
    Algorithm:                Core
    Integral Cache:           NONE
    Schwarz Cutoff:          1E-12
    Fitting Condition:       1E-12

   => Auxiliary Basis Set <=

  Basis Set: 
    Number of shells: 33
    Number of basis function: 93
    Number of Cartesian functions: 106
    Spherical Harmonics?: true
    Max angular momentum: 3

  Minimum eigenvalue in the overlap matrix is 4.9502195779E-02.
  Using Symmetric Orthogonalization.
  SCF Guess: Core (One-Electron) Hamiltonian.

  ==> Iterations <==

                           Total Energy        Delta E     RMS |[F,P]|

    Occupation by irrep:
             A1    A2    B1    B2 
    DOCC [     4,    0,    1,    0 ]

   @DF-RHF iter   1:   -93.63009959748119   -9.36301e+01   2.67935e-01 
    Occupation by irrep:
             A1    A2    B1    B2 
    DOCC [     3,    0,    1,    1 ]

   @DF-RHF iter   2:   -95.75935649793016   -2.12926e+00   2.42658e-01 DIIS
   @DF-RHF iter   3:   -99.95006097523289   -4.19070e+00   3.97723e-02 DIIS
   @DF-RHF iter   4:  -100.01545035527789   -6.53894e-02   7.80979e-03 DIIS
   @DF-RHF iter   5:  -100.01911207718574   -3.66172e-03   1.04233e-03 DIIS
   @DF-RHF iter   6:  -100.01926206700836   -1.49990e-04   5.04740e-04 DIIS
   @DF-RHF iter   7:  -100.01927788767007   -1.58207e-05   5.71061e-05 DIIS
   @DF-RHF iter   8:  -100.01927823810999   -3.50440e-07   2.13167e-05 DIIS
   @DF-RHF iter   9:  -100.01927825673219   -1.86222e-08   1.09982e-06 DIIS
   @DF-RHF iter  10:  -100.01927825684147   -1.09281e-10   8.33168e-08 DIIS
   @DF-RHF iter  11:  -100.01927825684201   -5.40012e-13   2.44817e-08 DIIS
   @DF-RHF iter  12:  -100.01927825684207   -5.68434e-14   2.36433e-09 DIIS

  ==> Post-Iterations <==

    Orbital Energies (a.u.)
    -----------------------

    Doubly Occupied:                                                      

       1A1   -26.278184     2A1    -1.582399     3A1    -0.746003  
       1B1    -0.628588     1B2    -0.628588  

    Virtual:                                                              

       4A1     0.183201     5A1     0.807103     2B1     1.411032  
       2B2     1.411032     6A1     1.416792     3B2     1.605022  
       3B1     1.605022     7A1     2.134558     8A1     2.490861  
       1A2     4.005101     9A1     4.005101     4B2     4.278076  
       4B1     4.278076    10A1     5.052238  

    Final Occupation by Irrep:
             A1    A2    B1    B2 
    DOCC [     3,    0,    1,    1 ]

  Energy converged.

  @DF-RHF Final Energy:  -100.01927825684207

   => Energetics <=

    Nuclear Repulsion Energy =              5.1767335622934825
    One-Electron Energy =                -150.6645008589883901
    Two-Electron Energy =                  45.4684890398528481
    DFT Exchange-Correlation Energy =       0.0000000000000000
    Empirical Dispersion Energy =           0.0000000000000000
    PCM Polarization Energy =               0.0000000000000000
    EFP Energy =                            0.0000000000000000
    Total Energy =                       -100.0192782568420569


  Saving occupied orbitals to File 180.

*** tstop() called on ds1.sherrill.chemistry.gatech.edu at Mon May  9 12:12:41 2016
Module time:
	user time   =       0.06 seconds =       0.00 minutes
	system time =      -0.00 seconds =      -0.00 minutes
	total time  =          0 seconds =       0.00 minutes
Total time:
	user time   =       0.24 seconds =       0.00 minutes
	system time =       0.03 seconds =       0.00 minutes
	total time  =          0 seconds =       0.00 minutes


Properties will be evaluated at   0.000000,   0.000000,   0.000000 Bohr

Properties computed using the SCF density matrix

  Nuclear Dipole Moment: (a.u.)
     X:     0.0000      Y:     0.0000      Z:     0.8627

  Electronic Dipole Moment: (a.u.)
     X:     0.0000      Y:     0.0000      Z:    -0.0932

  Dipole Moment: (a.u.)
     X:     0.0000      Y:     0.0000      Z:     0.7695     Total:     0.7695

  Dipole Moment: (Debye)
     X:     0.0000      Y:     0.0000      Z:     1.9559     Total:     1.9559


*** tstart() called on ds1.sherrill.chemistry.gatech.edu
*** at Mon May  9 12:12:41 2016



  Options:
  ----------------------------------------------------------------------------
  ACTIVE                      => [  ]             
  BENCH                       => 0                
  CACHELEVEL                  => 2                
  CCL_ENERGY                  => FALSE            
  CC_DIIS_MAX_VECS            => 6                
  CC_DIIS_MIN_VECS            => 2                
  CC_MAXITER                  => 50               
  CC_TYPE                     => CONV             
  CEPA_OS_SCALE               => 1.27             
  CEPA_SOS_SCALE              => 1.3              
  CEPA_SS_SCALE               => 1.13             
  CEPA_TYPE                   => CEPA0            
  CI_TYPE                     => CONV             
  CUBEPROP_BASIS_FUNCTIONS    => [  ]             
  CUBEPROP_FILEPATH           => .                
  CUBEPROP_ORBITALS           => [  ]             
  CUBEPROP_TASKS              => [  ]             
  CUBIC_BASIS_TOLERANCE       => 1e-12            
  CUBIC_BLOCK_MAX_POINTS      => 1000             
  CUBIC_GRID_OVERAGE          => [  ]             
  CUBIC_GRID_SPACING          => [  ]             
  CUTOFF                      => 14               
  DEBUG                       => 0                
  DERTYPE                     => NONE             
  DF_BASIS_CC                 => (empty)          
  DIE_IF_NOT_CONVERGED        => TRUE             
  DKH_ORDER                   => 2                
  DOCC                        => [  ]             
  DO_DIIS                     => TRUE             
  DO_LEVEL_SHIFT              => TRUE             
  DO_SCS                      => FALSE           !
  DO_SOS                      => FALSE           !
  E3_SCALE                    => 0.25             
  EA_POLES                    => FALSE            
  EKT_EA                      => FALSE            
  EKT_IP                      => FALSE            
  EP_EA_POLES                 => FALSE            
  EP_IP_POLES                 => FALSE            
  EP_MAXITER                  => 30               
  EXTERNAL_POTENTIAL_SYMMETRY => FALSE            
  E_CONVERGENCE               => 1e-07           !
  FREEZE_CORE                 => FALSE            
  FROZEN_DOCC                 => [  ]             
  FROZEN_UOCC                 => [  ]             
  INTEGRAL_PACKAGE            => ERD              
  IP_POLES                    => FALSE            
  LEVEL_SHIFT                 => 0.02             
  LINEQ_SOLVER                => CDGESV           
  LITERAL_CFOUR               => (empty)          
  MAT_NUM_COLUMN_PRINT        => 5                
  MAX_MOGRAD_CONVERGENCE      => 0.001            
  MOGRAD_DAMPING              => 1                
  MO_DIIS_NUM_VECS            => 6                
  MO_MAXITER                  => 50               
  MO_READ                     => FALSE            
  MO_STEP_MAX                 => 0.5              
  MO_WRITE                    => FALSE            
  MP2_OS_SCALE                => 1.2              
  MP2_SOS_SCALE               => 1.3              
  MP2_SOS_SCALE2              => 1.2              
  MP2_SS_SCALE                => 0.333333         
  MP2_TYPE                    => DF              !
  MP_TYPE                     => CONV             
  NAT_ORBS                    => FALSE            
  NUM_FROZEN_DOCC             => 0                
  NUM_FROZEN_UOCC             => 0                
  OCC_ORBS_PRINT              => FALSE            
  OEPROP                      => FALSE            
  OPT_METHOD                  => ORB_RESP         
  ORB_OPT                     => FALSE           !
  ORB_RESP_SOLVER             => PCG              
  ORTH_TYPE                   => MGS              
  PCG_BETA_TYPE               => FLETCHER_REEVES  
  PCG_CONVERGENCE             => 1e-06            
  PCG_MAXITER                 => 30               
  PCM                         => FALSE            
  PCM_SCF_TYPE                => TOTAL            
  PRINT                       => 1                
  PRINT_NOONS                 => 3                
  PROPERTIES                  => [  ]             
  PROPERTIES_ORIGIN           => [  ]             
  PUREAM                      => TRUE             
  QC_MODULE                   => (empty)          
  RAS1                        => [  ]             
  RAS2                        => [  ]             
  RAS3                        => [  ]             
  RAS4                        => [  ]             
  RELATIVISTIC                => NO               
  RELAXED                     => TRUE             
  REL_BASIS                   => (empty)          
  RESTRICTED_DOCC             => [  ]             
  RESTRICTED_UOCC             => [  ]             
  RMS_MOGRAD_CONVERGENCE      => 1e-06            
  RUN_CCTRANSORT              => TRUE             
  R_CONVERGENCE               => 1e-05            
  SCS_TYPE                    => SCS              
  SOCC                        => [  ]             
  SOS_TYPE                    => SOS              
  SYMMETRIZE                  => TRUE             
  TPDM_ABCD_TYPE              => DIRECT           
  UNITS                       => ANGSTROMS        
  WFN                         => SCF              
  WFN_TYPE                    => OMP3            !
  WRITER_FILE_LABEL           => mp3-cc-pvdz     !


 ============================================================================== 
 ============================================================================== 
 ============================================================================== 

                       MP3   
              Program Written by Ugur Bozkaya,
              Latest Revision June 25, 2014.

 ============================================================================== 
 ============================================================================== 
 ============================================================================== 

	RMS orbital gradient is changed to :     3.16e-06
	MAX orbital gradient is changed to :     1.00e-04
	MO spaces per irreps... 

	IRREP   FC    OCC   VIR  FV 
	==============================
	  A1     0     3     7    0
	  A2     0     0     1    0
	  B1     0     1     3    0
	  B2     0     1     3    0
	==============================

	Computing MP2 energy using SCF MOs (Canonical MP2)... 
	============================================================================== 
	Nuclear Repulsion Energy (a.u.)    :     5.17673356229348
	SCF Energy (a.u.)                  :  -100.01927825684207
	REF Energy (a.u.)                  :  -100.01927825684207
	Alpha-Alpha Contribution (a.u.)    :    -0.02714747608795
	Alpha-Beta Contribution (a.u.)     :    -0.14959999213459
	Beta-Beta Contribution (a.u.)      :    -0.02714747608795
	Scaled_SS Correlation Energy (a.u.):    -0.01809831739197
	Scaled_OS Correlation Energy (a.u.):    -0.17951999056151
	SCS-MP2 Total Energy (a.u.)        :  -100.21689656479556
	SOS-MP2 Total Energy (a.u.)        :  -100.21375824661705
	SCSN-MP2 Total Energy (a.u.)       :  -100.11483737267166
	SCS-MP2-VDW Total Energy (a.u.)    :  -100.23791372286230
	SOS-PI-MP2 Total Energy (a.u.)     :  -100.22871824583051
	MP2 Correlation Energy (a.u.)      :    -0.20389494431050
	MP2 Total Energy (a.u.)            :  -100.22317320115258
	============================================================================== 


	Computing MP3 energy using SCF MOs (Canonical MP3)... 
	============================================================================== 
	Nuclear Repulsion Energy (a.u.)    :     5.17673356229348
	SCF Energy (a.u.)                  :  -100.01927825684207
	REF Energy (a.u.)                  :  -100.01927825684207
	Alpha-Alpha Contribution (a.u.)    :    -0.02494527130607
	Alpha-Beta Contribution (a.u.)     :    -0.15668090052540
	Beta-Beta Contribution (a.u.)      :    -0.02494527130607
	MP2.5 Correlation Energy (a.u.)    :    -0.20523319372402
	MP2.5 Total Energy (a.u.)          :  -100.22451145056610
	SCS-MP3 Total Energy (a.u.)        :  -100.21756568950232
	SOS-MP3 Total Energy (a.u.)        :  -100.21442737132381
	SCSN-MP3 Total Energy (a.u.)       :  -100.11550649737842
	SCS-MP3-VDW Total Energy (a.u.)    :  -100.23858284756906
	SOS-PI-MP3 Total Energy (a.u.)     :  -100.22938737053727
	3rd Order Energy (a.u.)            :    -0.00267649882703
	MP3 Correlation Energy (a.u.)      :    -0.20657144313754
	MP3 Total Energy (a.u.)            :  -100.22584969997961
	============================================================================== 


*** tstop() called on ds1.sherrill.chemistry.gatech.edu at Mon May  9 12:12:41 2016
Module time:
	user time   =       0.01 seconds =       0.00 minutes
	system time =       0.01 seconds =       0.00 minutes
	total time  =          0 seconds =       0.00 minutes
Total time:
	user time   =       0.27 seconds =       0.00 minutes
	system time =       0.04 seconds =       0.00 minutes
	total time  =          0 seconds =       0.00 minutes

  //>>>>>>>>>>>>>>>>>>>>>>>>>>>>>>>>>>>>>>>>>>//
  // CBS Results: MP2/cc-pVDZ + D:MP3/cc-pVDZ //
  //<<<<<<<<<<<<<<<<<<<<<<<<<<<<<<<<<<<<<<<<<<//


   ==> HF <==

   HI-zeta (0) Energy:                 0.000000000000

   ==> MP2 <==

   HI-zeta (0) Energy:               -100.223173201153

   ==> HF <==

   HI-zeta (0) Energy:                 0.000000000000

   ==> MP3 <==

   HI-zeta (0) Energy:               -100.225849699980

   ==> MP2 <==

   HI-zeta (0) Energy:               -100.223173201153

   ==> Components <==

  ---------------------------------------------------------------------------------------------------------
                          Method / Basis                      Rqd      Energy [Eh]   Variable
  ---------------------------------------------------------------------------------------------------------
                           mp2.5 / cc-pvdz                           -100.22451145   MP2.5 TOTAL ENERGY
                             scf / cc-pvdz                           -100.01927826   SCF TOTAL ENERGY
                             mp2 / cc-pvdz                      *    -100.22317320   MP2 TOTAL ENERGY
                             mp3 / cc-pvdz                      *    -100.22584970   MP3 TOTAL ENERGY
  ---------------------------------------------------------------------------------------------------------

   ==> Stages <==

  ---------------------------------------------------------------------------------------------------------
      Stage               Method / Basis                       Wt      Energy [Eh]   Scheme
  ---------------------------------------------------------------------------------------------------------
        scf                   hf / cc-pvdz                      1       0.00000000   xtpl_highest_1
       corl                  mp2 / cc-pvdz                      1    -100.22317320   xtpl_highest_1
       corl                   hf / cc-pvdz                     -1       0.00000000   xtpl_highest_1
      delta                  mp3 / cc-pvdz                      1    -100.22584970   xtpl_highest_1
      delta                  mp2 / cc-pvdz                     -1    -100.22317320   xtpl_highest_1
  ---------------------------------------------------------------------------------------------------------

   ==> CBS <==

  ---------------------------------------------------------------------------------------------------------
      Stage               Method / Basis                               Energy [Eh]   Scheme
  ---------------------------------------------------------------------------------------------------------
        scf                   hf / cc-pvdz                              0.00000000   xtpl_highest_1
       corl                  mp2 / cc-pvdz                           -100.22317320   xtpl_highest_1
      delta            mp3 - mp2 / cc-pvdz                             -0.00267650   xtpl_highest_1
      total                  CBS                                     -100.22584970   
  ---------------------------------------------------------------------------------------------------------
	MP3 Energy Call vs Delta Check....................................PASSED

  //>>>>>>>>>>>>>>>>>>>>>>>>>>>>>>>>>>>>>>>>>//
  // CBS Setup: MP2/cc-pVDZ + D:CCSD/cc-pVDZ //
  //<<<<<<<<<<<<<<<<<<<<<<<<<<<<<<<<<<<<<<<<<//

    Naive listing of computations required.
             hf / cc-pvdz                  for  HF TOTAL ENERGY
            mp2 / cc-pvdz                  for  MP2 TOTAL ENERGY
             hf / cc-pvdz                  for  HF TOTAL ENERGY
           ccsd / cc-pvdz                  for  CCSD TOTAL ENERGY
            mp2 / cc-pvdz                  for  MP2 TOTAL ENERGY

    Enlightened listing of computations required.
           ccsd / cc-pvdz                  for  CCSD TOTAL ENERGY

    Full listing of computations to be obtained (required and bonus).
            mp2 / cc-pvdz                  for  MP2 TOTAL ENERGY
             hf / cc-pvdz                  for  HF TOTAL ENERGY
           ccsd / cc-pvdz                  for  CCSD TOTAL ENERGY

  //>>>>>>>>>>>>>>>>>>>>>>>>>>>>>>>>>>>//
  //  CBS Computation: CCSD / CC-PVDZ  //
  //<<<<<<<<<<<<<<<<<<<<<<<<<<<<<<<<<<<//


*** tstart() called on ds1.sherrill.chemistry.gatech.edu
*** at Mon May  9 12:12:41 2016


         ---------------------------------------------------------
                                   SCF
            by Justin Turney, Rob Parrish, and Andy Simmonett
                              RHF Reference
                        1 Threads,    500 MiB Core
         ---------------------------------------------------------

  ==> Geometry <==

    Molecular point group: c2v
    Full point group: C_inf_v

    Geometry (in Angstrom), charge = 0, multiplicity = 1:

       Center              X                  Y                   Z               Mass       
    ------------   -----------------  -----------------  -----------------  -----------------
           F          0.000000000000     0.000000000000    -0.046345518887    18.998403224000
           H          0.000000000000     0.000000000000     0.873654481113     1.007825032070

  Running in c2v symmetry.

  Rotational constants: A = ************  B =     20.81056  C =     20.81056 [cm^-1]
  Rotational constants: A = ************  B = 623884.96375  C = 623884.96375 [MHz]
  Nuclear repulsion =    5.176733562293486

  Charge       = 0
  Multiplicity = 1
  Electrons    = 10
  Nalpha       = 5
  Nbeta        = 5

  ==> Algorithm <==

  SCF Algorithm Type is DF.
  DIIS enabled.
  MOM disabled.
  Fractional occupation disabled.
  Guess Type is CORE.
  Energy threshold   = 1.00e-07
  Density threshold  = 1.00e-08
  Integral threshold = 0.00e+00

  ==> Primary Basis <==

  Basis Set: CC-PVDZ
    Number of shells: 9
    Number of basis function: 19
    Number of Cartesian functions: 20
    Spherical Harmonics?: true
    Max angular momentum: 2

  ==> Pre-Iterations <==

   -------------------------------------------------------
    Irrep   Nso     Nmo     Nalpha   Nbeta   Ndocc  Nsocc
   -------------------------------------------------------
     A1        10      10       0       0       0       0
     A2         1       1       0       0       0       0
     B1         4       4       0       0       0       0
     B2         4       4       0       0       0       0
   -------------------------------------------------------
    Total      19      19       5       5       5       0
   -------------------------------------------------------

  ==> Integral Setup <==

  ==> DFJK: Density-Fitted J/K Matrices <==

    J tasked:                  Yes
    K tasked:                  Yes
    wK tasked:                  No
    OpenMP threads:              1
    Integrals threads:           1
    Memory (MB):               357
    Algorithm:                Core
    Integral Cache:           NONE
    Schwarz Cutoff:          1E-12
    Fitting Condition:       1E-12

   => Auxiliary Basis Set <=

  Basis Set: 
    Number of shells: 33
    Number of basis function: 93
    Number of Cartesian functions: 106
    Spherical Harmonics?: true
    Max angular momentum: 3

  Minimum eigenvalue in the overlap matrix is 4.9502195779E-02.
  Using Symmetric Orthogonalization.
  SCF Guess: Core (One-Electron) Hamiltonian.

  ==> Iterations <==

                           Total Energy        Delta E     RMS |[F,P]|

    Occupation by irrep:
             A1    A2    B1    B2 
    DOCC [     4,    0,    0,    1 ]

   @DF-RHF iter   1:   -93.63009959748052   -9.36301e+01   2.67935e-01 
    Occupation by irrep:
             A1    A2    B1    B2 
    DOCC [     3,    0,    1,    1 ]

   @DF-RHF iter   2:   -95.75935649793006   -2.12926e+00   2.42658e-01 DIIS
   @DF-RHF iter   3:   -99.95006097523213   -4.19070e+00   3.97723e-02 DIIS
   @DF-RHF iter   4:  -100.01545035527718   -6.53894e-02   7.80979e-03 DIIS
   @DF-RHF iter   5:  -100.01911207718501   -3.66172e-03   1.04233e-03 DIIS
   @DF-RHF iter   6:  -100.01926206700763   -1.49990e-04   5.04740e-04 DIIS
   @DF-RHF iter   7:  -100.01927788766947   -1.58207e-05   5.71061e-05 DIIS
   @DF-RHF iter   8:  -100.01927823810928   -3.50440e-07   2.13167e-05 DIIS
   @DF-RHF iter   9:  -100.01927825673145   -1.86222e-08   1.09982e-06 DIIS
   @DF-RHF iter  10:  -100.01927825684066   -1.09210e-10   8.33168e-08 DIIS
   @DF-RHF iter  11:  -100.01927825684132   -6.53699e-13   2.44817e-08 DIIS
   @DF-RHF iter  12:  -100.01927825684137   -5.68434e-14   2.36433e-09 DIIS

  ==> Post-Iterations <==

    Orbital Energies (a.u.)
    -----------------------

    Doubly Occupied:                                                      

       1A1   -26.278184     2A1    -1.582399     3A1    -0.746003  
       1B2    -0.628588     1B1    -0.628588  

    Virtual:                                                              

       4A1     0.183201     5A1     0.807103     2B2     1.411032  
       2B1     1.411032     6A1     1.416792     3B1     1.605022  
       3B2     1.605022     7A1     2.134558     8A1     2.490861  
       1A2     4.005101     9A1     4.005101     4B1     4.278076  
       4B2     4.278076    10A1     5.052238  

    Final Occupation by Irrep:
             A1    A2    B1    B2 
    DOCC [     3,    0,    1,    1 ]

  Energy converged.

  @DF-RHF Final Energy:  -100.01927825684137

   => Energetics <=

    Nuclear Repulsion Energy =              5.1767335622934860
    One-Electron Energy =                -150.6645008589883901
    Two-Electron Energy =                  45.4684890398535444
    DFT Exchange-Correlation Energy =       0.0000000000000000
    Empirical Dispersion Energy =           0.0000000000000000
    PCM Polarization Energy =               0.0000000000000000
    EFP Energy =                            0.0000000000000000
    Total Energy =                       -100.0192782568413463


  Saving occupied orbitals to File 180.

*** tstop() called on ds1.sherrill.chemistry.gatech.edu at Mon May  9 12:12:41 2016
Module time:
	user time   =       0.06 seconds =       0.00 minutes
	system time =       0.00 seconds =       0.00 minutes
	total time  =          0 seconds =       0.00 minutes
Total time:
	user time   =       0.40 seconds =       0.01 minutes
	system time =       0.04 seconds =       0.00 minutes
	total time  =          0 seconds =       0.00 minutes


Properties will be evaluated at   0.000000,   0.000000,   0.000000 Bohr

Properties computed using the SCF density matrix

  Nuclear Dipole Moment: (a.u.)
     X:     0.0000      Y:     0.0000      Z:     0.8627

  Electronic Dipole Moment: (a.u.)
     X:     0.0000      Y:     0.0000      Z:    -0.0932

  Dipole Moment: (a.u.)
     X:     0.0000      Y:     0.0000      Z:     0.7695     Total:     0.7695

  Dipole Moment: (Debye)
     X:     0.0000      Y:     0.0000      Z:     1.9559     Total:     1.9559


*** tstart() called on ds1.sherrill.chemistry.gatech.edu
*** at Mon May  9 12:12:41 2016


	Wfn Parameters:
	--------------------
	Wavefunction         = CCSD
	Number of irreps     = 4
	Number of MOs        = 19
	Number of active MOs = 19
	AO-Basis             = NONE
	Semicanonical        = false
	Reference            = RHF
	Print Level          = 1

	IRREP	# MOs	# FZDC	# DOCC	# SOCC	# VIRT	# FZVR
	-----	-----	------	------	------	------	------
	 A1	   10	    0	    3	    0	    7	    0
	 A2	   1	    0	    0	    0	    1	    0
	 B1	   4	    0	    1	    0	    3	    0
	 B2	   4	    0	    1	    0	    3	    0
	Transforming integrals...
	IWL integrals will be deleted.
	(OO|OO)...
	Presorting SO-basis two-electron integrals.
	Sorting File: SO Ints (nn|nn) nbuckets = 1
	Transforming the one-electron integrals and constructing Fock matrices
	Starting first half-transformation.
	Sorting half-transformed integrals.
	First half integral transformation complete.
	Starting second half-transformation.
	Two-electron integral transformation complete.
	(OO|OV)...
	Starting second half-transformation.
	Two-electron integral transformation complete.
	(OO|VV)...
	Starting second half-transformation.
	Two-electron integral transformation complete.
	(OV|OO)...
	Starting first half-transformation.
	Sorting half-transformed integrals.
	First half integral transformation complete.
	Starting second half-transformation.
	Two-electron integral transformation complete.
	(OV|OV)...
	Starting second half-transformation.
	Two-electron integral transformation complete.
	(OV|VV)...
	Starting second half-transformation.
	Two-electron integral transformation complete.
	(VV|OO)...
	Starting first half-transformation.
	Sorting half-transformed integrals.
	First half integral transformation complete.
	Starting second half-transformation.
	Two-electron integral transformation complete.
	(VV|OV)...
	Starting second half-transformation.
	Two-electron integral transformation complete.
	(VV|VV)...
	Starting second half-transformation.
	Two-electron integral transformation complete.
	Frozen core energy     =      0.00000000000000

	Size of irrep 0 of <ab|cd> integrals:      0.005 (MW) /      0.037 (MB)
	Size of irrep 1 of <ab|cd> integrals:      0.001 (MW) /      0.008 (MB)
	Size of irrep 2 of <ab|cd> integrals:      0.002 (MW) /      0.018 (MB)
	Size of irrep 3 of <ab|cd> integrals:      0.002 (MW) /      0.018 (MB)
	Total:                                     0.010 (MW) /      0.082 (MB)

	Size of irrep 0 of <ia|bc> integrals:      0.002 (MW) /      0.015 (MB)
	Size of irrep 1 of <ia|bc> integrals:      0.000 (MW) /      0.002 (MB)
	Size of irrep 2 of <ia|bc> integrals:      0.001 (MW) /      0.007 (MB)
	Size of irrep 3 of <ia|bc> integrals:      0.001 (MW) /      0.007 (MB)
	Total:                                     0.004 (MW) /      0.030 (MB)

	Size of irrep 0 of tijab amplitudes:       0.001 (MW) /      0.006 (MB)
	Size of irrep 1 of tijab amplitudes:       0.000 (MW) /      0.001 (MB)
	Size of irrep 2 of tijab amplitudes:       0.000 (MW) /      0.002 (MB)
	Size of irrep 3 of tijab amplitudes:       0.000 (MW) /      0.002 (MB)
	Total:                                     0.001 (MW) /      0.011 (MB)

	Nuclear Rep. energy          =      5.17673356229349
	SCF energy                   =   -100.01927825684137
	One-electron energy          =   -150.66450075061724
	Two-electron energy          =     45.46847828540335
	Reference energy             =   -100.01928890292039

*** tstop() called on ds1.sherrill.chemistry.gatech.edu at Mon May  9 12:12:41 2016
Module time:
	user time   =       0.02 seconds =       0.00 minutes
	system time =       0.02 seconds =       0.00 minutes
	total time  =          0 seconds =       0.00 minutes
Total time:
	user time   =       0.44 seconds =       0.01 minutes
	system time =       0.07 seconds =       0.00 minutes
	total time  =          0 seconds =       0.00 minutes

*** tstart() called on ds1.sherrill.chemistry.gatech.edu
*** at Mon May  9 12:12:41 2016

            **************************
            *                        *
            *        CCENERGY        *
            *                        *
            **************************

    Nuclear Rep. energy (wfn)     =    5.176733562293487
    SCF energy          (wfn)     = -100.019278256841375
    Reference energy    (file100) = -100.019288902920394

    Input parameters:
    -----------------
    Wave function   =     CCSD
    Reference wfn   =     RHF
    Brueckner       =     No
    Memory (Mbytes) =     500.0
    Maxiter         =     50
    R_Convergence   =     1.0e-07
    E_Convergence   =     1.0e-07
    Restart         =     Yes
    DIIS            =     Yes
    AO Basis        =     NONE
    ABCD            =     NEW
    Cache Level     =     2
    Cache Type      =     LOW
    Print Level     =     1
    Num. of threads =     1
    # Amps to Print =     10
    Print MP2 Amps? =     No
    Analyze T2 Amps =     No
    Print Pair Ener =     No
    Local CC        =     No
    SCS-MP2         =     False
    SCSN-MP2        =     False
    SCS-CCSD        =     False

MP2 correlation energy -0.2038949445679299
                Solving CC Amplitude Equations
                ------------------------------
  Iter             Energy              RMS        T1Diag      D1Diag    New D1Diag    D2Diag
  ----     ---------------------    ---------   ----------  ----------  ----------   --------
     0        -0.203894944567930    0.000e+00    0.000000    0.000000    0.000000    0.103147
     1        -0.205520618185557    2.181e-02    0.004143    0.010440    0.010440    0.108378
     2        -0.208381964595315    7.398e-03    0.004470    0.011848    0.011848    0.113232
     3        -0.208868983458110    2.311e-03    0.004977    0.013424    0.013424    0.114787
     4        -0.208847857698578    4.024e-04    0.005017    0.013624    0.013624    0.115014
     5        -0.208853006989781    1.084e-04    0.005034    0.013707    0.013707    0.115063
     6        -0.208852149060488    2.858e-05    0.005039    0.013729    0.013729    0.115066
     7        -0.208851530362816    6.226e-06    0.005040    0.013733    0.013733    0.115065
     8        -0.208851541945043    1.070e-06    0.005040    0.013733    0.013733    0.115065
     9        -0.208851530879795    1.480e-07    0.005040    0.013733    0.013733    0.115065
    10        -0.208851533280210    2.259e-08    0.005040    0.013733    0.013733    0.115065

    Iterations converged.


    Largest TIA Amplitudes:
              2   0         0.0089032604
              2   1        -0.0067664056
              2   4         0.0060632370
              3   8        -0.0047180480
              4  11        -0.0047180445
              1   0        -0.0038831650
              1   2         0.0034174850
              2   2        -0.0024875099
              4  12         0.0018734753
              3   9         0.0018734742

    Largest TIjAb Amplitudes:
      2   2   1   1        -0.0470883564
      3   3   8   8        -0.0412351325
      4   4  11  11        -0.0412351324
      3   4   8  11        -0.0294892105
      4   3  11   8        -0.0294892105
      2   2   0   1         0.0282922530
      2   2   1   0         0.0282922530
      2   2   0   0        -0.0257558039
      2   2   2   2        -0.0253191761
      2   3   2   8         0.0200383175

    SCF energy       (wfn)                    = -100.019278256841375
    Reference energy (file100)                = -100.019288902920394

    Opposite-spin MP2 correlation energy      =   -0.149599992328072
    Same-spin MP2 correlation energy          =   -0.054294952239858
    MP2 correlation energy                    =   -0.203894944567930
      * MP2 total energy                      = -100.223183847488329

    Opposite-spin CCSD correlation energy     =   -0.160279329272388
    Same-spin CCSD correlation energy         =   -0.048572203946127
    CCSD correlation energy                   =   -0.208851533280210
      * CCSD total energy                     = -100.228140436200604


*** tstop() called on ds1.sherrill.chemistry.gatech.edu at Mon May  9 12:12:42 2016
Module time:
	user time   =       0.04 seconds =       0.00 minutes
	system time =       0.12 seconds =       0.00 minutes
	total time  =          1 seconds =       0.02 minutes
Total time:
	user time   =       0.48 seconds =       0.01 minutes
	system time =       0.19 seconds =       0.00 minutes
	total time  =          1 seconds =       0.02 minutes

  //>>>>>>>>>>>>>>>>>>>>>>>>>>>>>>>>>>>>>>>>>>>//
  // CBS Results: MP2/cc-pVDZ + D:CCSD/cc-pVDZ //
  //<<<<<<<<<<<<<<<<<<<<<<<<<<<<<<<<<<<<<<<<<<<//


   ==> HF <==

   HI-zeta (0) Energy:               -100.019278256841

   ==> MP2 <==

   HI-zeta (0) Energy:               -100.223183847488

   ==> HF <==

   HI-zeta (0) Energy:               -100.019278256841

   ==> CCSD <==

   HI-zeta (0) Energy:               -100.228140436201

   ==> MP2 <==

   HI-zeta (0) Energy:               -100.223183847488

   ==> Components <==

  ---------------------------------------------------------------------------------------------------------
                          Method / Basis                      Rqd      Energy [Eh]   Variable
  ---------------------------------------------------------------------------------------------------------
                             mp2 / cc-pvdz                      *    -100.22318385   MP2 TOTAL ENERGY
                              hf / cc-pvdz                      *    -100.01927826   HF TOTAL ENERGY
                            ccsd / cc-pvdz                      *    -100.22814044   CCSD TOTAL ENERGY
  ---------------------------------------------------------------------------------------------------------

   ==> Stages <==

  ---------------------------------------------------------------------------------------------------------
      Stage               Method / Basis                       Wt      Energy [Eh]   Scheme
  ---------------------------------------------------------------------------------------------------------
        scf                   hf / cc-pvdz                      1    -100.01927826   xtpl_highest_1
       corl                  mp2 / cc-pvdz                      1    -100.22318385   xtpl_highest_1
       corl                   hf / cc-pvdz                     -1    -100.01927826   xtpl_highest_1
      delta                 ccsd / cc-pvdz                      1    -100.22814044   xtpl_highest_1
      delta                  mp2 / cc-pvdz                     -1    -100.22318385   xtpl_highest_1
  ---------------------------------------------------------------------------------------------------------

   ==> CBS <==

  ---------------------------------------------------------------------------------------------------------
      Stage               Method / Basis                               Energy [Eh]   Scheme
  ---------------------------------------------------------------------------------------------------------
        scf                   hf / cc-pvdz                           -100.01927826   xtpl_highest_1
       corl                  mp2 / cc-pvdz                             -0.20390559   xtpl_highest_1
      delta           ccsd - mp2 / cc-pvdz                             -0.00495659   xtpl_highest_1
      total                  CBS                                     -100.22814044   
  ---------------------------------------------------------------------------------------------------------

*** tstart() called on ds1.sherrill.chemistry.gatech.edu
*** at Mon May  9 12:12:42 2016


         ---------------------------------------------------------
                                   SCF
            by Justin Turney, Rob Parrish, and Andy Simmonett
                              RHF Reference
                        1 Threads,    500 MiB Core
         ---------------------------------------------------------

  ==> Geometry <==

    Molecular point group: c2v
    Full point group: C_inf_v

    Geometry (in Angstrom), charge = 0, multiplicity = 1:

       Center              X                  Y                   Z               Mass       
    ------------   -----------------  -----------------  -----------------  -----------------
           F          0.000000000000     0.000000000000    -0.046345518887    18.998403224000
           H          0.000000000000     0.000000000000     0.873654481113     1.007825032070

  Running in c2v symmetry.

  Rotational constants: A = ************  B =     20.81056  C =     20.81056 [cm^-1]
  Rotational constants: A = ************  B = 623884.96375  C = 623884.96375 [MHz]
  Nuclear repulsion =    5.176733562293490

  Charge       = 0
  Multiplicity = 1
  Electrons    = 10
  Nalpha       = 5
  Nbeta        = 5

  ==> Algorithm <==

  SCF Algorithm Type is DF.
  DIIS enabled.
  MOM disabled.
  Fractional occupation disabled.
  Guess Type is CORE.
  Energy threshold   = 1.00e-07
  Density threshold  = 1.00e-08
  Integral threshold = 0.00e+00

  ==> Primary Basis <==

  Basis Set: CC-PVDZ
    Number of shells: 9
    Number of basis function: 19
    Number of Cartesian functions: 20
    Spherical Harmonics?: true
    Max angular momentum: 2

  ==> Pre-Iterations <==

   -------------------------------------------------------
    Irrep   Nso     Nmo     Nalpha   Nbeta   Ndocc  Nsocc
   -------------------------------------------------------
     A1        10      10       0       0       0       0
     A2         1       1       0       0       0       0
     B1         4       4       0       0       0       0
     B2         4       4       0       0       0       0
   -------------------------------------------------------
    Total      19      19       5       5       5       0
   -------------------------------------------------------

  ==> Integral Setup <==

  ==> DFJK: Density-Fitted J/K Matrices <==

    J tasked:                  Yes
    K tasked:                  Yes
    wK tasked:                  No
    OpenMP threads:              1
    Integrals threads:           1
    Memory (MB):               357
    Algorithm:                Core
    Integral Cache:           NONE
    Schwarz Cutoff:          1E-12
    Fitting Condition:       1E-12

   => Auxiliary Basis Set <=

  Basis Set: 
    Number of shells: 33
    Number of basis function: 93
    Number of Cartesian functions: 106
    Spherical Harmonics?: true
    Max angular momentum: 3

  Minimum eigenvalue in the overlap matrix is 4.9502195779E-02.
  Using Symmetric Orthogonalization.
  SCF Guess: Core (One-Electron) Hamiltonian.

  ==> Iterations <==

                           Total Energy        Delta E     RMS |[F,P]|

    Occupation by irrep:
             A1    A2    B1    B2 
    DOCC [     4,    0,    0,    1 ]

   @DF-RHF iter   1:   -93.63009959748112   -9.36301e+01   2.67935e-01 
    Occupation by irrep:
             A1    A2    B1    B2 
    DOCC [     3,    0,    1,    1 ]

   @DF-RHF iter   2:   -95.75935649793031   -2.12926e+00   2.42658e-01 DIIS
   @DF-RHF iter   3:   -99.95006097523283   -4.19070e+00   3.97723e-02 DIIS
   @DF-RHF iter   4:  -100.01545035527793   -6.53894e-02   7.80979e-03 DIIS
   @DF-RHF iter   5:  -100.01911207718577   -3.66172e-03   1.04233e-03 DIIS
   @DF-RHF iter   6:  -100.01926206700823   -1.49990e-04   5.04740e-04 DIIS
   @DF-RHF iter   7:  -100.01927788767021   -1.58207e-05   5.71061e-05 DIIS
   @DF-RHF iter   8:  -100.01927823810991   -3.50440e-07   2.13167e-05 DIIS
   @DF-RHF iter   9:  -100.01927825673216   -1.86223e-08   1.09982e-06 DIIS
   @DF-RHF iter  10:  -100.01927825684136   -1.09196e-10   8.33168e-08 DIIS
   @DF-RHF iter  11:  -100.01927825684193   -5.68434e-13   2.44817e-08 DIIS
   @DF-RHF iter  12:  -100.01927825684197   -4.26326e-14   2.36433e-09 DIIS

  ==> Post-Iterations <==

    Orbital Energies (a.u.)
    -----------------------

    Doubly Occupied:                                                      

       1A1   -26.278184     2A1    -1.582399     3A1    -0.746003  
       1B2    -0.628588     1B1    -0.628588  

    Virtual:                                                              

       4A1     0.183201     5A1     0.807103     2B2     1.411032  
       2B1     1.411032     6A1     1.416792     3B1     1.605022  
       3B2     1.605022     7A1     2.134558     8A1     2.490861  
       1A2     4.005101     9A1     4.005101     4B1     4.278076  
       4B2     4.278076    10A1     5.052238  

    Final Occupation by Irrep:
             A1    A2    B1    B2 
    DOCC [     3,    0,    1,    1 ]

  Energy converged.

  @DF-RHF Final Energy:  -100.01927825684197

   => Energetics <=

    Nuclear Repulsion Energy =              5.1767335622934905
    One-Electron Energy =                -150.6645008589882195
    Two-Electron Energy =                  45.4684890398527415
    DFT Exchange-Correlation Energy =       0.0000000000000000
    Empirical Dispersion Energy =           0.0000000000000000
    PCM Polarization Energy =               0.0000000000000000
    EFP Energy =                            0.0000000000000000
    Total Energy =                       -100.0192782568419858


  Saving occupied orbitals to File 180.

*** tstop() called on ds1.sherrill.chemistry.gatech.edu at Mon May  9 12:12:42 2016
Module time:
	user time   =       0.06 seconds =       0.00 minutes
	system time =      -0.00 seconds =      -0.00 minutes
	total time  =          0 seconds =       0.00 minutes
Total time:
	user time   =       0.58 seconds =       0.01 minutes
	system time =       0.19 seconds =       0.00 minutes
	total time  =          1 seconds =       0.02 minutes


Properties will be evaluated at   0.000000,   0.000000,   0.000000 Bohr

Properties computed using the SCF density matrix

  Nuclear Dipole Moment: (a.u.)
     X:     0.0000      Y:     0.0000      Z:     0.8627

  Electronic Dipole Moment: (a.u.)
     X:     0.0000      Y:     0.0000      Z:    -0.0932

  Dipole Moment: (a.u.)
     X:     0.0000      Y:     0.0000      Z:     0.7695     Total:     0.7695

  Dipole Moment: (Debye)
     X:     0.0000      Y:     0.0000      Z:     1.9559     Total:     1.9559


*** tstart() called on ds1.sherrill.chemistry.gatech.edu
*** at Mon May  9 12:12:42 2016


	Wfn Parameters:
	--------------------
	Wavefunction         = CCSD
	Number of irreps     = 4
	Number of MOs        = 19
	Number of active MOs = 19
	AO-Basis             = NONE
	Semicanonical        = false
	Reference            = RHF
	Print Level          = 1

	IRREP	# MOs	# FZDC	# DOCC	# SOCC	# VIRT	# FZVR
	-----	-----	------	------	------	------	------
	 A1	   10	    0	    3	    0	    7	    0
	 A2	   1	    0	    0	    0	    1	    0
	 B1	   4	    0	    1	    0	    3	    0
	 B2	   4	    0	    1	    0	    3	    0
	Transforming integrals...
	IWL integrals will be deleted.
	(OO|OO)...
	Presorting SO-basis two-electron integrals.
	Sorting File: SO Ints (nn|nn) nbuckets = 1
	Transforming the one-electron integrals and constructing Fock matrices
	Starting first half-transformation.
	Sorting half-transformed integrals.
	First half integral transformation complete.
	Starting second half-transformation.
	Two-electron integral transformation complete.
	(OO|OV)...
	Starting second half-transformation.
	Two-electron integral transformation complete.
	(OO|VV)...
	Starting second half-transformation.
	Two-electron integral transformation complete.
	(OV|OO)...
	Starting first half-transformation.
	Sorting half-transformed integrals.
	First half integral transformation complete.
	Starting second half-transformation.
	Two-electron integral transformation complete.
	(OV|OV)...
	Starting second half-transformation.
	Two-electron integral transformation complete.
	(OV|VV)...
	Starting second half-transformation.
	Two-electron integral transformation complete.
	(VV|OO)...
	Starting first half-transformation.
	Sorting half-transformed integrals.
	First half integral transformation complete.
	Starting second half-transformation.
	Two-electron integral transformation complete.
	(VV|OV)...
	Starting second half-transformation.
	Two-electron integral transformation complete.
	(VV|VV)...
	Starting second half-transformation.
	Two-electron integral transformation complete.
	Frozen core energy     =      0.00000000000000

	Size of irrep 0 of <ab|cd> integrals:      0.005 (MW) /      0.037 (MB)
	Size of irrep 1 of <ab|cd> integrals:      0.001 (MW) /      0.008 (MB)
	Size of irrep 2 of <ab|cd> integrals:      0.002 (MW) /      0.018 (MB)
	Size of irrep 3 of <ab|cd> integrals:      0.002 (MW) /      0.018 (MB)
	Total:                                     0.010 (MW) /      0.082 (MB)

	Size of irrep 0 of <ia|bc> integrals:      0.002 (MW) /      0.015 (MB)
	Size of irrep 1 of <ia|bc> integrals:      0.000 (MW) /      0.002 (MB)
	Size of irrep 2 of <ia|bc> integrals:      0.001 (MW) /      0.007 (MB)
	Size of irrep 3 of <ia|bc> integrals:      0.001 (MW) /      0.007 (MB)
	Total:                                     0.004 (MW) /      0.030 (MB)

	Size of irrep 0 of tijab amplitudes:       0.001 (MW) /      0.006 (MB)
	Size of irrep 1 of tijab amplitudes:       0.000 (MW) /      0.001 (MB)
	Size of irrep 2 of tijab amplitudes:       0.000 (MW) /      0.002 (MB)
	Size of irrep 3 of tijab amplitudes:       0.000 (MW) /      0.002 (MB)
	Total:                                     0.001 (MW) /      0.011 (MB)

	Nuclear Rep. energy          =      5.17673356229349
	SCF energy                   =   -100.01927825684197
	One-electron energy          =   -150.66450075061721
	Two-electron energy          =     45.46847828540322
	Reference energy             =   -100.01928890292049

*** tstop() called on ds1.sherrill.chemistry.gatech.edu at Mon May  9 12:12:42 2016
Module time:
	user time   =       0.01 seconds =       0.00 minutes
	system time =       0.02 seconds =       0.00 minutes
	total time  =          0 seconds =       0.00 minutes
Total time:
	user time   =       0.62 seconds =       0.01 minutes
	system time =       0.21 seconds =       0.00 minutes
	total time  =          1 seconds =       0.02 minutes

*** tstart() called on ds1.sherrill.chemistry.gatech.edu
*** at Mon May  9 12:12:42 2016

            **************************
            *                        *
            *        CCENERGY        *
            *                        *
            **************************

    Nuclear Rep. energy (wfn)     =    5.176733562293490
    SCF energy          (wfn)     = -100.019278256841972
    Reference energy    (file100) = -100.019288902920493

    Input parameters:
    -----------------
    Wave function   =     CCSD
    Reference wfn   =     RHF
    Brueckner       =     No
    Memory (Mbytes) =     500.0
    Maxiter         =     50
    R_Convergence   =     1.0e-07
    E_Convergence   =     1.0e-07
    Restart         =     Yes
    DIIS            =     Yes
    AO Basis        =     NONE
    ABCD            =     NEW
    Cache Level     =     2
    Cache Type      =     LOW
    Print Level     =     1
    Num. of threads =     1
    # Amps to Print =     10
    Print MP2 Amps? =     No
    Analyze T2 Amps =     No
    Print Pair Ener =     No
    Local CC        =     No
    SCS-MP2         =     False
    SCSN-MP2        =     False
    SCS-CCSD        =     False

MP2 correlation energy -0.2038949445679354
                Solving CC Amplitude Equations
                ------------------------------
  Iter             Energy              RMS        T1Diag      D1Diag    New D1Diag    D2Diag
  ----     ---------------------    ---------   ----------  ----------  ----------   --------
     0        -0.203894944567935    0.000e+00    0.000000    0.000000    0.000000    0.103147
     1        -0.205520618185563    2.181e-02    0.004143    0.010440    0.010440    0.108378
     2        -0.208381964595321    7.398e-03    0.004470    0.011848    0.011848    0.113232
     3        -0.208868983458116    2.311e-03    0.004977    0.013424    0.013424    0.114787
     4        -0.208847857698584    4.024e-04    0.005017    0.013624    0.013624    0.115014
     5        -0.208853006989787    1.084e-04    0.005034    0.013707    0.013707    0.115063
     6        -0.208852149060494    2.858e-05    0.005039    0.013729    0.013729    0.115066
     7        -0.208851530362822    6.226e-06    0.005040    0.013733    0.013733    0.115065
     8        -0.208851541945048    1.070e-06    0.005040    0.013733    0.013733    0.115065
     9        -0.208851530879801    1.480e-07    0.005040    0.013733    0.013733    0.115065
    10        -0.208851533280216    2.259e-08    0.005040    0.013733    0.013733    0.115065

    Iterations converged.


    Largest TIA Amplitudes:
              2   0         0.0089032604
              2   1        -0.0067664056
              2   4         0.0060632370
              3   8        -0.0047180480
              4  11        -0.0047180445
              1   0        -0.0038831650
              1   2         0.0034174850
              2   2        -0.0024875099
              4  12         0.0018734753
              3   9         0.0018734742

    Largest TIjAb Amplitudes:
      2   2   1   1        -0.0470883564
      3   3   8   8        -0.0412351325
      4   4  11  11        -0.0412351324
      3   4   8  11        -0.0294892105
      4   3  11   8        -0.0294892105
      2   2   0   1         0.0282922530
      2   2   1   0         0.0282922530
      2   2   0   0        -0.0257558039
      2   2   2   2        -0.0253191761
      2   3   2   8         0.0200383175

    SCF energy       (wfn)                    = -100.019278256841972
    Reference energy (file100)                = -100.019288902920493

    Opposite-spin MP2 correlation energy      =   -0.149599992328076
    Same-spin MP2 correlation energy          =   -0.054294952239859
    MP2 correlation energy                    =   -0.203894944567935
      * MP2 total energy                      = -100.223183847488428

    Opposite-spin CCSD correlation energy     =   -0.160279329272393
    Same-spin CCSD correlation energy         =   -0.048572203946128
    CCSD correlation energy                   =   -0.208851533280216
      * CCSD total energy                     = -100.228140436200704


*** tstop() called on ds1.sherrill.chemistry.gatech.edu at Mon May  9 12:12:42 2016
Module time:
	user time   =       0.05 seconds =       0.00 minutes
	system time =       0.11 seconds =       0.00 minutes
	total time  =          0 seconds =       0.00 minutes
Total time:
	user time   =       0.67 seconds =       0.01 minutes
	system time =       0.32 seconds =       0.01 minutes
	total time  =          1 seconds =       0.02 minutes
	CCSD Energy Call vs Delta Check...................................PASSED

  //>>>>>>>>>>>>>>>>>>>>>>>>>>>>>>>>>>>>>>>>>>>>>//
  // CBS Setup: CCSD/cc-pVDZ + D:CCSD(T)/cc-pVDZ //
  //<<<<<<<<<<<<<<<<<<<<<<<<<<<<<<<<<<<<<<<<<<<<<//

    Naive listing of computations required.
             hf / cc-pvdz                  for  HF TOTAL ENERGY
           ccsd / cc-pvdz                  for  CCSD TOTAL ENERGY
             hf / cc-pvdz                  for  HF TOTAL ENERGY
        ccsd(t) / cc-pvdz                  for  CCSD(T) TOTAL ENERGY
           ccsd / cc-pvdz                  for  CCSD TOTAL ENERGY

    Enlightened listing of computations required.
        ccsd(t) / cc-pvdz                  for  CCSD(T) TOTAL ENERGY

    Full listing of computations to be obtained (required and bonus).
            mp2 / cc-pvdz                  for  MP2 TOTAL ENERGY
        ccsd(t) / cc-pvdz                  for  CCSD(T) TOTAL ENERGY
             hf / cc-pvdz                  for  HF TOTAL ENERGY
           ccsd / cc-pvdz                  for  CCSD TOTAL ENERGY

  //>>>>>>>>>>>>>>>>>>>>>>>>>>>>>>>>>>>>//
  // CBS Computation: CCSD(T) / CC-PVDZ //
  //<<<<<<<<<<<<<<<<<<<<<<<<<<<<<<<<<<<<//


*** tstart() called on ds1.sherrill.chemistry.gatech.edu
*** at Mon May  9 12:12:42 2016


         ---------------------------------------------------------
                                   SCF
            by Justin Turney, Rob Parrish, and Andy Simmonett
                              RHF Reference
                        1 Threads,    500 MiB Core
         ---------------------------------------------------------

  ==> Geometry <==

    Molecular point group: c2v
    Full point group: C_inf_v

    Geometry (in Angstrom), charge = 0, multiplicity = 1:

       Center              X                  Y                   Z               Mass       
    ------------   -----------------  -----------------  -----------------  -----------------
           F          0.000000000000     0.000000000000    -0.046345518887    18.998403224000
           H          0.000000000000     0.000000000000     0.873654481113     1.007825032070

  Running in c2v symmetry.

  Rotational constants: A = ************  B =     20.81056  C =     20.81056 [cm^-1]
  Rotational constants: A = ************  B = 623884.96375  C = 623884.96375 [MHz]
  Nuclear repulsion =    5.176733562293490

  Charge       = 0
  Multiplicity = 1
  Electrons    = 10
  Nalpha       = 5
  Nbeta        = 5

  ==> Algorithm <==

  SCF Algorithm Type is DF.
  DIIS enabled.
  MOM disabled.
  Fractional occupation disabled.
  Guess Type is CORE.
  Energy threshold   = 1.00e-07
  Density threshold  = 1.00e-08
  Integral threshold = 0.00e+00

  ==> Primary Basis <==

  Basis Set: CC-PVDZ
    Number of shells: 9
    Number of basis function: 19
    Number of Cartesian functions: 20
    Spherical Harmonics?: true
    Max angular momentum: 2

  ==> Pre-Iterations <==

   -------------------------------------------------------
    Irrep   Nso     Nmo     Nalpha   Nbeta   Ndocc  Nsocc
   -------------------------------------------------------
     A1        10      10       0       0       0       0
     A2         1       1       0       0       0       0
     B1         4       4       0       0       0       0
     B2         4       4       0       0       0       0
   -------------------------------------------------------
    Total      19      19       5       5       5       0
   -------------------------------------------------------

  ==> Integral Setup <==

  ==> DFJK: Density-Fitted J/K Matrices <==

    J tasked:                  Yes
    K tasked:                  Yes
    wK tasked:                  No
    OpenMP threads:              1
    Integrals threads:           1
    Memory (MB):               357
    Algorithm:                Core
    Integral Cache:           NONE
    Schwarz Cutoff:          1E-12
    Fitting Condition:       1E-12

   => Auxiliary Basis Set <=

  Basis Set: 
    Number of shells: 33
    Number of basis function: 93
    Number of Cartesian functions: 106
    Spherical Harmonics?: true
    Max angular momentum: 3

  Minimum eigenvalue in the overlap matrix is 4.9502195779E-02.
  Using Symmetric Orthogonalization.
  SCF Guess: Core (One-Electron) Hamiltonian.

  ==> Iterations <==

                           Total Energy        Delta E     RMS |[F,P]|

    Occupation by irrep:
             A1    A2    B1    B2 
    DOCC [     4,    0,    0,    1 ]

   @DF-RHF iter   1:   -93.63009959748112   -9.36301e+01   2.67935e-01 
    Occupation by irrep:
             A1    A2    B1    B2 
    DOCC [     3,    0,    1,    1 ]

   @DF-RHF iter   2:   -95.75935649793031   -2.12926e+00   2.42658e-01 DIIS
   @DF-RHF iter   3:   -99.95006097523283   -4.19070e+00   3.97723e-02 DIIS
   @DF-RHF iter   4:  -100.01545035527793   -6.53894e-02   7.80979e-03 DIIS
   @DF-RHF iter   5:  -100.01911207718577   -3.66172e-03   1.04233e-03 DIIS
   @DF-RHF iter   6:  -100.01926206700823   -1.49990e-04   5.04740e-04 DIIS
   @DF-RHF iter   7:  -100.01927788767021   -1.58207e-05   5.71061e-05 DIIS
   @DF-RHF iter   8:  -100.01927823810991   -3.50440e-07   2.13167e-05 DIIS
   @DF-RHF iter   9:  -100.01927825673216   -1.86223e-08   1.09982e-06 DIIS
   @DF-RHF iter  10:  -100.01927825684136   -1.09196e-10   8.33168e-08 DIIS
   @DF-RHF iter  11:  -100.01927825684193   -5.68434e-13   2.44817e-08 DIIS
   @DF-RHF iter  12:  -100.01927825684197   -4.26326e-14   2.36433e-09 DIIS

  ==> Post-Iterations <==

    Orbital Energies (a.u.)
    -----------------------

    Doubly Occupied:                                                      

       1A1   -26.278184     2A1    -1.582399     3A1    -0.746003  
       1B2    -0.628588     1B1    -0.628588  

    Virtual:                                                              

       4A1     0.183201     5A1     0.807103     2B2     1.411032  
       2B1     1.411032     6A1     1.416792     3B1     1.605022  
       3B2     1.605022     7A1     2.134558     8A1     2.490861  
       1A2     4.005101     9A1     4.005101     4B1     4.278076  
       4B2     4.278076    10A1     5.052238  

    Final Occupation by Irrep:
             A1    A2    B1    B2 
    DOCC [     3,    0,    1,    1 ]

  Energy converged.

  @DF-RHF Final Energy:  -100.01927825684197

   => Energetics <=

    Nuclear Repulsion Energy =              5.1767335622934905
    One-Electron Energy =                -150.6645008589882195
    Two-Electron Energy =                  45.4684890398527415
    DFT Exchange-Correlation Energy =       0.0000000000000000
    Empirical Dispersion Energy =           0.0000000000000000
    PCM Polarization Energy =               0.0000000000000000
[...]
    ------------   -----------------  -----------------  -----------------  -----------------
           F          0.000000000000     0.000000000000    -0.046345518887    18.998403224000
           H          0.000000000000     0.000000000000     0.873654481113     1.007825032070

  Running in c2v symmetry.

  Rotational constants: A = ************  B =     20.81056  C =     20.81056 [cm^-1]
  Rotational constants: A = ************  B = 623884.96375  C = 623884.96375 [MHz]
  Nuclear repulsion =    5.176733562293490

  Charge       = 0
  Multiplicity = 1
  Electrons    = 10
  Nalpha       = 5
  Nbeta        = 5

  ==> Algorithm <==

  SCF Algorithm Type is DF.
  DIIS enabled.
  MOM disabled.
  Fractional occupation disabled.
  Guess Type is CORE.
  Energy threshold   = 1.00e-07
  Density threshold  = 1.00e-08
  Integral threshold = 0.00e+00

  ==> Primary Basis <==

  Basis Set: CC-PVDZ
    Number of shells: 9
    Number of basis function: 19
    Number of Cartesian functions: 20
    Spherical Harmonics?: true
    Max angular momentum: 2

  ==> Pre-Iterations <==

   -------------------------------------------------------
    Irrep   Nso     Nmo     Nalpha   Nbeta   Ndocc  Nsocc
   -------------------------------------------------------
     A1        10      10       0       0       0       0
     A2         1       1       0       0       0       0
     B1         4       4       0       0       0       0
     B2         4       4       0       0       0       0
   -------------------------------------------------------
    Total      19      19       5       5       5       0
   -------------------------------------------------------

  ==> Integral Setup <==

  ==> DFJK: Density-Fitted J/K Matrices <==

    J tasked:                  Yes
    K tasked:                  Yes
    wK tasked:                  No
    OpenMP threads:              1
    Integrals threads:           1
    Memory (MB):               357
    Algorithm:                Core
    Integral Cache:           NONE
    Schwarz Cutoff:          1E-12
    Fitting Condition:       1E-12

   => Auxiliary Basis Set <=

  Basis Set: 
    Number of shells: 33
    Number of basis function: 93
    Number of Cartesian functions: 106
    Spherical Harmonics?: true
    Max angular momentum: 3

  Minimum eigenvalue in the overlap matrix is 4.9502195779E-02.
  Using Symmetric Orthogonalization.
  SCF Guess: Core (One-Electron) Hamiltonian.

  ==> Iterations <==

                           Total Energy        Delta E     RMS |[F,P]|

    Occupation by irrep:
             A1    A2    B1    B2 
    DOCC [     4,    0,    0,    1 ]

   @DF-RHF iter   1:   -93.63009959748112   -9.36301e+01   2.67935e-01 
    Occupation by irrep:
             A1    A2    B1    B2 
    DOCC [     3,    0,    1,    1 ]

   @DF-RHF iter   2:   -95.75935649793031   -2.12926e+00   2.42658e-01 DIIS
   @DF-RHF iter   3:   -99.95006097523283   -4.19070e+00   3.97723e-02 DIIS
   @DF-RHF iter   4:  -100.01545035527793   -6.53894e-02   7.80979e-03 DIIS
   @DF-RHF iter   5:  -100.01911207718577   -3.66172e-03   1.04233e-03 DIIS
   @DF-RHF iter   6:  -100.01926206700823   -1.49990e-04   5.04740e-04 DIIS
   @DF-RHF iter   7:  -100.01927788767021   -1.58207e-05   5.71061e-05 DIIS
   @DF-RHF iter   8:  -100.01927823810991   -3.50440e-07   2.13167e-05 DIIS
   @DF-RHF iter   9:  -100.01927825673216   -1.86223e-08   1.09982e-06 DIIS
   @DF-RHF iter  10:  -100.01927825684136   -1.09196e-10   8.33168e-08 DIIS
   @DF-RHF iter  11:  -100.01927825684193   -5.68434e-13   2.44817e-08 DIIS
   @DF-RHF iter  12:  -100.01927825684197   -4.26326e-14   2.36433e-09 DIIS

  ==> Post-Iterations <==

    Orbital Energies (a.u.)
    -----------------------

    Doubly Occupied:                                                      

       1A1   -26.278184     2A1    -1.582399     3A1    -0.746003  
       1B2    -0.628588     1B1    -0.628588  

    Virtual:                                                              

       4A1     0.183201     5A1     0.807103     2B2     1.411032  
       2B1     1.411032     6A1     1.416792     3B1     1.605022  
       3B2     1.605022     7A1     2.134558     8A1     2.490861  
       1A2     4.005101     9A1     4.005101     4B1     4.278076  
       4B2     4.278076    10A1     5.052238  

    Final Occupation by Irrep:
             A1    A2    B1    B2 
    DOCC [     3,    0,    1,    1 ]

  Energy converged.

  @DF-RHF Final Energy:  -100.01927825684197

   => Energetics <=

    Nuclear Repulsion Energy =              5.1767335622934905
    One-Electron Energy =                -150.6645008589882195
    Two-Electron Energy =                  45.4684890398527415
    DFT Exchange-Correlation Energy =       0.0000000000000000
    Empirical Dispersion Energy =           0.0000000000000000
    PCM Polarization Energy =               0.0000000000000000
    EFP Energy =                            0.0000000000000000
    Total Energy =                       -100.0192782568419858


  Saving occupied orbitals to File 180.

*** tstop() called on ds1.sherrill.chemistry.gatech.edu at Mon May  9 12:12:45 2016
Module time:
	user time   =       0.34 seconds =       0.01 minutes
	system time =       0.01 seconds =       0.00 minutes
	total time  =          0 seconds =       0.00 minutes
Total time:
	user time   =       6.45 seconds =       0.11 minutes
	system time =       1.45 seconds =       0.02 minutes
	total time  =          4 seconds =       0.07 minutes


Properties will be evaluated at   0.000000,   0.000000,   0.000000 Bohr

Properties computed using the SCF density matrix

  Nuclear Dipole Moment: (a.u.)
     X:     0.0000      Y:     0.0000      Z:     0.8627

  Electronic Dipole Moment: (a.u.)
     X:     0.0000      Y:     0.0000      Z:    -0.0932

  Dipole Moment: (a.u.)
     X:     0.0000      Y:     0.0000      Z:     0.7695     Total:     0.7695

  Dipole Moment: (Debye)
     X:     0.0000      Y:     0.0000      Z:     1.9559     Total:     1.9559


*** tstart() called on ds1.sherrill.chemistry.gatech.edu
*** at Mon May  9 12:12:45 2016


	Wfn Parameters:
	--------------------
	Wavefunction         = CCSD_T
	Number of irreps     = 4
	Number of MOs        = 19
	Number of active MOs = 19
	AO-Basis             = NONE
	Semicanonical        = false
	Reference            = RHF
	Print Level          = 1

	IRREP	# MOs	# FZDC	# DOCC	# SOCC	# VIRT	# FZVR
	-----	-----	------	------	------	------	------
	 A1	   10	    0	    3	    0	    7	    0
	 A2	   1	    0	    0	    0	    1	    0
	 B1	   4	    0	    1	    0	    3	    0
	 B2	   4	    0	    1	    0	    3	    0
	Transforming integrals...
	IWL integrals will be deleted.
	(OO|OO)...
	Presorting SO-basis two-electron integrals.
	Sorting File: SO Ints (nn|nn) nbuckets = 1
	Transforming the one-electron integrals and constructing Fock matrices
	Starting first half-transformation.
	Sorting half-transformed integrals.
	First half integral transformation complete.
	Starting second half-transformation.
	Two-electron integral transformation complete.
	(OO|OV)...
	Starting second half-transformation.
	Two-electron integral transformation complete.
	(OO|VV)...
	Starting second half-transformation.
	Two-electron integral transformation complete.
	(OV|OO)...
	Starting first half-transformation.
	Sorting half-transformed integrals.
	First half integral transformation complete.
	Starting second half-transformation.
	Two-electron integral transformation complete.
	(OV|OV)...
	Starting second half-transformation.
	Two-electron integral transformation complete.
	(OV|VV)...
	Starting second half-transformation.
	Two-electron integral transformation complete.
	(VV|OO)...
	Starting first half-transformation.
	Sorting half-transformed integrals.
	First half integral transformation complete.
	Starting second half-transformation.
	Two-electron integral transformation complete.
	(VV|OV)...
	Starting second half-transformation.
	Two-electron integral transformation complete.
	(VV|VV)...
	Starting second half-transformation.
	Two-electron integral transformation complete.
	Frozen core energy     =      0.00000000000000

	Size of irrep 0 of <ab|cd> integrals:      0.005 (MW) /      0.037 (MB)
	Size of irrep 1 of <ab|cd> integrals:      0.001 (MW) /      0.008 (MB)
	Size of irrep 2 of <ab|cd> integrals:      0.002 (MW) /      0.018 (MB)
	Size of irrep 3 of <ab|cd> integrals:      0.002 (MW) /      0.018 (MB)
	Total:                                     0.010 (MW) /      0.082 (MB)

	Size of irrep 0 of <ia|bc> integrals:      0.002 (MW) /      0.015 (MB)
	Size of irrep 1 of <ia|bc> integrals:      0.000 (MW) /      0.002 (MB)
	Size of irrep 2 of <ia|bc> integrals:      0.001 (MW) /      0.007 (MB)
	Size of irrep 3 of <ia|bc> integrals:      0.001 (MW) /      0.007 (MB)
	Total:                                     0.004 (MW) /      0.030 (MB)

	Size of irrep 0 of tijab amplitudes:       0.001 (MW) /      0.006 (MB)
	Size of irrep 1 of tijab amplitudes:       0.000 (MW) /      0.001 (MB)
	Size of irrep 2 of tijab amplitudes:       0.000 (MW) /      0.002 (MB)
	Size of irrep 3 of tijab amplitudes:       0.000 (MW) /      0.002 (MB)
	Total:                                     0.001 (MW) /      0.011 (MB)

	Nuclear Rep. energy          =      5.17673356229349
	SCF energy                   =   -100.01927825684197
	One-electron energy          =   -150.66450075061721
	Two-electron energy          =     45.46847828540322
	Reference energy             =   -100.01928890292049

*** tstop() called on ds1.sherrill.chemistry.gatech.edu at Mon May  9 12:12:45 2016
Module time:
	user time   =       0.00 seconds =       0.00 minutes
	system time =       0.02 seconds =       0.00 minutes
	total time  =          0 seconds =       0.00 minutes
Total time:
	user time   =       6.47 seconds =       0.11 minutes
	system time =       1.47 seconds =       0.02 minutes
	total time  =          4 seconds =       0.07 minutes

*** tstart() called on ds1.sherrill.chemistry.gatech.edu
*** at Mon May  9 12:12:45 2016

            **************************
            *                        *
            *        CCENERGY        *
            *                        *
            **************************

    Nuclear Rep. energy (wfn)     =    5.176733562293490
    SCF energy          (wfn)     = -100.019278256841972
    Reference energy    (file100) = -100.019288902920493

    Input parameters:
    -----------------
    Wave function   =     CCSD_T
    Reference wfn   =     RHF
    Brueckner       =     No
    Memory (Mbytes) =     500.0
    Maxiter         =     50
    R_Convergence   =     1.0e-07
    E_Convergence   =     1.0e-07
    Restart         =     Yes
    DIIS            =     Yes
    AO Basis        =     NONE
    ABCD            =     NEW
    Cache Level     =     2
    Cache Type      =     LOW
    Print Level     =     1
    Num. of threads =     1
    # Amps to Print =     10
    Print MP2 Amps? =     No
    Analyze T2 Amps =     No
    Print Pair Ener =     No
    Local CC        =     No
    SCS-MP2         =     False
    SCSN-MP2        =     False
    SCS-CCSD        =     False

MP2 correlation energy -0.2038949445679354
                Solving CC Amplitude Equations
                ------------------------------
  Iter             Energy              RMS        T1Diag      D1Diag    New D1Diag    D2Diag
  ----     ---------------------    ---------   ----------  ----------  ----------   --------
     0        -0.203894944567935    0.000e+00    0.000000    0.000000    0.000000    0.103147
     1        -0.205520618185563    2.181e-02    0.004143    0.010440    0.010440    0.108378
     2        -0.208381964595321    7.398e-03    0.004470    0.011848    0.011848    0.113232
     3        -0.208868983458116    2.311e-03    0.004977    0.013424    0.013424    0.114787
     4        -0.208847857698584    4.024e-04    0.005017    0.013624    0.013624    0.115014
     5        -0.208853006989787    1.084e-04    0.005034    0.013707    0.013707    0.115063
     6        -0.208852149060494    2.858e-05    0.005039    0.013729    0.013729    0.115066
     7        -0.208851530362822    6.226e-06    0.005040    0.013733    0.013733    0.115065
     8        -0.208851541945048    1.070e-06    0.005040    0.013733    0.013733    0.115065
     9        -0.208851530879801    1.480e-07    0.005040    0.013733    0.013733    0.115065
    10        -0.208851533280216    2.259e-08    0.005040    0.013733    0.013733    0.115065

    Iterations converged.


    Largest TIA Amplitudes:
              2   0         0.0089032604
              2   1        -0.0067664056
              2   4         0.0060632370
              3   8        -0.0047180480
              4  11        -0.0047180445
              1   0        -0.0038831650
              1   2         0.0034174850
              2   2        -0.0024875099
              4  12         0.0018734753
              3   9         0.0018734742

    Largest TIjAb Amplitudes:
      2   2   1   1        -0.0470883564
      3   3   8   8        -0.0412351325
      4   4  11  11        -0.0412351324
      3   4   8  11        -0.0294892105
      4   3  11   8        -0.0294892105
      2   2   0   1         0.0282922530
      2   2   1   0         0.0282922530
      2   2   0   0        -0.0257558039
      2   2   2   2        -0.0253191761
      2   3   2   8         0.0200383175

    SCF energy       (wfn)                    = -100.019278256841972
    Reference energy (file100)                = -100.019288902920493

    Opposite-spin MP2 correlation energy      =   -0.149599992328076
    Same-spin MP2 correlation energy          =   -0.054294952239859
    MP2 correlation energy                    =   -0.203894944567935
      * MP2 total energy                      = -100.223183847488428

    Opposite-spin CCSD correlation energy     =   -0.160279329272393
    Same-spin CCSD correlation energy         =   -0.048572203946128
    CCSD correlation energy                   =   -0.208851533280216
      * CCSD total energy                     = -100.228140436200704


*** tstop() called on ds1.sherrill.chemistry.gatech.edu at Mon May  9 12:12:45 2016
Module time:
	user time   =       0.05 seconds =       0.00 minutes
	system time =       0.10 seconds =       0.00 minutes
	total time  =          0 seconds =       0.00 minutes
Total time:
	user time   =       6.53 seconds =       0.11 minutes
	system time =       1.57 seconds =       0.03 minutes
	total time  =          4 seconds =       0.07 minutes

*** tstart() called on ds1.sherrill.chemistry.gatech.edu
*** at Mon May  9 12:12:45 2016

            **************************
            *                        *
            *        CCTRIPLES       *
            *                        *
            **************************


    Wave function   =    CCSD_T
    Reference wfn   =      RHF

    Nuclear Rep. energy (wfn)                =    5.176733562293490
    SCF energy          (wfn)                = -100.019278256841972
    Reference energy    (file100)            = -100.019288902920493
    CCSD energy         (file100)            =   -0.208851533280216
    Total CCSD energy   (file100)            = -100.228140436200704

    Number of ijk index combinations:               35
    Memory available in words        :        62500000
    ~Words needed per explicit thread:            1372
    Number of threads for explicit ijk threading:    1

    (T) energy                                =   -0.001942043731724
      * CCSD(T) total energy                  = -100.230082479932435


*** tstop() called on ds1.sherrill.chemistry.gatech.edu at Mon May  9 12:12:45 2016
Module time:
	user time   =       0.01 seconds =       0.00 minutes
	system time =       0.02 seconds =       0.00 minutes
	total time  =          0 seconds =       0.00 minutes
Total time:
	user time   =       6.54 seconds =       0.11 minutes
	system time =       1.59 seconds =       0.03 minutes
	total time  =          4 seconds =       0.07 minutes

  //>>>>>>>>>>>>>>>>>>>>>>>>>>>>>>>>>>>>>>>>>>>>>>>>>//
  // CBS Results: MP2/cc-pV[DT]Z + D:CCSD(T)/cc-pVDZ //
  //<<<<<<<<<<<<<<<<<<<<<<<<<<<<<<<<<<<<<<<<<<<<<<<<<//


   ==> HF <==

   HI-zeta (3) Energy:               -100.057855522335


   ==> Helgaker 2-point correlated extrapolation for method: MP2 <==

   LO-zeta (2) Energy:               -100.223183847488
   HI-zeta (3) Energy:               -100.342895958383
   Extrapolated Energy:              -100.393301057707

   @Extrapolated MP2/(D,T):          -100.393301057707



   ==> Helgaker 2-point correlated extrapolation for method: HF <==

   LO-zeta (2) Energy:               -100.019278256842
   HI-zeta (3) Energy:               -100.057855522335
   Extrapolated Energy:              -100.074098581490

   @Extrapolated HF/(D,T):           -100.074098581490


   ==> CCSD(T) <==

   HI-zeta (0) Energy:               -100.230082479932

   ==> MP2 <==

   HI-zeta (0) Energy:               -100.223183847488

   ==> Components <==

  ---------------------------------------------------------------------------------------------------------
                          Method / Basis                      Rqd      Energy [Eh]   Variable
  ---------------------------------------------------------------------------------------------------------
                             mp2 / cc-pvtz                      *    -100.34289596   MP2 TOTAL ENERGY
                              hf / cc-pvtz                      *    -100.05785552   HF TOTAL ENERGY
                             mp2 / cc-pvdz                      *    -100.22318385   MP2 TOTAL ENERGY
                         ccsd(t) / cc-pvdz                      *    -100.23008248   CCSD(T) TOTAL ENERGY
                              hf / cc-pvdz                      *    -100.01927826   HF TOTAL ENERGY
                            ccsd / cc-pvdz                           -100.22814044   CCSD TOTAL ENERGY
  ---------------------------------------------------------------------------------------------------------

   ==> Stages <==

  ---------------------------------------------------------------------------------------------------------
      Stage               Method / Basis                       Wt      Energy [Eh]   Scheme
  ---------------------------------------------------------------------------------------------------------
        scf                   hf / cc-pvtz                      1    -100.05785552   xtpl_highest_1
       corl                  mp2 / cc-pv[dt]z                   1    -100.39330106   corl_xtpl_helgaker_2
       corl                   hf / cc-pv[dt]z                  -1    -100.07409858   corl_xtpl_helgaker_2
      delta              ccsd(t) / cc-pvdz                      1    -100.23008248   xtpl_highest_1
      delta                  mp2 / cc-pvdz                     -1    -100.22318385   xtpl_highest_1
  ---------------------------------------------------------------------------------------------------------

   ==> CBS <==

  ---------------------------------------------------------------------------------------------------------
      Stage               Method / Basis                               Energy [Eh]   Scheme
  ---------------------------------------------------------------------------------------------------------
        scf                   hf / cc-pvtz                           -100.05785552   xtpl_highest_1
       corl                  mp2 / cc-pv[dt]z                          -0.31920248   corl_xtpl_helgaker_2
      delta        ccsd(t) - mp2 / cc-pvdz                             -0.00689863   xtpl_highest_1
      total                  CBS                                     -100.38395663   
  ---------------------------------------------------------------------------------------------------------
	MP2/cc-pV[DT]Z + D:CCSD(T)/cc-pVDZ Energy.........................PASSED

*** PSI4 exiting successfully. Buy a developer a beer!
