    -----------------------------------------------------------------------
          PSI4: An Open-Source Ab Initio Electronic Structure Package
                              PSI 4.0.0-beta3+ Driver

               Git: Rev {master} c28ba74bac7a3dad5c2cbe2bdd4abd7e9698d292

    J. M. Turney, A. C. Simmonett, R. M. Parrish, E. G. Hohenstein,
    F. A. Evangelista, J. T. Fermann, B. J. Mintz, L. A. Burns, J. J. Wilke,
    M. L. Abrams, N. J. Russ, M. L. Leininger, C. L. Janssen, E. T. Seidl,
    W. D. Allen, H. F. Schaefer, R. A. King, E. F. Valeev, C. D. Sherrill,
    and T. D. Crawford, WIREs Comput. Mol. Sci., (2011) (doi: 10.1002/wcms.93)

                         Additional Contributions by
    A. E. DePrince, M. Saitow, U. Bozkaya, A. Yu. Sokolov
    -----------------------------------------------------------------------

    Process ID:   1599
    PSI4DATADIR: /home/ugur/psi4/lib

    Using LocalCommunicator (Number of processes = 1)

    Memory level set to 256.000 MB

  ==> Input File <==

--------------------------------------------------------------------------
#! OCEPA cc-pVDZ   

memory 250 mb

molecule {
0 1
C            0.000000000000     0.000000000000     0.613925250708
C            0.000000000000    -0.000000000000    -0.613925250708
H            0.000000000000    -0.000000000000     1.692424754459
H            0.000000000000    -0.000000000000    -1.692424754459
}

set {
  basis cc-pvdz
  guess sad
  mo_maxiter 200
  rms_mograd_convergence 8
}
# Test against Analytic second derivatives from PSI3. #TEST
grad_freqs = PsiMod.Vector(7)  #TEST
grad_freqs.set(0, 0, 513.9751) #TEST
grad_freqs.set(0, 1, 513.9751) #TEST
grad_freqs.set(0, 2, 722.3250) #TEST
grad_freqs.set(0, 3, 722.3250) #TEST
grad_freqs.set(0, 4, 1977.8356) #TEST
grad_freqs.set(0, 5, 3406.9704) #TEST
grad_freqs.set(0, 6, 3497.4333) #TEST


frequencies('ocepa',dertype=0)
fd_freqs = PsiMod.wavefunction().frequencies()                                           #TEST
compare_vectors(grad_freqs, fd_freqs, 0,                                                 #TEST
 "Frequencies by gradient points vs. Frequencies by energy points to 1 cm^-1")           #TEST
--------------------------------------------------------------------------

  Memory set to 250.000 MiB by Python script.

-------------------------------------------------------------

  Using finite-differences of energies to determine vibrational frequencies and 
  normal modes.  Resulting frequencies are only valid at stationary points.
	Generating geometries for use with 3-point formula.
	Displacement size will be 5.00e-03.
	Number of atoms is 4.
	Number of irreps is 8.
	Number of SALCS is 7.
	 Number of SALC's per irrep:
	  Irrep 1: 2
	  Irrep 2: 0
	  Irrep 3: 1
	  Irrep 4: 1
	  Irrep 5: 0
	  Irrep 6: 1
	  Irrep 7: 1
	  Irrep 8: 1
	Number of geometries (including reference) is 11.
	Number of displacements per irrep:
	  Irrep 1: 6
	  Irrep 2: 0
	  Irrep 3: 1
	  Irrep 4: 1
	  Irrep 5: 0
	  Irrep 6: 1
	  Irrep 7: 1
	  Irrep 8: 1

-------------------------------------------------------------

  //>>>>>>>>>>>>>>>>>>>>>>>>>>>>>>>>>>>//
  //    Loading displacement 1 of 12   //
  //<<<<<<<<<<<<<<<<<<<<<<<<<<<<<<<<<<<//

*** tstart() called on bozkaya
*** at Tue Apr  2 11:43:16 2013


         ---------------------------------------------------------
                                   SCF
            by Justin Turney, Rob Parrish, and Andy Simmonett
                              RHF Reference
                        4 Threads,    250 MiB Core
         ---------------------------------------------------------

  ==> Geometry <==

    Molecular point group: d2h
    Full point group: D_inf_h

    Geometry (in Angstrom), charge = 0, multiplicity = 1:

       Center              X                  Y                   Z       
    ------------   -----------------  -----------------  -----------------
           C          0.000000000000     0.000000000000     0.613385161481
           C          0.000000000000     0.000000000000    -0.613385161481
           H          0.000000000000     0.000000000000     1.692424754459
           H          0.000000000000     0.000000000000    -1.692424754459

  Running in d2h symmetry.

  Nuclear repulsion =   24.324173433822391

  Charge       = 0
  Multiplicity = 1
  Electrons    = 14
  Nalpha       = 7
  Nbeta        = 7

  ==> Algorithm <==

  SCF Algorithm Type is PK.
  DIIS enabled.
  MOM disabled.
  Fractional occupation disabled.
  Guess Type is SAD.
  Energy threshold   = 1.00e-10
  Density threshold  = 1.00e-10
  Integral threshold = 0.00e+00

  ==> Primary Basis <==

  Basis Set: CC-PVDZ
    Number of shells: 18
    Number of basis function: 38
    Number of Cartesian functions: 40
    Spherical Harmonics?: true
    Max angular momentum: 2

  ==> Pre-Iterations <==

   -------------------------------------------------------
    Irrep   Nso     Nmo     Nalpha   Nbeta   Ndocc  Nsocc
   -------------------------------------------------------
     Ag        10      10       0       0       0       0
     B1g        1       1       0       0       0       0
     B2g        4       4       0       0       0       0
     B3g        4       4       0       0       0       0
     Au         1       1       0       0       0       0
     B1u       10      10       0       0       0       0
     B2u        4       4       0       0       0       0
     B3u        4       4       0       0       0       0
   -------------------------------------------------------
    Total      38      38       7       7       7       0
   -------------------------------------------------------

  ==> Integral Setup <==

 MINTS: Wrapper to libmints.
   by Justin Turney

   Calculation information:
      Number of atoms:                   4
      Number of AO shells:              18
      Number of SO shells:               9
      Number of primitives:             54
      Number of atomic orbitals:        40
      Number of basis functions:        38

      Number of irreps:                  8
      Number of functions per irrep: [  10    1    4    4    1   10    4    4 ]

      Overlap, kinetic, potential, dipole, and quadrupole integrals
        stored in file 35.

      Computing two-electron integrals...done
      Computed 35573 non-zero two-electron integrals.
        Stored in file 33.

	Batch   1 pq = [       0,     152] index = [             0,11628]
  ==> DiskJK: Disk-Based J/K Matrices <==

    J tasked:                  Yes
    K tasked:                  Yes
    wK tasked:                  No
    Memory (MB):               178
    Schwarz Cutoff:          0E+00

  Minimum eigenvalue in the overlap matrix is 9.6759325406E-04.
  Using Symmetric Orthogonalization.
  SCF Guess: Superposition of Atomic Densities via on-the-fly atomic UHF.

  Guess energy:   -50.60383383043484

  ==> Iterations <==

                        Total Energy        Delta E     RMS |[F,P]|

   @RHF iter   0:   -77.63715570967921   -7.76372e+01   1.43678e-01 
   @RHF iter   1:   -76.79818202126144    8.38974e-01   1.06969e-02 
   @RHF iter   2:   -76.82156167223161   -2.33797e-02   2.32034e-03 DIIS
   @RHF iter   3:   -76.82296904058781   -1.40737e-03   5.97491e-04 DIIS
   @RHF iter   4:   -76.82304931885214   -8.02783e-05   1.19741e-04 DIIS
   @RHF iter   5:   -76.82305313732732   -3.81848e-06   2.12243e-05 DIIS
   @RHF iter   6:   -76.82305328748495   -1.50158e-07   3.74514e-06 DIIS
   @RHF iter   7:   -76.82305329221545   -4.73050e-09   2.67627e-07 DIIS
   @RHF iter   8:   -76.82305329223165   -1.62004e-11   1.43397e-08 DIIS
   @RHF iter   9:   -76.82305329223175   -9.94760e-14   1.64740e-09 DIIS
   @RHF iter  10:   -76.82305329223168    7.10543e-14   2.20212e-10 DIIS
   @RHF iter  11:   -76.82305329223172   -4.26326e-14   2.74830e-11 DIIS

  ==> Post-Iterations <==

	Orbital Energies (a.u.)
	-----------------------

	Doubly Occupied:                                                      

	   1Ag   -11.255870     1B1u  -11.252690     2Ag    -1.019413  
	   2B1u   -0.760346     3Ag    -0.669060     1B3u   -0.400624  
	   1B2u   -0.400624  

	Virtual:                                                              

	   3B1u    0.187933     1B2g    0.193142     1B3g    0.193142  
	   4Ag     0.221025     4B1u    0.483468     5Ag     0.535591  
	   2B3u    0.665382     2B2u    0.665382     2B2g    0.813734  
	   2B3g    0.813734     5B1u    0.855288     6Ag     0.952705  
	   7Ag     1.093863     3B2u    1.219023     3B3u    1.219023  
	   8Ag     1.255595     1B1g    1.255595     6B1u    1.333167  
	   7B1u    1.431239     3B2g    1.624308     3B3g    1.624308  
	   1Au     1.671506     8B1u    1.671506     4B3u    2.046970  
	   4B2u    2.046970     9Ag     2.146674     9B1u    2.497003  
	   4B2g    2.660357     4B3g    2.660357    10Ag     3.206228  
	  10B1u    3.583964  

	Final Occupation by Irrep:
	         Ag   B1g   B2g   B3g    Au   B1u   B2u   B3u 
	DOCC [     3,    0,    0,    0,    0,    2,    1,    1 ]

  Energy converged.

  @RHF Final Energy:   -76.82305329223172

   => Energetics <=

    Nuclear Repulsion Energy =             24.3241734338223914
    One-Electron Energy =                -150.7772025046604654
    Two-Electron Energy =                  49.6299757786063651
    DFT Exchange-Correlation Energy =       0.0000000000000000
    Empirical Dispersion Energy =           0.0000000000000000
    Total Energy =                        -76.8230532922317053



Properties will be evaluated at   0.000000,   0.000000,   0.000000 Bohr
  ==> Properties <==


Properties computed using the SCF density density matrix
  Nuclear Dipole Moment: (a.u.)
     X:     0.0000      Y:     0.0000      Z:     0.0000

  Electronic Dipole Moment: (a.u.)
     X:     0.0000      Y:     0.0000      Z:     0.0000

  Dipole Moment: (a.u.)
     X:     0.0000      Y:     0.0000      Z:     0.0000     Total:     0.0000

  Dipole Moment: (Debye)
     X:     0.0000      Y:     0.0000      Z:     0.0000     Total:     0.0000


  Saving occupied orbitals to File 180.

*** tstop() called on bozkaya at Tue Apr  2 11:43:17 2013
Module time:
	user time   =       1.20 seconds =       0.02 minutes
	system time =       0.01 seconds =       0.00 minutes
	total time  =          1 seconds =       0.02 minutes
Total time:
	user time   =       1.20 seconds =       0.02 minutes
	system time =       0.01 seconds =       0.00 minutes
	total time  =          1 seconds =       0.02 minutes

*** tstart() called on bozkaya
*** at Tue Apr  2 11:43:17 2013



  Options:
  ----------------------------------------------------------------------------
  BENCH                  => 0                
  CACHELEVEL             => 2                
  CCL_ENERGY             => FALSE            
  CC_DIIS_MAX_VECS       => 6                
  CC_DIIS_MIN_VECS       => 2                
  CC_MAXITER             => 50               
  CEPA_OS_SCALE          => 1.27             
  CEPA_SOS_SCALE         => 1.3              
  CEPA_SS_SCALE          => 1.13             
  CEPA_TYPE              => CEPA0            
  CUTOFF                 => 14               
  DEBUG                  => 0                
  DERTYPE                => NONE             
  DIE_IF_NOT_CONVERGED   => TRUE             
  DOCC                   => [  ]             
  DO_DIIS                => TRUE             
  DO_LEVEL_SHIFT         => FALSE            
  DO_SCS                 => FALSE            
  DO_SOS                 => FALSE            
  E3_SCALE               => 0.25             
  EA_POLES               => FALSE            
  EKT_EA                 => FALSE            
  EKT_IP                 => FALSE            
  EP_EA_POLES            => FALSE            
  EP_IP_POLES            => FALSE            
  EP_MAXITER             => 30               
  E_CONVERGENCE          => 1e-08            
  FREEZE_CORE            => FALSE            
  FROZEN_DOCC            => [  ]             
  FROZEN_UOCC            => [  ]             
  IP_POLES               => FALSE            
  LEVEL_SHIFT            => 0.02             
  LINEQ_SOLVER           => CDGESV           
  MAT_NUM_COLUMN_PRINT   => 5                
  MAX_MOGRAD_CONVERGENCE => 0.001            
  MOGRAD_DAMPING         => 1                
  MO_DIIS_NUM_VECS       => 6                
  MO_MAXITER             => 200             !
  MO_READ                => FALSE            
  MO_STEP_MAX            => 0.5              
  MO_WRITE               => FALSE            
  MP2_OS_SCALE           => 1.2              
  MP2_SOS_SCALE          => 1.3              
  MP2_SOS_SCALE2         => 1.2              
  MP2_SS_SCALE           => 0.333333         
  MP2_TYPE               => DF               
  NAT_ORBS               => FALSE            
  NUM_FROZEN_DOCC        => 0                
  NUM_FROZEN_UOCC        => 0                
  OCC_ORBS_PRINT         => FALSE            
  OPT_METHOD             => ORB_RESP         
  ORB_OPT                => TRUE             
  ORB_RESP_SOLVER        => PCG              
  ORTH_TYPE              => MGS              
  PCG_BETA_TYPE          => FLETCHER_REEVES  
  PCG_CONVERGENCE        => 1e-06            
  PCG_MAXITER            => 30               
  PRINT                  => 1                
  PROPERTIES             => [  ]             
  PROPERTIES_ORIGIN      => [  ]             
  PUREAM                 => TRUE             
  RMS_MOGRAD_CONVERGENCE => 1e-08           !
  R_CONVERGENCE          => 1e-05            
  SCS_TYPE               => SCS              
  SOCC                   => [  ]             
  SOS_TYPE               => SOS              
  TPDM_ABCD_TYPE         => DIRECT           
  UNITS                  => ANGSTROMS        
  WFN                    => SCF              
  WFN_TYPE               => OCEPA           !
  WRITER_FILE_LABEL      => (empty)          


 ============================================================================== 
 ============================================================================== 
 ============================================================================== 

                       OCEPA (OO-CEPA)   
              Program Written by Ugur Bozkaya,
              Latest Revision April 1, 2013.

 ============================================================================== 
 ============================================================================== 
 ============================================================================== 

	MO spaces per irreps... 

	IRREP   FC    OCC   VIR  FV 
	==============================
	  Ag     0     3     7    0
	 B1g     0     0     1    0
	 B2g     0     0     4    0
	 B3g     0     0     4    0
	  Au     0     0     1    0
	 B1u     0     2     8    0
	 B2u     0     1     3    0
	 B3u     0     1     3    0
	==============================

	Computing MP2 energy using SCF MOs (Canonical MP2)... 
	============================================================================== 
	Nuclear Repulsion Energy (a.u.)    : 24.32417343382239
	SCF Energy (a.u.)                  : -76.82305329223172
	REF Energy (a.u.)                  : -76.82305329223178
	Alpha-Alpha Contribution (a.u.)    : -0.03202260147279
	Alpha-Beta Contribution (a.u.)     : -0.20023722221241
	Beta-Beta Contribution (a.u.)      : -0.03202260147279
	Scaled_SS Correlation Energy (a.u.): -0.02134840098186
	Scaled_OS Correlation Energy (a.u.): -0.24028466665490
	SCS-MP2 Total Energy (a.u.)        : -77.08468635986853
	SOS-MP2 Total Energy (a.u.)        : -77.08336168110792
	SCSN-MP2 Total Energy (a.u.)       : -76.93577284941600
	SCS-MI-MP2 Total Energy (a.u.)     : -76.98576649291654
	SCS-MP2-VDW Total Energy (a.u.)    : -77.11137953813646
	SOS-PI-MP2 Total Energy (a.u.)     : -77.10338540332916
	MP2 Correlation Energy (a.u.)      : -0.26428242515799
	MP2 Total Energy (a.u.)            : -77.08733571738976
	============================================================================== 

	Number of independent-pairs:  43

 ============================================================================== 
 ================ Performing OCEPA iterations... ============================== 
 ============================================================================== 
	            Minimizing CEPA-L Functional 
	            --------------------------- 
 Iter       E_total           DE           RMS MO Grad      MAX MO Grad      RMS T2    
 ----    ---------------    ----------     -----------      -----------     ---------- 
   1     -77.1005239554     -1.32e-02       1.59e-04         2.79e-03        7.01e-06 
   2     -77.1085244003     -8.00e-03       9.89e-05         1.61e-03        3.65e-06 
   3     -77.1109760382     -2.45e-03       4.96e-05         8.62e-04        2.12e-06 
   4     -77.1122378929     -1.26e-03       3.09e-05         5.46e-04        1.42e-06 
   5     -77.1129240641     -6.86e-04       2.01e-05         3.57e-04        9.75e-07 
   6     -77.1133345471     -4.10e-04       2.58e-05         4.49e-04        6.92e-07 
   7     -77.1136101108     -2.76e-04       1.12e-05         1.94e-04        4.76e-07 
   8     -77.1137911948     -1.81e-04       1.25e-05         2.24e-04        3.39e-07 
   9     -77.1139122667     -1.21e-04       1.77e-05         3.12e-04        2.39e-07 
  10     -77.1139960233     -8.38e-05       2.08e-05         3.75e-04        1.69e-07 
  11     -77.1140529695     -5.69e-05       1.62e-05         2.99e-04        1.21e-07 
  12     -77.1140927427     -3.98e-05       1.24e-05         2.27e-04        8.69e-08 
  13     -77.1141200912     -2.73e-05       4.57e-06         1.10e-04        6.35e-08 
  14     -77.1141410021     -2.09e-05       6.14e-06         1.38e-04        4.41e-08 
  15     -77.1141549022     -1.39e-05       3.01e-06         5.28e-05        3.29e-08 
  16     -77.1141657409     -1.08e-05       3.52e-06         8.77e-05        2.24e-08 
  17     -77.1141730629     -7.32e-06       2.81e-06         5.88e-05        1.65e-08 
  18     -77.1141812343     -8.17e-06       1.84e-05         3.39e-04        1.07e-08 
  19     -77.1141766474      4.59e-06       2.53e-05         4.44e-04        2.45e-08 
  20     -77.1141837754     -7.13e-06       7.02e-07         1.32e-05        9.48e-09 
  21     -77.1141877548     -3.98e-06       1.25e-07         2.09e-06        4.27e-09 
  22     -77.1141884532     -6.98e-07       1.41e-07         2.66e-06        2.73e-09 
  23     -77.1141892853     -8.32e-07       6.41e-08         1.01e-06        1.99e-09 
  24     -77.1141898442     -5.59e-07       4.68e-08         1.00e-06        1.42e-09 
  25     -77.1141902803     -4.36e-07       1.30e-08         2.36e-07        1.00e-09 
  26     -77.1141905961     -3.16e-07       7.55e-09         1.38e-07        7.10e-10 

 ============================================================================== 
 ======================== OCEPA ITERATIONS ARE CONVERGED ====================== 
 ============================================================================== 

	Orbitals are optimized now.
	Switching to the standard CEPA computation... 

  
 ============================================================================== 
 ================ Performing CEPA iterations... =============================== 
 ============================================================================== 

  Iter    E_corr           E_total            DE           T2 RMS        
  ----   -------------    ---------------    ----------   ----------    
   1     -0.2911375277    -77.1141908199     -2.24e-07     5.04e-10 
   2     -0.2911380748    -77.1141913670     -5.47e-07     3.58e-10 
   3     -0.2911380782    -77.1141913704     -3.42e-09     2.18e-12 

 ============================================================================== 
 ======================== CEPA ITERATIONS ARE CONVERGED ======================= 
 ============================================================================== 

	============================================================================== 
	================ OCEPA FINAL RESULTS ========================================= 
	============================================================================== 
	Nuclear Repulsion Energy (a.u.)    : 24.32417343382239
	SCF Energy (a.u.)                  : -76.82305329223172
	REF Energy (a.u.)                  : -76.82007059030340
	SCS-OCEPA(0) Total Energy (a.u.)   : -77.18616499616118
	SOS-OCEPA(0) Total Energy (a.u.)   : -77.13335131601855
	OCEPA(0) Correlation Energy (a.u.) : -0.29113807820443
	Eocepa - Eref (a.u.)               : -0.29412078013274
	OCEPA(0) Total Energy (a.u.)       : -77.11419137043615
	============================================================================== 


*** tstop() called on bozkaya at Tue Apr  2 11:43:19 2013
Module time:
	user time   =       2.53 seconds =       0.04 minutes
	system time =       0.58 seconds =       0.01 minutes
	total time  =          2 seconds =       0.03 minutes
Total time:
	user time   =       3.73 seconds =       0.06 minutes
	system time =       0.59 seconds =       0.01 minutes
	total time  =          3 seconds =       0.05 minutes

  //>>>>>>>>>>>>>>>>>>>>>>>>>>>>>>>>>>>//
  //    Loading displacement 2 of 12   //
  //<<<<<<<<<<<<<<<<<<<<<<<<<<<<<<<<<<<//

*** tstart() called on bozkaya
*** at Tue Apr  2 11:43:19 2013


         ---------------------------------------------------------
                                   SCF
            by Justin Turney, Rob Parrish, and Andy Simmonett
                              RHF Reference
                        4 Threads,    250 MiB Core
         ---------------------------------------------------------

  ==> Geometry <==

    Molecular point group: d2h
    Full point group: D_inf_h

    Geometry (in Angstrom), charge = 0, multiplicity = 1:

       Center              X                  Y                   Z       
    ------------   -----------------  -----------------  -----------------
           C          0.000000000000     0.000000000000     0.614465339935
           C          0.000000000000     0.000000000000    -0.614465339935
           H          0.000000000000     0.000000000000     1.692424754459
           H          0.000000000000     0.000000000000    -1.692424754459

  Running in d2h symmetry.

  Nuclear repulsion =   24.301482528724954

  Charge       = 0
  Multiplicity = 1
  Electrons    = 14
  Nalpha       = 7
  Nbeta        = 7

  ==> Algorithm <==

  SCF Algorithm Type is PK.
  DIIS enabled.
  MOM disabled.
  Fractional occupation disabled.
  Guess Type is SAD.
  Energy threshold   = 1.00e-10
  Density threshold  = 1.00e-10
  Integral threshold = 0.00e+00

  ==> Primary Basis <==

  Basis Set: CC-PVDZ
    Number of shells: 18
    Number of basis function: 38
    Number of Cartesian functions: 40
    Spherical Harmonics?: true
    Max angular momentum: 2

  ==> Pre-Iterations <==

   -------------------------------------------------------
    Irrep   Nso     Nmo     Nalpha   Nbeta   Ndocc  Nsocc
   -------------------------------------------------------
     Ag        10      10       0       0       0       0
     B1g        1       1       0       0       0       0
     B2g        4       4       0       0       0       0
     B3g        4       4       0       0       0       0
     Au         1       1       0       0       0       0
     B1u       10      10       0       0       0       0
     B2u        4       4       0       0       0       0
     B3u        4       4       0       0       0       0
   -------------------------------------------------------
    Total      38      38       7       7       7       0
   -------------------------------------------------------

  ==> Integral Setup <==

 MINTS: Wrapper to libmints.
   by Justin Turney

   Calculation information:
      Number of atoms:                   4
      Number of AO shells:              18
      Number of SO shells:               9
      Number of primitives:             54
      Number of atomic orbitals:        40
      Number of basis functions:        38

      Number of irreps:                  8
      Number of functions per irrep: [  10    1    4    4    1   10    4    4 ]

      Overlap, kinetic, potential, dipole, and quadrupole integrals
        stored in file 35.

      Computing two-electron integrals...done
      Computed 35573 non-zero two-electron integrals.
        Stored in file 33.

	Batch   1 pq = [       0,     152] index = [             0,11628]
  ==> DiskJK: Disk-Based J/K Matrices <==

    J tasked:                  Yes
    K tasked:                  Yes
    wK tasked:                  No
    Memory (MB):               178
    Schwarz Cutoff:          0E+00

  Minimum eigenvalue in the overlap matrix is 9.7717255920E-04.
  Using Symmetric Orthogonalization.
  SCF Guess: Superposition of Atomic Densities via on-the-fly atomic UHF.

  Guess energy:   -50.60528680350635

  ==> Iterations <==

                        Total Energy        Delta E     RMS |[F,P]|

   @RHF iter   0:   -77.63318263982870   -7.76332e+01   1.43297e-01 
   @RHF iter   1:   -76.79793933435150    8.35243e-01   1.06770e-02 
   @RHF iter   2:   -76.82128638869369   -2.33471e-02   2.31596e-03 DIIS
   @RHF iter   3:   -76.82269250720131   -1.40612e-03   5.89999e-04 DIIS
   @RHF iter   4:   -76.82277127480000   -7.87676e-05   1.19177e-04 DIIS
   @RHF iter   5:   -76.82277503499984   -3.76020e-06   2.11896e-05 DIIS
   @RHF iter   6:   -76.82277518431383   -1.49314e-07   3.74404e-06 DIIS
   @RHF iter   7:   -76.82277518903825   -4.72443e-09   2.68110e-07 DIIS
   @RHF iter   8:   -76.82277518905460   -1.63425e-11   1.43808e-08 DIIS
   @RHF iter   9:   -76.82277518905460    0.00000e+00   1.64493e-09 DIIS
   @RHF iter  10:   -76.82277518905460    0.00000e+00   2.16303e-10 DIIS
   @RHF iter  11:   -76.82277518905457    2.84217e-14   2.70878e-11 DIIS

  ==> Post-Iterations <==

	Orbital Energies (a.u.)
	-----------------------

	Doubly Occupied:                                                      

	   1Ag   -11.256404     1B1u  -11.253265     2Ag    -1.018837  
	   2B1u   -0.761109     3Ag    -0.669377     1B3u   -0.400167  
	   1B2u   -0.400167  

	Virtual:                                                              

	   3B1u    0.187950     1B2g    0.192461     1B3g    0.192461  
	   4Ag     0.221048     4B1u    0.482756     5Ag     0.536120  
	   2B3u    0.665776     2B2u    0.665776     2B2g    0.813289  
	   2B3g    0.813289     5B1u    0.855531     6Ag     0.952996  
	   7Ag     1.093827     3B2u    1.218216     3B3u    1.218216  
	   8Ag     1.255781     1B1g    1.255781     6B1u    1.330516  
	   7B1u    1.430459     3B2g    1.623970     3B3g    1.623970  
	   8B1u    1.670516     1Au     1.670516     4B3u    2.046642  
	   4B2u    2.046642     9Ag     2.147189     9B1u    2.496900  
	   4B2g    2.660214     4B3g    2.660214    10Ag     3.208462  
	  10B1u    3.578855  

	Final Occupation by Irrep:
	         Ag   B1g   B2g   B3g    Au   B1u   B2u   B3u 
	DOCC [     3,    0,    0,    0,    0,    2,    1,    1 ]

  Energy converged.

  @RHF Final Energy:   -76.82277518905457

   => Energetics <=

    Nuclear Repulsion Energy =             24.3014825287249536
    One-Electron Energy =                -150.7298618623088373
    Two-Electron Energy =                  49.6056041445293090
    DFT Exchange-Correlation Energy =       0.0000000000000000
    Empirical Dispersion Energy =           0.0000000000000000
    Total Energy =                        -76.8227751890545676



Properties will be evaluated at   0.000000,   0.000000,   0.000000 Bohr
  ==> Properties <==


Properties computed using the SCF density density matrix
  Nuclear Dipole Moment: (a.u.)
     X:     0.0000      Y:     0.0000      Z:     0.0000

  Electronic Dipole Moment: (a.u.)
     X:     0.0000      Y:     0.0000      Z:     0.0000

  Dipole Moment: (a.u.)
     X:     0.0000      Y:     0.0000      Z:     0.0000     Total:     0.0000

  Dipole Moment: (Debye)
     X:     0.0000      Y:     0.0000      Z:     0.0000     Total:     0.0000


  Saving occupied orbitals to File 180.

*** tstop() called on bozkaya at Tue Apr  2 11:43:20 2013
Module time:
	user time   =       1.20 seconds =       0.02 minutes
	system time =       0.01 seconds =       0.00 minutes
	total time  =          1 seconds =       0.02 minutes
Total time:
	user time   =       4.96 seconds =       0.08 minutes
	system time =       0.60 seconds =       0.01 minutes
	total time  =          4 seconds =       0.07 minutes

*** tstart() called on bozkaya
*** at Tue Apr  2 11:43:20 2013



  Options:
  ----------------------------------------------------------------------------
  BENCH                  => 0                
  CACHELEVEL             => 2                
  CCL_ENERGY             => FALSE            
  CC_DIIS_MAX_VECS       => 6                
  CC_DIIS_MIN_VECS       => 2                
  CC_MAXITER             => 50               
  CEPA_OS_SCALE          => 1.27             
  CEPA_SOS_SCALE         => 1.3              
  CEPA_SS_SCALE          => 1.13             
  CEPA_TYPE              => CEPA0            
  CUTOFF                 => 14               
  DEBUG                  => 0                
  DERTYPE                => NONE             
  DIE_IF_NOT_CONVERGED   => TRUE             
  DOCC                   => [  ]             
  DO_DIIS                => TRUE             
  DO_LEVEL_SHIFT         => FALSE            
  DO_SCS                 => FALSE            
  DO_SOS                 => FALSE            
  E3_SCALE               => 0.25             
  EA_POLES               => FALSE            
  EKT_EA                 => FALSE            
  EKT_IP                 => FALSE            
  EP_EA_POLES            => FALSE            
  EP_IP_POLES            => FALSE            
  EP_MAXITER             => 30               
  E_CONVERGENCE          => 1e-08            
  FREEZE_CORE            => FALSE            
  FROZEN_DOCC            => [  ]             
  FROZEN_UOCC            => [  ]             
  IP_POLES               => FALSE            
  LEVEL_SHIFT            => 0.02             
  LINEQ_SOLVER           => CDGESV           
  MAT_NUM_COLUMN_PRINT   => 5                
  MAX_MOGRAD_CONVERGENCE => 0.001            
  MOGRAD_DAMPING         => 1                
  MO_DIIS_NUM_VECS       => 6                
  MO_MAXITER             => 200             !
  MO_READ                => FALSE            
  MO_STEP_MAX            => 0.5              
  MO_WRITE               => FALSE            
  MP2_OS_SCALE           => 1.2              
  MP2_SOS_SCALE          => 1.3              
  MP2_SOS_SCALE2         => 1.2              
  MP2_SS_SCALE           => 0.333333         
  MP2_TYPE               => DF               
  NAT_ORBS               => FALSE            
  NUM_FROZEN_DOCC        => 0                
  NUM_FROZEN_UOCC        => 0                
  OCC_ORBS_PRINT         => FALSE            
  OPT_METHOD             => ORB_RESP         
  ORB_OPT                => TRUE             
  ORB_RESP_SOLVER        => PCG              
  ORTH_TYPE              => MGS              
  PCG_BETA_TYPE          => FLETCHER_REEVES  
  PCG_CONVERGENCE        => 1e-06            
  PCG_MAXITER            => 30               
  PRINT                  => 1                
  PROPERTIES             => [  ]             
  PROPERTIES_ORIGIN      => [  ]             
  PUREAM                 => TRUE             
  RMS_MOGRAD_CONVERGENCE => 1e-08           !
  R_CONVERGENCE          => 1e-05            
  SCS_TYPE               => SCS              
  SOCC                   => [  ]             
  SOS_TYPE               => SOS              
  TPDM_ABCD_TYPE         => DIRECT           
  UNITS                  => ANGSTROMS        
  WFN                    => SCF              
  WFN_TYPE               => OCEPA           !
  WRITER_FILE_LABEL      => (empty)          


 ============================================================================== 
 ============================================================================== 
 ============================================================================== 

                       OCEPA (OO-CEPA)   
              Program Written by Ugur Bozkaya,
              Latest Revision April 1, 2013.

 ============================================================================== 
 ============================================================================== 
 ============================================================================== 

	MO spaces per irreps... 

	IRREP   FC    OCC   VIR  FV 
	==============================
	  Ag     0     3     7    0
	 B1g     0     0     1    0
	 B2g     0     0     4    0
	 B3g     0     0     4    0
	  Au     0     0     1    0
	 B1u     0     2     8    0
	 B2u     0     1     3    0
	 B3u     0     1     3    0
	==============================

	Computing MP2 energy using SCF MOs (Canonical MP2)... 
	============================================================================== 
	Nuclear Repulsion Energy (a.u.)    : 24.30148252872495
	SCF Energy (a.u.)                  : -76.82277518905457
	REF Energy (a.u.)                  : -76.82277518905451
	Alpha-Alpha Contribution (a.u.)    : -0.03206630658920
	Alpha-Beta Contribution (a.u.)     : -0.20044798757178
	Beta-Beta Contribution (a.u.)      : -0.03206630658920
	Scaled_SS Correlation Energy (a.u.): -0.02137753772613
	Scaled_OS Correlation Energy (a.u.): -0.24053758508613
	SCS-MP2 Total Energy (a.u.)        : -77.08469031186677
	SOS-MP2 Total Energy (a.u.)        : -77.08335757289782
	SCSN-MP2 Total Energy (a.u.)       : -76.93564858824848
	SCS-MI-MP2 Total Energy (a.u.)     : -76.98568545508334
	SCS-MP2-VDW Total Energy (a.u.)    : -77.11141491973558
	SOS-PI-MP2 Total Energy (a.u.)     : -77.10340237165499
	MP2 Correlation Energy (a.u.)      : -0.26458060075017
	MP2 Total Energy (a.u.)            : -77.08735578980468
	============================================================================== 

	Number of independent-pairs:  43

 ============================================================================== 
 ================ Performing OCEPA iterations... ============================== 
 ============================================================================== 
	            Minimizing CEPA-L Functional 
	            --------------------------- 
 Iter       E_total           DE           RMS MO Grad      MAX MO Grad      RMS T2    
 ----    ---------------    ----------     -----------      -----------     ---------- 
   1     -77.1004580060     -1.31e-02       1.59e-04         2.80e-03        7.01e-06 
   2     -77.1084920024     -8.03e-03       9.93e-05         1.62e-03        3.66e-06 
   3     -77.1109475625     -2.46e-03       4.98e-05         8.65e-04        2.14e-06 
   4     -77.1122156606     -1.27e-03       3.11e-05         5.49e-04        1.43e-06 
   5     -77.1129062959     -6.91e-04       2.03e-05         3.59e-04        9.84e-07 
   6     -77.1133202700     -4.14e-04       2.62e-05         4.55e-04        7.00e-07 
   7     -77.1135987926     -2.79e-04       1.13e-05         1.97e-04        4.82e-07 
   8     -77.1137822184     -1.83e-04       1.27e-05         2.27e-04        3.44e-07 
   9     -77.1139050395     -1.23e-04       1.79e-05         3.18e-04        2.43e-07 
  10     -77.1139901726     -8.51e-05       2.11e-05         3.82e-04        1.72e-07 
  11     -77.1140481614     -5.80e-05       1.65e-05         3.05e-04        1.24e-07 
  12     -77.1140887309     -4.06e-05       1.26e-05         2.32e-04        8.87e-08 
  13     -77.1141167621     -2.80e-05       5.13e-06         1.22e-04        6.48e-08 
  14     -77.1141380802     -2.13e-05       6.48e-06         1.44e-04        4.52e-08 
  15     -77.1141522806     -1.42e-05       3.09e-06         5.61e-05        3.37e-08 
  16     -77.1141633734     -1.11e-05       3.56e-06         8.87e-05        2.31e-08 
  17     -77.1141709055     -7.53e-06       2.89e-06         5.79e-05        1.70e-08 
  18     -77.1141791205     -8.22e-06       1.73e-05         3.20e-04        1.09e-08 
  19     -77.1141745522      4.57e-06       2.65e-05         4.72e-04        2.49e-08 
  20     -77.1141820315     -7.48e-06       6.60e-07         1.13e-05        9.85e-09 
  21     -77.1141861448     -4.11e-06       5.35e-07         1.07e-05        4.43e-09 
  22     -77.1141868950     -7.50e-07       7.67e-08         1.79e-06        2.80e-09 
  23     -77.1141877932     -8.98e-07       5.32e-08         9.78e-07        2.01e-09 
  24     -77.1141884004     -6.07e-07       2.10e-07         3.90e-06        1.40e-09 
  25     -77.1141888083     -4.08e-07       9.63e-08         2.06e-06        1.03e-09 
  26     -77.1141891020     -2.94e-07       5.45e-08         9.83e-07        7.33e-10 
  27     -77.1141893193     -2.17e-07       8.87e-09         1.63e-07        5.30e-10 

 ============================================================================== 
 ======================== OCEPA ITERATIONS ARE CONVERGED ====================== 
 ============================================================================== 

	Orbitals are optimized now.
	Switching to the standard CEPA computation... 

  
 ============================================================================== 
 ================ Performing CEPA iterations... =============================== 
 ============================================================================== 

  Iter    E_corr           E_total            DE           T2 RMS        
  ----   -------------    ---------------    ----------   ----------    
   1     -0.2914142954    -77.1141894845     -1.65e-07     3.73e-10 
   2     -0.2914147115    -77.1141899006     -4.16e-07     2.65e-10 
   3     -0.2914147077    -77.1141898967      3.85e-09     2.09e-12 

 ============================================================================== 
 ======================== CEPA ITERATIONS ARE CONVERGED ======================= 
 ============================================================================== 

	============================================================================== 
	================ OCEPA FINAL RESULTS ========================================= 
	============================================================================== 
	Nuclear Repulsion Energy (a.u.)    : 24.30148252872495
	SCF Energy (a.u.)                  : -76.82277518905457
	REF Energy (a.u.)                  : -76.81977198418554
	SCS-OCEPA(0) Total Energy (a.u.)   : -77.18624469569113
	SOS-OCEPA(0) Total Energy (a.u.)   : -77.13344778023597
	OCEPA(0) Correlation Energy (a.u.) : -0.29141470766345
	Eocepa - Eref (a.u.)               : -0.29441791253248
	OCEPA(0) Total Energy (a.u.)       : -77.11418989671802
	============================================================================== 


*** tstop() called on bozkaya at Tue Apr  2 11:43:22 2013
Module time:
	user time   =       2.61 seconds =       0.04 minutes
	system time =       0.57 seconds =       0.01 minutes
	total time  =          2 seconds =       0.03 minutes
Total time:
	user time   =       7.57 seconds =       0.13 minutes
	system time =       1.17 seconds =       0.02 minutes
	total time  =          6 seconds =       0.10 minutes

  //>>>>>>>>>>>>>>>>>>>>>>>>>>>>>>>>>>>//
  //    Loading displacement 3 of 12   //
  //<<<<<<<<<<<<<<<<<<<<<<<<<<<<<<<<<<<//

*** tstart() called on bozkaya
*** at Tue Apr  2 11:43:22 2013


         ---------------------------------------------------------
                                   SCF
            by Justin Turney, Rob Parrish, and Andy Simmonett
                              RHF Reference
                        4 Threads,    250 MiB Core
         ---------------------------------------------------------

  ==> Geometry <==

    Molecular point group: d2h
    Full point group: D_inf_h

    Geometry (in Angstrom), charge = 0, multiplicity = 1:

       Center              X                  Y                   Z       
    ------------   -----------------  -----------------  -----------------
           C          0.000000000000     0.000000000000     0.613925250708
           C          0.000000000000     0.000000000000    -0.613925250708
           H          0.000000000000     0.000000000000     1.690561107834
           H          0.000000000000     0.000000000000    -1.690561107834

  Running in d2h symmetry.

  Nuclear repulsion =   24.325405258802697

  Charge       = 0
  Multiplicity = 1
  Electrons    = 14
  Nalpha       = 7
  Nbeta        = 7

  ==> Algorithm <==

  SCF Algorithm Type is PK.
  DIIS enabled.
  MOM disabled.
  Fractional occupation disabled.
  Guess Type is SAD.
  Energy threshold   = 1.00e-10
  Density threshold  = 1.00e-10
  Integral threshold = 0.00e+00

  ==> Primary Basis <==

  Basis Set: CC-PVDZ
    Number of shells: 18
    Number of basis function: 38
    Number of Cartesian functions: 40
    Spherical Harmonics?: true
    Max angular momentum: 2

  ==> Pre-Iterations <==

   -------------------------------------------------------
    Irrep   Nso     Nmo     Nalpha   Nbeta   Ndocc  Nsocc
   -------------------------------------------------------
     Ag        10      10       0       0       0       0
     B1g        1       1       0       0       0       0
     B2g        4       4       0       0       0       0
     B3g        4       4       0       0       0       0
     Au         1       1       0       0       0       0
     B1u       10      10       0       0       0       0
     B2u        4       4       0       0       0       0
     B3u        4       4       0       0       0       0
   -------------------------------------------------------
    Total      38      38       7       7       7       0
   -------------------------------------------------------

  ==> Integral Setup <==

 MINTS: Wrapper to libmints.
   by Justin Turney

   Calculation information:
      Number of atoms:                   4
      Number of AO shells:              18
      Number of SO shells:               9
      Number of primitives:             54
      Number of atomic orbitals:        40
      Number of basis functions:        38

      Number of irreps:                  8
      Number of functions per irrep: [  10    1    4    4    1   10    4    4 ]

      Overlap, kinetic, potential, dipole, and quadrupole integrals
        stored in file 35.

      Computing two-electron integrals...done
      Computed 35573 non-zero two-electron integrals.
        Stored in file 33.

	Batch   1 pq = [       0,     152] index = [             0,11628]
  ==> DiskJK: Disk-Based J/K Matrices <==

    J tasked:                  Yes
    K tasked:                  Yes
    wK tasked:                  No
    Memory (MB):               178
    Schwarz Cutoff:          0E+00

  Minimum eigenvalue in the overlap matrix is 9.7138847037E-04.
  Using Symmetric Orthogonalization.
  SCF Guess: Superposition of Atomic Densities via on-the-fly atomic UHF.

  Guess energy:   -50.60264222051706

  ==> Iterations <==

                        Total Energy        Delta E     RMS |[F,P]|

   @RHF iter   0:   -77.63789141624062   -7.76379e+01   1.43636e-01 
   @RHF iter   1:   -76.79817398576873    8.39717e-01   1.06846e-02 
   @RHF iter   2:   -76.82150686575548   -2.33329e-02   2.31602e-03 DIIS
   @RHF iter   3:   -76.82291017805187   -1.40331e-03   5.91447e-04 DIIS
   @RHF iter   4:   -76.82298917413033   -7.89961e-05   1.19162e-04 DIIS
   @RHF iter   5:   -76.82299293870659   -3.76458e-06   2.11868e-05 DIIS
   @RHF iter   6:   -76.82299308812958   -1.49423e-07   3.73865e-06 DIIS
   @RHF iter   7:   -76.82299309284002   -4.71044e-09   2.67317e-07 DIIS
   @RHF iter   8:   -76.82299309285636   -1.63425e-11   1.43397e-08 DIIS
   @RHF iter   9:   -76.82299309285636    0.00000e+00   1.63337e-09 DIIS
   @RHF iter  10:   -76.82299309285636    0.00000e+00   2.11833e-10 DIIS
   @RHF iter  11:   -76.82299309285636    0.00000e+00   2.65413e-11 DIIS

  ==> Post-Iterations <==

	Orbital Energies (a.u.)
	-----------------------

	Doubly Occupied:                                                      

	   1Ag   -11.256007     1B1u  -11.252847     2Ag    -1.019241  
	   2B1u   -0.761473     3Ag    -0.669849     1B3u   -0.400427  
	   1B2u   -0.400427  

	Virtual:                                                              

	   3B1u    0.188230     1B2g    0.192745     1B3g    0.192745  
	   4Ag     0.221179     4B1u    0.483456     5Ag     0.536184  
	   2B3u    0.665563     2B2u    0.665563     2B2g    0.813497  
	   2B3g    0.813497     5B1u    0.855566     6Ag     0.953534  
	   7Ag     1.094648     3B2u    1.218679     3B3u    1.218679  
	   8Ag     1.255649     1B1g    1.255649     6B1u    1.332879  
	   7B1u    1.430513     3B2g    1.624960     3B3g    1.624960  
	   8B1u    1.670960     1Au     1.670960     4B3u    2.048529  
	   4B2u    2.048529     9Ag     2.148975     9B1u    2.500567  
	   4B2g    2.662405     4B3g    2.662405    10Ag     3.211964  
	  10B1u    3.584883  

	Final Occupation by Irrep:
	         Ag   B1g   B2g   B3g    Au   B1u   B2u   B3u 
	DOCC [     3,    0,    0,    0,    0,    2,    1,    1 ]

  Energy converged.

  @RHF Final Energy:   -76.82299309285636

   => Energetics <=

    Nuclear Repulsion Energy =             24.3254052588026966
    One-Electron Energy =                -150.7762552629684194
    Two-Electron Energy =                  49.6278569113093653
    DFT Exchange-Correlation Energy =       0.0000000000000000
    Empirical Dispersion Energy =           0.0000000000000000
    Total Energy =                        -76.8229930928563505



Properties will be evaluated at   0.000000,   0.000000,   0.000000 Bohr
  ==> Properties <==


Properties computed using the SCF density density matrix
  Nuclear Dipole Moment: (a.u.)
     X:     0.0000      Y:     0.0000      Z:     0.0000

  Electronic Dipole Moment: (a.u.)
     X:     0.0000      Y:     0.0000      Z:     0.0000

  Dipole Moment: (a.u.)
     X:     0.0000      Y:     0.0000      Z:     0.0000     Total:     0.0000

  Dipole Moment: (Debye)
     X:     0.0000      Y:     0.0000      Z:     0.0000     Total:     0.0000


  Saving occupied orbitals to File 180.

*** tstop() called on bozkaya at Tue Apr  2 11:43:23 2013
Module time:
	user time   =       1.21 seconds =       0.02 minutes
	system time =       0.01 seconds =       0.00 minutes
	total time  =          1 seconds =       0.02 minutes
Total time:
	user time   =       8.80 seconds =       0.15 minutes
	system time =       1.18 seconds =       0.02 minutes
	total time  =          7 seconds =       0.12 minutes

*** tstart() called on bozkaya
*** at Tue Apr  2 11:43:23 2013



  Options:
  ----------------------------------------------------------------------------
  BENCH                  => 0                
  CACHELEVEL             => 2                
  CCL_ENERGY             => FALSE            
  CC_DIIS_MAX_VECS       => 6                
  CC_DIIS_MIN_VECS       => 2                
  CC_MAXITER             => 50               
  CEPA_OS_SCALE          => 1.27             
  CEPA_SOS_SCALE         => 1.3              
  CEPA_SS_SCALE          => 1.13             
  CEPA_TYPE              => CEPA0            
  CUTOFF                 => 14               
  DEBUG                  => 0                
  DERTYPE                => NONE             
  DIE_IF_NOT_CONVERGED   => TRUE             
  DOCC                   => [  ]             
  DO_DIIS                => TRUE             
  DO_LEVEL_SHIFT         => FALSE            
  DO_SCS                 => FALSE            
  DO_SOS                 => FALSE            
  E3_SCALE               => 0.25             
  EA_POLES               => FALSE            
  EKT_EA                 => FALSE            
  EKT_IP                 => FALSE            
  EP_EA_POLES            => FALSE            
  EP_IP_POLES            => FALSE            
  EP_MAXITER             => 30               
  E_CONVERGENCE          => 1e-08            
  FREEZE_CORE            => FALSE            
  FROZEN_DOCC            => [  ]             
  FROZEN_UOCC            => [  ]             
  IP_POLES               => FALSE            
  LEVEL_SHIFT            => 0.02             
  LINEQ_SOLVER           => CDGESV           
  MAT_NUM_COLUMN_PRINT   => 5                
  MAX_MOGRAD_CONVERGENCE => 0.001            
  MOGRAD_DAMPING         => 1                
  MO_DIIS_NUM_VECS       => 6                
  MO_MAXITER             => 200             !
  MO_READ                => FALSE            
  MO_STEP_MAX            => 0.5              
  MO_WRITE               => FALSE            
  MP2_OS_SCALE           => 1.2              
  MP2_SOS_SCALE          => 1.3              
  MP2_SOS_SCALE2         => 1.2              
  MP2_SS_SCALE           => 0.333333         
  MP2_TYPE               => DF               
  NAT_ORBS               => FALSE            
  NUM_FROZEN_DOCC        => 0                
  NUM_FROZEN_UOCC        => 0                
  OCC_ORBS_PRINT         => FALSE            
  OPT_METHOD             => ORB_RESP         
  ORB_OPT                => TRUE             
  ORB_RESP_SOLVER        => PCG              
  ORTH_TYPE              => MGS              
  PCG_BETA_TYPE          => FLETCHER_REEVES  
  PCG_CONVERGENCE        => 1e-06            
  PCG_MAXITER            => 30               
  PRINT                  => 1                
  PROPERTIES             => [  ]             
  PROPERTIES_ORIGIN      => [  ]             
  PUREAM                 => TRUE             
  RMS_MOGRAD_CONVERGENCE => 1e-08           !
  R_CONVERGENCE          => 1e-05            
  SCS_TYPE               => SCS              
  SOCC                   => [  ]             
  SOS_TYPE               => SOS              
  TPDM_ABCD_TYPE         => DIRECT           
  UNITS                  => ANGSTROMS        
  WFN                    => SCF              
  WFN_TYPE               => OCEPA           !
  WRITER_FILE_LABEL      => (empty)          


 ============================================================================== 
 ============================================================================== 
 ============================================================================== 

                       OCEPA (OO-CEPA)   
              Program Written by Ugur Bozkaya,
              Latest Revision April 1, 2013.

 ============================================================================== 
 ============================================================================== 
 ============================================================================== 

	MO spaces per irreps... 

	IRREP   FC    OCC   VIR  FV 
	==============================
	  Ag     0     3     7    0
	 B1g     0     0     1    0
	 B2g     0     0     4    0
	 B3g     0     0     4    0
	  Au     0     0     1    0
	 B1u     0     2     8    0
	 B2u     0     1     3    0
	 B3u     0     1     3    0
	==============================

	Computing MP2 energy using SCF MOs (Canonical MP2)... 
	============================================================================== 
	Nuclear Repulsion Energy (a.u.)    : 24.32540525880270
	SCF Energy (a.u.)                  : -76.82299309285636
	REF Energy (a.u.)                  : -76.82299309285634
	Alpha-Alpha Contribution (a.u.)    : -0.03204116598017
	Alpha-Beta Contribution (a.u.)     : -0.20028805757827
	Beta-Beta Contribution (a.u.)      : -0.03204116598017
	Scaled_SS Correlation Energy (a.u.): -0.02136077732011
	Scaled_OS Correlation Energy (a.u.): -0.24034566909392
	SCS-MP2 Total Energy (a.u.)        : -77.08469953927036
	SOS-MP2 Total Energy (a.u.)        : -77.08336756770808
	SCSN-MP2 Total Energy (a.u.)       : -76.93577799710653
	SCS-MI-MP2 Total Energy (a.u.)     : -76.98577452411648
	SCS-MP2-VDW Total Energy (a.u.)    : -77.11140297253668
	SOS-PI-MP2 Total Energy (a.u.)     : -77.10339637346591
	MP2 Correlation Energy (a.u.)      : -0.26437038953860
	MP2 Total Energy (a.u.)            : -77.08736348239493
	============================================================================== 

	Number of independent-pairs:  43

 ============================================================================== 
 ================ Performing OCEPA iterations... ============================== 
 ============================================================================== 
	            Minimizing CEPA-L Functional 
	            --------------------------- 
 Iter       E_total           DE           RMS MO Grad      MAX MO Grad      RMS T2    
 ----    ---------------    ----------     -----------      -----------     ---------- 
   1     -77.1005087225     -1.31e-02       1.59e-04         2.79e-03        7.00e-06 
   2     -77.1085156981     -8.01e-03       9.89e-05         1.61e-03        3.65e-06 
   3     -77.1109652170     -2.45e-03       4.96e-05         8.63e-04        2.13e-06 
   4     -77.1122276842     -1.26e-03       3.10e-05         5.47e-04        1.42e-06 
   5     -77.1129147174     -6.87e-04       2.02e-05         3.58e-04        9.79e-07 
   6     -77.1133261757     -4.11e-04       2.60e-05         4.51e-04        6.95e-07 
   7     -77.1136026994     -2.77e-04       1.12e-05         1.95e-04        4.79e-07 
   8     -77.1137846529     -1.82e-04       1.26e-05         2.25e-04        3.41e-07 
   9     -77.1139064098     -1.22e-04       1.78e-05         3.15e-04        2.41e-07 
  10     -77.1139907305     -8.43e-05       2.09e-05         3.78e-04        1.71e-07 
  11     -77.1140481172     -5.74e-05       1.63e-05         3.01e-04        1.23e-07 
  12     -77.1140882353     -4.01e-05       1.24e-05         2.29e-04        8.78e-08 
  13     -77.1141159231     -2.77e-05       4.95e-06         1.18e-04        6.41e-08 
  14     -77.1141369718     -2.10e-05       6.25e-06         1.40e-04        4.47e-08 
  15     -77.1141510166     -1.40e-05       3.02e-06         5.49e-05        3.33e-08 
  16     -77.1141619607     -1.09e-05       3.51e-06         8.76e-05        2.27e-08 
  17     -77.1141693457     -7.38e-06       2.79e-06         5.44e-05        1.68e-08 
  18     -77.1141768647     -7.52e-06       1.35e-05         2.51e-04        1.04e-08 
  19     -77.1141741026      2.76e-06       2.11e-05         3.77e-04        2.09e-08 
  20     -77.1141805308     -6.43e-06       6.10e-07         8.67e-06        8.32e-09 
  21     -77.1141841456     -3.61e-06       3.48e-07         6.88e-06        4.30e-09 
  22     -77.1141849969     -8.51e-07       4.63e-08         8.65e-07        2.79e-09 
  23     -77.1141858809     -8.84e-07       6.11e-08         1.09e-06        2.01e-09 
  24     -77.1141865097     -6.29e-07       2.83e-07         5.29e-06        1.39e-09 
  25     -77.1141868689     -3.59e-07       1.59e-07         2.84e-06        1.10e-09 
  26     -77.1141872333     -3.64e-07       2.03e-07         3.69e-06        6.83e-10 
  27     -77.1141874461     -2.13e-07       2.87e-08         5.21e-07        5.42e-10 
  28     -77.1141875894     -1.43e-07       4.03e-09         6.68e-08        3.79e-10 

 ============================================================================== 
 ======================== OCEPA ITERATIONS ARE CONVERGED ====================== 
 ============================================================================== 

	Orbitals are optimized now.
	Switching to the standard CEPA computation... 

  
 ============================================================================== 
 ================ Performing CEPA iterations... =============================== 
 ============================================================================== 

  Iter    E_corr           E_total            DE           T2 RMS        
  ----   -------------    ---------------    ----------   ----------    
   1     -0.2911946193    -77.1141877122     -1.23e-07     2.67e-10 
   2     -0.2911949184    -77.1141880112     -2.99e-07     1.90e-10 
   3     -0.2911949165    -77.1141880094      1.86e-09     2.02e-12 

 ============================================================================== 
 ======================== CEPA ITERATIONS ARE CONVERGED ======================= 
 ============================================================================== 

	============================================================================== 
	================ OCEPA FINAL RESULTS ========================================= 
	============================================================================== 
	Nuclear Repulsion Energy (a.u.)    : 24.32540525880270
	SCF Energy (a.u.)                  : -76.82299309285636
	REF Energy (a.u.)                  : -76.82000183108127
	SCS-OCEPA(0) Total Energy (a.u.)   : -77.18617893165553
	SOS-OCEPA(0) Total Energy (a.u.)   : -77.13336422282549
	OCEPA(0) Correlation Energy (a.u.) : -0.29119491651106
	Eocepa - Eref (a.u.)               : -0.29418617828615
	OCEPA(0) Total Energy (a.u.)       : -77.11418800936742
	============================================================================== 


*** tstop() called on bozkaya at Tue Apr  2 11:43:25 2013
Module time:
	user time   =       2.71 seconds =       0.05 minutes
	system time =       0.64 seconds =       0.01 minutes
	total time  =          2 seconds =       0.03 minutes
Total time:
	user time   =      11.51 seconds =       0.19 minutes
	system time =       1.82 seconds =       0.03 minutes
	total time  =          9 seconds =       0.15 minutes

  //>>>>>>>>>>>>>>>>>>>>>>>>>>>>>>>>>>>//
  //    Loading displacement 4 of 12   //
  //<<<<<<<<<<<<<<<<<<<<<<<<<<<<<<<<<<<//

*** tstart() called on bozkaya
*** at Tue Apr  2 11:43:25 2013


         ---------------------------------------------------------
                                   SCF
            by Justin Turney, Rob Parrish, and Andy Simmonett
                              RHF Reference
                        4 Threads,    250 MiB Core
         ---------------------------------------------------------

  ==> Geometry <==

    Molecular point group: d2h
    Full point group: D_inf_h

    Geometry (in Angstrom), charge = 0, multiplicity = 1:

       Center              X                  Y                   Z       
    ------------   -----------------  -----------------  -----------------
           C          0.000000000000     0.000000000000     0.613925250708
           C          0.000000000000     0.000000000000    -0.613925250708
           H          0.000000000000     0.000000000000     1.694288401084
           H          0.000000000000     0.000000000000    -1.694288401084

  Running in d2h symmetry.

  Nuclear repulsion =   24.300262570586259

  Charge       = 0
  Multiplicity = 1
  Electrons    = 14
  Nalpha       = 7
  Nbeta        = 7

  ==> Algorithm <==

  SCF Algorithm Type is PK.
  DIIS enabled.
  MOM disabled.
  Fractional occupation disabled.
  Guess Type is SAD.
  Energy threshold   = 1.00e-10
  Density threshold  = 1.00e-10
  Integral threshold = 0.00e+00

  ==> Primary Basis <==

  Basis Set: CC-PVDZ
    Number of shells: 18
    Number of basis function: 38
    Number of Cartesian functions: 40
    Spherical Harmonics?: true
    Max angular momentum: 2

  ==> Pre-Iterations <==

   -------------------------------------------------------
    Irrep   Nso     Nmo     Nalpha   Nbeta   Ndocc  Nsocc
   -------------------------------------------------------
     Ag        10      10       0       0       0       0
     B1g        1       1       0       0       0       0
     B2g        4       4       0       0       0       0
     B3g        4       4       0       0       0       0
     Au         1       1       0       0       0       0
     B1u       10      10       0       0       0       0
     B2u        4       4       0       0       0       0
     B3u        4       4       0       0       0       0
   -------------------------------------------------------
    Total      38      38       7       7       7       0
   -------------------------------------------------------

  ==> Integral Setup <==

 MINTS: Wrapper to libmints.
   by Justin Turney

   Calculation information:
      Number of atoms:                   4
      Number of AO shells:              18
      Number of SO shells:               9
      Number of primitives:             54
      Number of atomic orbitals:        40
      Number of basis functions:        38

      Number of irreps:                  8
      Number of functions per irrep: [  10    1    4    4    1   10    4    4 ]

      Overlap, kinetic, potential, dipole, and quadrupole integrals
        stored in file 35.

      Computing two-electron integrals...done
      Computed 35573 non-zero two-electron integrals.
        Stored in file 33.

	Batch   1 pq = [       0,     152] index = [             0,11628]
  ==> DiskJK: Disk-Based J/K Matrices <==

    J tasked:                  Yes
    K tasked:                  Yes
    wK tasked:                  No
    Memory (MB):               178
    Schwarz Cutoff:          0E+00

  Minimum eigenvalue in the overlap matrix is 9.7337174913E-04.
  Using Symmetric Orthogonalization.
  SCF Guess: Superposition of Atomic Densities via on-the-fly atomic UHF.

  Guess energy:   -50.60647061439573

  ==> Iterations <==

                        Total Energy        Delta E     RMS |[F,P]|

   @RHF iter   0:   -77.63244525475207   -7.76324e+01   1.43338e-01 
   @RHF iter   1:   -76.79794259508371    8.34503e-01   1.06892e-02 
   @RHF iter   2:   -76.82133623086357   -2.33936e-02   2.32025e-03 DIIS
   @RHF iter   3:   -76.82274640004761   -1.41017e-03   5.96044e-04 DIIS
   @RHF iter   4:   -76.82282644730866   -8.00473e-05   1.19767e-04 DIIS
   @RHF iter   5:   -76.82283026208013   -3.81477e-06   2.12271e-05 DIIS
   @RHF iter   6:   -76.82283041213302   -1.50053e-07   3.75056e-06 DIIS
   @RHF iter   7:   -76.82283041687749   -4.74448e-09   2.68438e-07 DIIS
   @RHF iter   8:   -76.82283041689389   -1.63993e-11   1.43855e-08 DIIS
   @RHF iter   9:   -76.82283041689398   -8.52651e-14   1.66078e-09 DIIS
   @RHF iter  10:   -76.82283041689399   -1.42109e-14   2.24904e-10 DIIS
   @RHF iter  11:   -76.82283041689396    2.84217e-14   2.79544e-11 DIIS

  ==> Post-Iterations <==

	Orbital Energies (a.u.)
	-----------------------

	Doubly Occupied:                                                      

	   1Ag   -11.256267     1B1u  -11.253108     2Ag    -1.019009  
	   2B1u   -0.759983     3Ag    -0.668589     1B3u   -0.400364  
	   1B2u   -0.400364  

	Virtual:                                                              

	   3B1u    0.187649     1B2g    0.192859     1B3g    0.192859  
	   4Ag     0.220892     4B1u    0.482770     5Ag     0.535528  
	   2B3u    0.665595     2B2u    0.665595     2B2g    0.813525  
	   2B3g    0.813525     5B1u    0.855254     6Ag     0.952165  
	   7Ag     1.093050     3B2u    1.218562     3B3u    1.218562  
	   8Ag     1.255726     1B1g    1.255726     6B1u    1.330778  
	   7B1u    1.431210     3B2g    1.623321     3B3g    1.623321  
	   8B1u    1.671062     1Au     1.671062     4B3u    2.045086  
	   4B2u    2.045086     9Ag     2.144891     9B1u    2.493345  
	   4B2g    2.658169     4B3g    2.658169    10Ag     3.202770  
	  10B1u    3.577955  

	Final Occupation by Irrep:
	         Ag   B1g   B2g   B3g    Au   B1u   B2u   B3u 
	DOCC [     3,    0,    0,    0,    0,    2,    1,    1 ]

  Energy converged.

  @RHF Final Energy:   -76.82283041689396

   => Energetics <=

    Nuclear Repulsion Energy =             24.3002625705862592
    One-Electron Energy =                -150.7308193469907565
    Two-Electron Energy =                  49.6077263595105507
    DFT Exchange-Correlation Energy =       0.0000000000000000
    Empirical Dispersion Energy =           0.0000000000000000
    Total Energy =                        -76.8228304168939502



Properties will be evaluated at   0.000000,   0.000000,   0.000000 Bohr
  ==> Properties <==


Properties computed using the SCF density density matrix
  Nuclear Dipole Moment: (a.u.)
     X:     0.0000      Y:     0.0000      Z:     0.0000

  Electronic Dipole Moment: (a.u.)
     X:     0.0000      Y:     0.0000      Z:     0.0000

  Dipole Moment: (a.u.)
     X:     0.0000      Y:     0.0000      Z:     0.0000     Total:     0.0000

  Dipole Moment: (Debye)
     X:     0.0000      Y:     0.0000      Z:     0.0000     Total:     0.0000


  Saving occupied orbitals to File 180.

*** tstop() called on bozkaya at Tue Apr  2 11:43:26 2013
Module time:
	user time   =       1.20 seconds =       0.02 minutes
	system time =       0.01 seconds =       0.00 minutes
	total time  =          1 seconds =       0.02 minutes
Total time:
	user time   =      12.73 seconds =       0.21 minutes
	system time =       1.83 seconds =       0.03 minutes
	total time  =         10 seconds =       0.17 minutes

*** tstart() called on bozkaya
*** at Tue Apr  2 11:43:26 2013



  Options:
  ----------------------------------------------------------------------------
  BENCH                  => 0                
  CACHELEVEL             => 2                
  CCL_ENERGY             => FALSE            
  CC_DIIS_MAX_VECS       => 6                
  CC_DIIS_MIN_VECS       => 2                
  CC_MAXITER             => 50               
  CEPA_OS_SCALE          => 1.27             
  CEPA_SOS_SCALE         => 1.3              
  CEPA_SS_SCALE          => 1.13             
  CEPA_TYPE              => CEPA0            
  CUTOFF                 => 14               
  DEBUG                  => 0                
  DERTYPE                => NONE             
  DIE_IF_NOT_CONVERGED   => TRUE             
  DOCC                   => [  ]             
  DO_DIIS                => TRUE             
  DO_LEVEL_SHIFT         => FALSE            
  DO_SCS                 => FALSE            
  DO_SOS                 => FALSE            
  E3_SCALE               => 0.25             
  EA_POLES               => FALSE            
  EKT_EA                 => FALSE            
  EKT_IP                 => FALSE            
  EP_EA_POLES            => FALSE            
  EP_IP_POLES            => FALSE            
  EP_MAXITER             => 30               
  E_CONVERGENCE          => 1e-08            
  FREEZE_CORE            => FALSE            
  FROZEN_DOCC            => [  ]             
  FROZEN_UOCC            => [  ]             
  IP_POLES               => FALSE            
  LEVEL_SHIFT            => 0.02             
  LINEQ_SOLVER           => CDGESV           
  MAT_NUM_COLUMN_PRINT   => 5                
  MAX_MOGRAD_CONVERGENCE => 0.001            
  MOGRAD_DAMPING         => 1                
  MO_DIIS_NUM_VECS       => 6                
  MO_MAXITER             => 200             !
  MO_READ                => FALSE            
  MO_STEP_MAX            => 0.5              
  MO_WRITE               => FALSE            
  MP2_OS_SCALE           => 1.2              
  MP2_SOS_SCALE          => 1.3              
  MP2_SOS_SCALE2         => 1.2              
  MP2_SS_SCALE           => 0.333333         
  MP2_TYPE               => DF               
  NAT_ORBS               => FALSE            
  NUM_FROZEN_DOCC        => 0                
  NUM_FROZEN_UOCC        => 0                
  OCC_ORBS_PRINT         => FALSE            
  OPT_METHOD             => ORB_RESP         
  ORB_OPT                => TRUE             
  ORB_RESP_SOLVER        => PCG              
  ORTH_TYPE              => MGS              
  PCG_BETA_TYPE          => FLETCHER_REEVES  
  PCG_CONVERGENCE        => 1e-06            
  PCG_MAXITER            => 30               
  PRINT                  => 1                
  PROPERTIES             => [  ]             
  PROPERTIES_ORIGIN      => [  ]             
  PUREAM                 => TRUE             
  RMS_MOGRAD_CONVERGENCE => 1e-08           !
  R_CONVERGENCE          => 1e-05            
  SCS_TYPE               => SCS              
  SOCC                   => [  ]             
  SOS_TYPE               => SOS              
  TPDM_ABCD_TYPE         => DIRECT           
  UNITS                  => ANGSTROMS        
  WFN                    => SCF              
  WFN_TYPE               => OCEPA           !
  WRITER_FILE_LABEL      => (empty)          


 ============================================================================== 
 ============================================================================== 
 ============================================================================== 

                       OCEPA (OO-CEPA)   
              Program Written by Ugur Bozkaya,
              Latest Revision April 1, 2013.

 ============================================================================== 
 ============================================================================== 
 ============================================================================== 

	MO spaces per irreps... 

	IRREP   FC    OCC   VIR  FV 
	==============================
	  Ag     0     3     7    0
	 B1g     0     0     1    0
	 B2g     0     0     4    0
	 B3g     0     0     4    0
	  Au     0     0     1    0
	 B1u     0     2     8    0
	 B2u     0     1     3    0
	 B3u     0     1     3    0
	==============================

	Computing MP2 energy using SCF MOs (Canonical MP2)... 
	============================================================================== 
	Nuclear Repulsion Energy (a.u.)    : 24.30026257058626
	SCF Energy (a.u.)                  : -76.82283041689396
	REF Energy (a.u.)                  : -76.82283041689396
	Alpha-Alpha Contribution (a.u.)    : -0.03204771706641
	Alpha-Beta Contribution (a.u.)     : -0.20039703900661
	Beta-Beta Contribution (a.u.)      : -0.03204771706641
	Scaled_SS Correlation Energy (a.u.): -0.02136514471094
	Scaled_OS Correlation Energy (a.u.): -0.24047644680793
	SCS-MP2 Total Energy (a.u.)        : -77.08467200841282
	SOS-MP2 Total Energy (a.u.)        : -77.08334656760256
	SCSN-MP2 Total Energy (a.u.)       : -76.93563838096773
	SCS-MI-MP2 Total Energy (a.u.)     : -76.98567234252793
	SCS-MP2-VDW Total Energy (a.u.)    : -77.11138634388882
	SOS-PI-MP2 Total Energy (a.u.)     : -77.10338627150321
	MP2 Correlation Energy (a.u.)      : -0.26449247313943
	MP2 Total Energy (a.u.)            : -77.08732289003339
	============================================================================== 

	Number of independent-pairs:  43

 ============================================================================== 
 ================ Performing OCEPA iterations... ============================== 
 ============================================================================== 
	            Minimizing CEPA-L Functional 
	            --------------------------- 
 Iter       E_total           DE           RMS MO Grad      MAX MO Grad      RMS T2    
 ----    ---------------    ----------     -----------      -----------     ---------- 
   1     -77.1004682969     -1.31e-02       1.59e-04         2.79e-03        7.02e-06 
   2     -77.1084957049     -8.03e-03       9.93e-05         1.62e-03        3.66e-06 
   3     -77.1109534086     -2.46e-03       4.98e-05         8.65e-04        2.13e-06 
   4     -77.1122208925     -1.27e-03       3.11e-05         5.48e-04        1.42e-06 
   5     -77.1129106642     -6.90e-04       2.02e-05         3.59e-04        9.80e-07 
   6     -77.1133236588     -4.13e-04       2.61e-05         4.52e-04        6.96e-07 
   7     -77.1136012160     -2.78e-04       1.13e-05         1.95e-04        4.79e-07 
   8     -77.1137837662     -1.83e-04       1.27e-05         2.26e-04        3.41e-07 
   9     -77.1139058971     -1.22e-04       1.78e-05         3.15e-04        2.41e-07 
  10     -77.1139904611     -8.46e-05       2.10e-05         3.79e-04        1.71e-07 
  11     -77.1140480054     -5.75e-05       1.64e-05         3.03e-04        1.23e-07 
  12     -77.1140882264     -4.02e-05       1.25e-05         2.30e-04        8.78e-08 
  13     -77.1141159144     -2.77e-05       4.74e-06         1.14e-04        6.42e-08 
  14     -77.1141370929     -2.12e-05       6.37e-06         1.42e-04        4.46e-08 
  15     -77.1141511477     -1.41e-05       3.07e-06         5.41e-05        3.33e-08 
  16     -77.1141621326     -1.10e-05       3.56e-06         8.87e-05        2.27e-08 
  17     -77.1141695361     -7.40e-06       2.89e-06         5.66e-05        1.68e-08 
  18     -77.1141778406     -8.30e-06       1.83e-05         3.36e-04        1.09e-08 
  19     -77.1141725416      5.30e-06       2.88e-05         5.04e-04        2.63e-08 
  20     -77.1141805515     -8.01e-06       7.69e-07         1.47e-05        1.07e-08 
  21     -77.1141847449     -4.19e-06       2.48e-07         4.49e-06        4.35e-09 
  22     -77.1141853481     -6.03e-07       8.72e-08         1.40e-06        2.72e-09 
  23     -77.1141861803     -8.32e-07       6.48e-08         1.00e-06        1.98e-09 
  24     -77.1141867692     -5.89e-07       2.17e-07         4.47e-06        1.37e-09 
  25     -77.1141872198     -4.51e-07       3.96e-07         7.07e-06        9.48e-10 
  26     -77.1141873930     -1.73e-07       2.76e-07         4.76e-06        8.58e-10 
  27     -77.1141876519     -2.59e-07       1.60e-08         3.01e-07        4.90e-10 
  28     -77.1141878382     -1.86e-07       4.47e-09         8.09e-08        3.66e-10 

 ============================================================================== 
 ======================== OCEPA ITERATIONS ARE CONVERGED ====================== 
 ============================================================================== 

	Orbitals are optimized now.
	Switching to the standard CEPA computation... 

  
 ============================================================================== 
 ================ Performing CEPA iterations... =============================== 
 ============================================================================== 

  Iter    E_corr           E_total            DE           T2 RMS        
  ----   -------------    ---------------    ----------   ----------    
   1     -0.2913575304    -77.1141879473     -1.09e-07     2.57e-10 
   2     -0.2913578164    -77.1141882333     -2.86e-07     1.83e-10 
   3     -0.2913578135    -77.1141882304      2.93e-09     1.29e-12 

 ============================================================================== 
 ======================== CEPA ITERATIONS ARE CONVERGED ======================= 
 ============================================================================== 

	============================================================================== 
	================ OCEPA FINAL RESULTS ========================================= 
	============================================================================== 
	Nuclear Repulsion Energy (a.u.)    : 24.30026257058626
	SCF Energy (a.u.)                  : -76.82283041689396
	REF Energy (a.u.)                  : -76.81983568584479
	SCS-OCEPA(0) Total Energy (a.u.)   : -77.18622572104815
	SOS-OCEPA(0) Total Energy (a.u.)   : -77.13342967067281
	OCEPA(0) Correlation Energy (a.u.) : -0.29135781346304
	Eocepa - Eref (a.u.)               : -0.29435254451221
	OCEPA(0) Total Energy (a.u.)       : -77.11418823035700
	============================================================================== 


*** tstop() called on bozkaya at Tue Apr  2 11:43:28 2013
Module time:
	user time   =       2.67 seconds =       0.04 minutes
	system time =       0.62 seconds =       0.01 minutes
	total time  =          2 seconds =       0.03 minutes
Total time:
	user time   =      15.41 seconds =       0.26 minutes
	system time =       2.45 seconds =       0.04 minutes
	total time  =         12 seconds =       0.20 minutes

  //>>>>>>>>>>>>>>>>>>>>>>>>>>>>>>>>>>>//
  //    Loading displacement 5 of 12   //
  //<<<<<<<<<<<<<<<<<<<<<<<<<<<<<<<<<<<//

*** tstart() called on bozkaya
*** at Tue Apr  2 11:43:28 2013


         ---------------------------------------------------------
                                   SCF
            by Justin Turney, Rob Parrish, and Andy Simmonett
                              RHF Reference
                        4 Threads,    250 MiB Core
         ---------------------------------------------------------

  ==> Geometry <==

    Molecular point group: d2h
    Full point group: D_inf_h

    Geometry (in Angstrom), charge = 0, multiplicity = 1:

       Center              X                  Y                   Z       
    ------------   -----------------  -----------------  -----------------
           C          0.000000000000     0.000000000000     0.614465339935
           C          0.000000000000     0.000000000000    -0.614465339935
           H          0.000000000000     0.000000000000     1.694288401084
           H          0.000000000000     0.000000000000    -1.694288401084

  Running in d2h symmetry.

  Nuclear repulsion =   24.288921622169564

  Charge       = 0
  Multiplicity = 1
  Electrons    = 14
  Nalpha       = 7
  Nbeta        = 7

  ==> Algorithm <==

  SCF Algorithm Type is PK.
  DIIS enabled.
  MOM disabled.
  Fractional occupation disabled.
  Guess Type is SAD.
  Energy threshold   = 1.00e-10
  Density threshold  = 1.00e-10
  Integral threshold = 0.00e+00

  ==> Primary Basis <==

  Basis Set: CC-PVDZ
    Number of shells: 18
    Number of basis function: 38
    Number of Cartesian functions: 40
    Spherical Harmonics?: true
    Max angular momentum: 2

  ==> Pre-Iterations <==

   -------------------------------------------------------
    Irrep   Nso     Nmo     Nalpha   Nbeta   Ndocc  Nsocc
   -------------------------------------------------------
     Ag        10      10       0       0       0       0
     B1g        1       1       0       0       0       0
     B2g        4       4       0       0       0       0
     B3g        4       4       0       0       0       0
     Au         1       1       0       0       0       0
     B1u       10      10       0       0       0       0
     B2u        4       4       0       0       0       0
     B3u        4       4       0       0       0       0
   -------------------------------------------------------
    Total      38      38       7       7       7       0
   -------------------------------------------------------

  ==> Integral Setup <==

 MINTS: Wrapper to libmints.
   by Justin Turney

   Calculation information:
      Number of atoms:                   4
      Number of AO shells:              18
      Number of SO shells:               9
      Number of primitives:             54
      Number of atomic orbitals:        40
      Number of basis functions:        38

      Number of irreps:                  8
      Number of functions per irrep: [  10    1    4    4    1   10    4    4 ]

      Overlap, kinetic, potential, dipole, and quadrupole integrals
        stored in file 35.

      Computing two-electron integrals...done
      Computed 35573 non-zero two-electron integrals.
        Stored in file 33.

	Batch   1 pq = [       0,     152] index = [             0,11628]
  ==> DiskJK: Disk-Based J/K Matrices <==

    J tasked:                  Yes
    K tasked:                  Yes
    wK tasked:                  No
    Memory (MB):               178
    Schwarz Cutoff:          0E+00

  Minimum eigenvalue in the overlap matrix is 9.7817035581E-04.
  Using Symmetric Orthogonalization.
  SCF Guess: Superposition of Atomic Densities via on-the-fly atomic UHF.

  Guess energy:   -50.60719756724480

  ==> Iterations <==

                        Total Energy        Delta E     RMS |[F,P]|

   @RHF iter   0:   -77.63046043284518   -7.76305e+01   1.43148e-01 
   @RHF iter   1:   -76.79782166815748    8.32639e-01   1.06793e-02 
   @RHF iter   2:   -76.82119899673263   -2.33773e-02   2.31806e-03 DIIS
   @RHF iter   3:   -76.82260853320416   -1.40954e-03   5.92291e-04 DIIS
[...]

                        Total Energy        Delta E     RMS |[F,P]|

   @RHF iter   0:   -77.63516787505480   -7.76352e+01   1.43487e-01 
   @RHF iter   1:   -76.79806356373618    8.37104e-01   1.06869e-02 
   @RHF iter   2:   -76.82142672846480   -2.33632e-02   2.31812e-03 DIIS
   @RHF iter   3:   -76.82283345086881   -1.40672e-03   5.93736e-04 DIIS
   @RHF iter   4:   -76.82291296909059   -7.95182e-05   1.19465e-04 DIIS
   @RHF iter   5:   -76.82291675869601   -3.78961e-06   2.12070e-05 DIIS
   @RHF iter   6:   -76.82291690843481   -1.49739e-07   3.74459e-06 DIIS
   @RHF iter   7:   -76.82291691316226   -4.72745e-09   2.67867e-07 DIIS
   @RHF iter   8:   -76.82291691317863   -1.63709e-11   1.43600e-08 DIIS
   @RHF iter   9:   -76.82291691317867   -4.26326e-14   1.64606e-09 DIIS
   @RHF iter  10:   -76.82291691317863    4.26326e-14   2.18240e-10 DIIS
   @RHF iter  11:   -76.82291691317867   -4.26326e-14   2.72890e-11 DIIS

  ==> Post-Iterations <==

	Orbital Energies (a.u.)
	-----------------------

	Doubly Occupied:                                                      

	   1Ag   -11.256137     1B1u  -11.252978     2Ag    -1.019125  
	   2B1u   -0.760727     3Ag    -0.669219     1B3u   -0.400395  
	   1B2u   -0.400395  

	Virtual:                                                              

	   3B1u    0.187941     1B2g    0.192802     1B3g    0.192802  
	   4Ag     0.221037     4B1u    0.483113     5Ag     0.535855  
	   2B3u    0.665579     2B2u    0.665579     2B2g    0.813511  
	   2B3g    0.813511     5B1u    0.855410     6Ag     0.952851  
	   7Ag     1.093845     3B2u    1.218619     3B3u    1.218619  
	   8Ag     1.255688     1B1g    1.255688     6B1u    1.331843  
	   7B1u    1.430846     3B2g    1.624139     3B3g    1.624139  
	   8B1u    1.671011     1Au     1.671011     4B3u    2.046806  
	   4B2u    2.046806     9Ag     2.146932     9B1u    2.496952  
	   4B2g    2.660285     4B3g    2.660285    10Ag     3.207347  
	  10B1u    3.581396  

	Final Occupation by Irrep:
	         Ag   B1g   B2g   B3g    Au   B1u   B2u   B3u 
	DOCC [     3,    0,    0,    0,    0,    2,    1,    1 ]

  Energy converged.

  @RHF Final Energy:   -76.82291691317867

   => Energetics <=

    Nuclear Repulsion Energy =             24.3128143460549531
    One-Electron Energy =                -150.7535111826626348
    Two-Electron Energy =                  49.6177799234290262
    DFT Exchange-Correlation Energy =       0.0000000000000000
    Empirical Dispersion Energy =           0.0000000000000000
    Total Energy =                        -76.8229169131786591



Properties will be evaluated at   0.000000,   0.000000,   0.000000 Bohr
  ==> Properties <==


Properties computed using the SCF density density matrix
  Nuclear Dipole Moment: (a.u.)
     X:     0.0000      Y:     0.0000      Z:     0.0000

  Electronic Dipole Moment: (a.u.)
     X:     0.0000      Y:     0.0000      Z:     0.0000

  Dipole Moment: (a.u.)
     X:     0.0000      Y:     0.0000      Z:     0.0000     Total:     0.0000

  Dipole Moment: (Debye)
     X:     0.0000      Y:     0.0000      Z:     0.0000     Total:     0.0000


  Saving occupied orbitals to File 180.

*** tstop() called on bozkaya at Tue Apr  2 11:43:54 2013
Module time:
	user time   =       1.23 seconds =       0.02 minutes
	system time =       0.01 seconds =       0.00 minutes
	total time  =          1 seconds =       0.02 minutes
Total time:
	user time   =      51.91 seconds =       0.87 minutes
	system time =       8.32 seconds =       0.14 minutes
	total time  =         38 seconds =       0.63 minutes

*** tstart() called on bozkaya
*** at Tue Apr  2 11:43:54 2013



  Options:
  ----------------------------------------------------------------------------
  BENCH                  => 0                
  CACHELEVEL             => 2                
  CCL_ENERGY             => FALSE            
  CC_DIIS_MAX_VECS       => 6                
  CC_DIIS_MIN_VECS       => 2                
  CC_MAXITER             => 50               
  CEPA_OS_SCALE          => 1.27             
  CEPA_SOS_SCALE         => 1.3              
  CEPA_SS_SCALE          => 1.13             
  CEPA_TYPE              => CEPA0            
  CUTOFF                 => 14               
  DEBUG                  => 0                
  DERTYPE                => NONE             
  DIE_IF_NOT_CONVERGED   => TRUE             
  DOCC                   => [  ]             
  DO_DIIS                => TRUE             
  DO_LEVEL_SHIFT         => FALSE            
  DO_SCS                 => FALSE            
  DO_SOS                 => FALSE            
  E3_SCALE               => 0.25             
  EA_POLES               => FALSE            
  EKT_EA                 => FALSE            
  EKT_IP                 => FALSE            
  EP_EA_POLES            => FALSE            
  EP_IP_POLES            => FALSE            
  EP_MAXITER             => 30               
  E_CONVERGENCE          => 1e-08            
  FREEZE_CORE            => FALSE            
  FROZEN_DOCC            => [  ]             
  FROZEN_UOCC            => [  ]             
  IP_POLES               => FALSE            
  LEVEL_SHIFT            => 0.02             
  LINEQ_SOLVER           => CDGESV           
  MAT_NUM_COLUMN_PRINT   => 5                
  MAX_MOGRAD_CONVERGENCE => 0.001            
  MOGRAD_DAMPING         => 1                
  MO_DIIS_NUM_VECS       => 6                
  MO_MAXITER             => 200             !
  MO_READ                => FALSE            
  MO_STEP_MAX            => 0.5              
  MO_WRITE               => FALSE            
  MP2_OS_SCALE           => 1.2              
  MP2_SOS_SCALE          => 1.3              
  MP2_SOS_SCALE2         => 1.2              
  MP2_SS_SCALE           => 0.333333         
  MP2_TYPE               => DF               
  NAT_ORBS               => FALSE            
  NUM_FROZEN_DOCC        => 0                
  NUM_FROZEN_UOCC        => 0                
  OCC_ORBS_PRINT         => FALSE            
  OPT_METHOD             => ORB_RESP         
  ORB_OPT                => TRUE             
  ORB_RESP_SOLVER        => PCG              
  ORTH_TYPE              => MGS              
  PCG_BETA_TYPE          => FLETCHER_REEVES  
  PCG_CONVERGENCE        => 1e-06            
  PCG_MAXITER            => 30               
  PRINT                  => 1                
  PROPERTIES             => [  ]             
  PROPERTIES_ORIGIN      => [  ]             
  PUREAM                 => TRUE             
  RMS_MOGRAD_CONVERGENCE => 1e-08           !
  R_CONVERGENCE          => 1e-05            
  SCS_TYPE               => SCS              
  SOCC                   => [  ]             
  SOS_TYPE               => SOS              
  TPDM_ABCD_TYPE         => DIRECT           
  UNITS                  => ANGSTROMS        
  WFN                    => SCF              
  WFN_TYPE               => OCEPA           !
  WRITER_FILE_LABEL      => (empty)          


 ============================================================================== 
 ============================================================================== 
 ============================================================================== 

                       OCEPA (OO-CEPA)   
              Program Written by Ugur Bozkaya,
              Latest Revision April 1, 2013.

 ============================================================================== 
 ============================================================================== 
 ============================================================================== 

	MO spaces per irreps... 

	IRREP   FC    OCC   VIR  FV 
	==============================
	  Ag     0     3     7    0
	 B1g     0     0     1    0
	 B2g     0     0     4    0
	 B3g     0     0     4    0
	  Au     0     0     1    0
	 B1u     0     2     8    0
	 B2u     0     1     3    0
	 B3u     0     1     3    0
	==============================

	Computing MP2 energy using SCF MOs (Canonical MP2)... 
	============================================================================== 
	Nuclear Repulsion Energy (a.u.)    : 24.31281434605495
	SCF Energy (a.u.)                  : -76.82291691317867
	REF Energy (a.u.)                  : -76.82291691317862
	Alpha-Alpha Contribution (a.u.)    : -0.03204443639771
	Alpha-Beta Contribution (a.u.)     : -0.20034252071483
	Beta-Beta Contribution (a.u.)      : -0.03204443639771
	Scaled_SS Correlation Energy (a.u.): -0.02136295759847
	Scaled_OS Correlation Energy (a.u.): -0.24041102485780
	SCS-MP2 Total Energy (a.u.)        : -77.08469089563489
	SOS-MP2 Total Energy (a.u.)        : -77.08336219010789
	SCSN-MP2 Total Energy (a.u.)       : -76.93571332929857
	SCS-MI-MP2 Total Energy (a.u.)     : -76.98572856737066
	SCS-MP2-VDW Total Energy (a.u.)    : -77.11139977609130
	SOS-PI-MP2 Total Energy (a.u.)     : -77.10339644217937
	MP2 Correlation Energy (a.u.)      : -0.26443139351025
	MP2 Total Energy (a.u.)            : -77.08734830668887
	============================================================================== 

	Number of independent-pairs:  43

 ============================================================================== 
 ================ Performing OCEPA iterations... ============================== 
 ============================================================================== 
	            Minimizing CEPA-L Functional 
	            --------------------------- 
 Iter       E_total           DE           RMS MO Grad      MAX MO Grad      RMS T2    
 ----    ---------------    ----------     -----------      -----------     ---------- 
   1     -77.1004936396     -1.31e-02       1.59e-04         2.79e-03        7.01e-06 
   2     -77.1085108102     -8.02e-03       9.91e-05         1.61e-03        3.65e-06 
   3     -77.1109644115     -2.45e-03       4.97e-05         8.64e-04        2.13e-06 
   4     -77.1122293791     -1.26e-03       3.10e-05         5.48e-04        1.42e-06 
   5     -77.1129177765     -6.88e-04       2.02e-05         3.58e-04        9.79e-07 
   6     -77.1133299997     -4.12e-04       2.60e-05         4.52e-04        6.96e-07 
   7     -77.1136070378     -2.77e-04       1.12e-05         1.95e-04        4.79e-07 
   8     -77.1137892881     -1.82e-04       1.26e-05         2.26e-04        3.41e-07 
   9     -77.1139112310     -1.22e-04       1.78e-05         3.15e-04        2.41e-07 
  10     -77.1139956727     -8.44e-05       2.10e-05         3.78e-04        1.71e-07 
  11     -77.1140531377     -5.75e-05       1.63e-05         3.02e-04        1.23e-07 
  12     -77.1140933070     -4.02e-05       1.25e-05         2.29e-04        8.78e-08 
  13     -77.1141209956     -2.77e-05       4.85e-06         1.16e-04        6.41e-08 
  14     -77.1141421079     -2.11e-05       6.31e-06         1.41e-04        4.47e-08 
  15     -77.1141561572     -1.40e-05       3.05e-06         5.45e-05        3.33e-08 
  16     -77.1141671224     -1.10e-05       3.54e-06         8.82e-05        2.27e-08 
  17     -77.1141745155     -7.39e-06       2.84e-06         5.54e-05        1.68e-08 
  18     -77.1141821461     -7.63e-06       1.41e-05         2.62e-04        1.05e-08 
  19     -77.1141784387      3.71e-06       2.49e-05         4.42e-04        2.29e-08 
  20     -77.1141857268     -7.29e-06       6.67e-07         1.03e-05        9.46e-09 
  21     -77.1141895615     -3.83e-06       3.89e-07         7.63e-06        4.30e-09 
  22     -77.1141902794     -7.18e-07       3.62e-08         6.92e-07        2.73e-09 
  23     -77.1141911391     -8.60e-07       5.76e-08         9.92e-07        1.97e-09 
  24     -77.1141917442     -6.05e-07       2.64e-07         5.34e-06        1.36e-09 
  25     -77.1141921518     -4.08e-07       2.07e-07         4.36e-06        9.88e-10 
  26     -77.1141924073     -2.56e-07       1.78e-08         4.47e-07        7.42e-10 
  27     -77.1141926241     -2.17e-07       1.79e-08         3.50e-07        5.14e-10 
  28     -77.1141927895     -1.65e-07       1.03e-08         1.97e-07        3.68e-10 
  29     -77.1141929054     -1.16e-07       6.51e-09         1.22e-07        2.62e-10 

 ============================================================================== 
 ======================== OCEPA ITERATIONS ARE CONVERGED ====================== 
 ============================================================================== 

	Orbitals are optimized now.
	Switching to the standard CEPA computation... 

  
 ============================================================================== 
 ================ Performing CEPA iterations... =============================== 
 ============================================================================== 

  Iter    E_corr           E_total            DE           T2 RMS        
  ----   -------------    ---------------    ----------   ----------    
   1     -0.2912760763    -77.1141929895     -8.41e-08     1.86e-10 
   2     -0.2912762830    -77.1141931962     -2.07e-07     1.32e-10 
   3     -0.2912762821    -77.1141931952      9.87e-10     6.72e-13 

 ============================================================================== 
 ======================== CEPA ITERATIONS ARE CONVERGED ======================= 
 ============================================================================== 

	============================================================================== 
	================ OCEPA FINAL RESULTS ========================================= 
	============================================================================== 
	Nuclear Repulsion Energy (a.u.)    : 24.31281434605495
	SCF Energy (a.u.)                  : -76.82291691317867
	REF Energy (a.u.)                  : -76.81992393665882
	SCS-OCEPA(0) Total Energy (a.u.)   : -77.18620737126599
	SOS-OCEPA(0) Total Energy (a.u.)   : -77.13340196618375
	OCEPA(0) Correlation Energy (a.u.) : -0.29127628206139
	Eocepa - Eref (a.u.)               : -0.29426925858124
	OCEPA(0) Total Energy (a.u.)       : -77.11419319524006
	============================================================================== 


*** tstop() called on bozkaya at Tue Apr  2 11:43:56 2013
Module time:
	user time   =       2.81 seconds =       0.05 minutes
	system time =       0.64 seconds =       0.01 minutes
	total time  =          2 seconds =       0.03 minutes
Total time:
	user time   =      54.72 seconds =       0.91 minutes
	system time =       8.96 seconds =       0.15 minutes
	total time  =         40 seconds =       0.67 minutes

-------------------------------------------------------------

  Computing second-derivative from energies using projected, 
  symmetry-adapted, cartesian coordinates (fd_freq_0).
	12 energies passed in, including the reference energy.
	Using 3-point formula.
	Energy without displacement:  -77.1141931952
	Check energies below for precision!
	    1 :       -77.1141913704
	    2 :       -77.1141898967
	    3 :       -77.1141880094
	    4 :       -77.1141882304
	    5 :       -77.1141879492
	    6 :       -77.1141892228
	    7 :       -77.1141930701
	    8 :       -77.1141930701
	    9 :       -77.1141877038
	   10 :       -77.1141929485
	   11 :       -77.1141929485
	   12 :       -77.1141931952


	  Irrep      Harmonic Frequency   
	                  (cm-1)          
	-----------------------------------------------
	    B3g          514.3963  
	    B2g          514.4008  
	    B2u          722.1858  
	    B3u          722.1956  
	     Ag         1978.0623  
	    B1u         3407.1480  
	     Ag         3497.3897  
	-----------------------------------------------

	Normal Modes (mass-weighted).
	Molecular mass is   26.01565 amu.
	Frequencies in cm^-1; force constants in au.

   Frequency:        514.40
   Force constant:   0.0100
	     X       Y       Z           mass	
  C 	   0.000   0.127   0.000      12.000000
  C 	   0.000  -0.127   0.000      12.000000
  H 	   0.000  -0.550   0.000       1.007825
  H 	   0.000   0.550   0.000       1.007825

   Frequency:        514.40
   Force constant:   0.0100
	     X       Y       Z           mass	
  C 	   0.127   0.000   0.000      12.000000
  C 	  -0.127   0.000   0.000      12.000000
  H 	  -0.550   0.000   0.000       1.007825
  H 	   0.550   0.000   0.000       1.007825

   Frequency:        722.19
   Force constant:   0.0197
	     X       Y       Z           mass	
  C 	   0.000   0.057   0.000      12.000000
  C 	   0.000   0.057   0.000      12.000000
  H 	   0.000  -0.677   0.000       1.007825
  H 	   0.000  -0.677   0.000       1.007825

   Frequency:        722.20
   Force constant:   0.0197
	     X       Y       Z           mass	
  C 	   0.057   0.000   0.000      12.000000
  C 	   0.057   0.000   0.000      12.000000
  H 	  -0.677   0.000   0.000       1.007825
  H 	  -0.677   0.000   0.000       1.007825

   Frequency:       1978.06
   Force constant:   0.1481
	     X       Y       Z           mass	
  C 	   0.000   0.000  -0.185      12.000000
  C 	   0.000   0.000   0.185      12.000000
  H 	   0.000   0.000  -0.299       1.007825
  H 	   0.000   0.000   0.299       1.007825

   Frequency:       3407.15
   Force constant:   0.4393
	     X       Y       Z           mass	
  C 	   0.000   0.000   0.057      12.000000
  C 	   0.000   0.000   0.057      12.000000
  H 	   0.000   0.000  -0.677       1.007825
  H 	   0.000   0.000  -0.677       1.007825

   Frequency:       3497.39
   Force constant:   0.4629
	     X       Y       Z           mass	
  C 	   0.000   0.000  -0.087      12.000000
  C 	   0.000   0.000   0.087      12.000000
  H 	   0.000   0.000   0.638       1.007825
  H 	   0.000   0.000  -0.638       1.007825

-------------------------------------------------------------

            *********************************************
            * Thermodynamic Analysis by R.A. King, 2012 *
            *********************************************

    Full point group: D_inf_h (D_inf_h)

    Data used to determine thermochemical information:
    Temperature (K):          298.15
    Pressure (Pa)  :       101325.00
    Multiplicity   :               1
    Rotor type     :          LINEAR
    Rotational symmetry number :   2

    Rotational constants:
           wavenumbers          GHz
        A:    0.000000      0.00000
        B:    1.137559     34.10315
        C:    1.137559     34.10315

    Nuclear masses:
         12.000000 12.000000  1.007825  1.007825

    No.    Vib. Freq. (cm^-1)      Vib. Temp. (K)
      1               514.396             740.101
      2               514.401             740.107
      3               722.186            1039.063
      4               722.196            1039.077
      5              1978.062            2845.987
      6              3407.148            4902.120
      7              3497.390            5031.957
    Warning: used thermodynamic relations are not appropriate for low frequency modes.    Warning: used thermodynamic relations are not appropriate for low frequency modes.
    Component        Thermal Energy             Cv              S
                           kcal/mol    cal/(mol K)    cal/(mol K) 
    Electronic                0.000          0.000          0.000
    Translational             0.889          2.981         35.704
    Rotational                0.592          1.987         10.953
    Vibrational              16.633          4.024          1.809
    Total                    18.114          8.992         48.467

                               cm^(-1)              au        kcal/mol
    Zero-point energy        5677.8892      0.02587037         16.2339

    Energies in Hartree/particle:   Correction            Total
    Energy (0 K)                    0.02587037     -77.08832283
    Internal energy                 0.02886692     -77.08532627
    Enthalpy                        0.02981111     -77.08438209
    Gibbs Free Energy               0.00678292     -77.10741028

*** PSI4 exiting successfully. Buy a developer a beer!
