    -----------------------------------------------------------------------
          PSI4: An Open-Source Ab Initio Electronic Structure Package
                              PSI 4.0.0-beta1 Driver

    J. M. Turney, A. C. Simmonett, R. M. Parrish, E. G. Hohenstein,
    F. Evangelista, J. T. Fermann, B. J. Mintz, L. A. Burns, J. J. Wilke,
    M. L. Abrams, N. J. Russ, M. L. Leininger, C. L. Janssen, E. T. Seidl,
    W. D. Allen, H. F. Schaefer, R. A. King, E. F. Valeev, C. D. Sherrill,
    and T. D. Crawford, WIREs Comput. Mol. Sci., (2011) (doi: 10.1002/wcms.93)

                         Additional Contributions by
    A. E. DePrince, M. Saitow, U. Bozkaya, A. Yu. Sokolov
    -----------------------------------------------------------------------


    Using LocalCommunicator (Number of processes = 1)

    Memory level set to 256.000 MB

  ==> Input File <==

--------------------------------------------------------------------------
#! 6-31G** H2O+ Test CISD Energy Point

memory 250 mb

refnuc   =   8.8046866186391  #TEST
refscf   = -75.6213422266812  #TEST
refci    = -75.7850671871149  #TEST
refcorr  = refci - refscf     #TEST

molecule h2o {
    1 2
    O
    H 1 1.00
    H 1 1.00 2 103.1
}

set globals {
  reference rohf
  basis 6-31G**
  freeze_core true
  icore 0
}

thisenergy = energy('cisd')

compare_values(refnuc, h2o.nuclear_repulsion_energy(), 9, "Nuclear repulsion energy") #TEST 
compare_values(refscf, get_variable("SCF total energy"),     7, "SCF energy") #TEST
compare_values(refci, thisenergy,                      7, "CI energy") #TEST
compare_values(refcorr, get_variable("CI CORRELATION ENERGY"), 7, "CI correlation energy") #TEST
--------------------------------------------------------------------------

  Memory set to 250.000 MiB by Python script.

*** tstart() called on QuickSilver.local
*** at Mon Jan 23 14:44:08 2012


         ---------------------------------------------------------
                                   SCF
            by Justin Turney, Rob Parrish, and Andy Simmonett
                             ROHF Reference
                        1 Threads,    250 MiB Core
         ---------------------------------------------------------

  ==> Geometry <==

    Molecular point group: c2v

    Geometry (in Angstrom), charge = 1, multiplicity = 2:

       Center              X                  Y                   Z       
    ------------   -----------------  -----------------  -----------------
           O         -0.000000000000     0.000000000000    -0.069592187390
           H          0.000000000000    -0.783151105291     0.552239257844
           H         -0.000000000000     0.783151105291     0.552239257844

    Number of unique atoms: 2

    Atoms equivalency:
       unique atom 0: 0 
       unique atom 1: 1 2 

  Running in c2v symmetry.

  Nuclear repulsion =    8.804686618639053

  Charge       = 1
  Multiplicity = 2
  Electrons    = 9
  Nalpha       = 5
  Nbeta        = 4

  ==> Algorithm <==

  SCF Algorithm Type is PK.
  DIIS enabled.
  MOM disabled.
  Fractional occupation disabled.
  Guess Type is CORE.
  Energy threshold   = 1.00e-08
  Density threshold  = 1.00e-08
  Integral threshold = 0.00e+00

  ==> Primary Basis: 6-31G** <==

  Basis Set
    Number of shells: 12
    Number of basis function: 25
    Number of Cartesian functions: 25
    Spherical Harmonics?: false
    Max angular momentum: 2

  ==> Pre-Iterations <==

  Minimum eigenvalue in the overlap matrix is 2.3361254517E-02.
  Using Symmetric Orthogonalization.
  SCF Guess: Core (One-Electron) Hamiltonian.

  Initial ROHF energy:   -56.70322786793615

   -------------------------------------------------------
    Irrep   Nso     Nmo     Nalpha   Nbeta   Ndocc  Nsocc
   -------------------------------------------------------
     A1        12      12       3       3       3       0
     A2         2       2       0       0       0       0
     B1         4       4       1       0       0       1
     B2         7       7       1       1       1       0
   -------------------------------------------------------
    Total      25      25       5       4       4       1
   -------------------------------------------------------

  ==> Integral Setup <==

 MINTS: Wrapper to libmints.
   by Justin Turney

   Calculation information:
      Number of atoms:                   3
      Number of AO shells:              12
      Number of SO shells:               9
      Number of primitives:             25
      Number of atomic orbitals:        25
      Number of basis functions:        25

      Number of irreps:                  4
      Number of functions per irrep: [  12    2    4    7 ]

      Overlap, kinetic, potential, dipole, and quadrupole integrals
        stored in file 35.

      Computing two-electron integrals...done
      Computed 13617 non-zero two-electron integrals.
        Stored in file 33.

  ==> Iterations <==

                        Total Energy        Delta E     Density RMS

   @ROHF iter   1:   -70.18004980496130   -1.34768e+01   2.03110e+26 
	Occupation by irrep:
	         A1    A2    B1    B2 
	DOCC [     3,    0,    0,    1 ]
	SOCC [     1,    0,    0,    0 ]
   @ROHF iter   2:   -72.69315100739431   -2.51310e+00   5.93326e-01 DIIS
	Occupation by irrep:
	         A1    A2    B1    B2 
	DOCC [     3,    0,    0,    1 ]
	SOCC [     0,    0,    1,    0 ]
   @ROHF iter   3:   -75.51378952323473   -2.82064e+00   5.14934e-01 DIIS
   @ROHF iter   4:   -75.61155328442858   -9.77638e-02   2.18789e-02 DIIS
   @ROHF iter   5:   -75.62122688254655   -9.67360e-03   8.13069e-03 DIIS
   @ROHF iter   6:   -75.62133169271800   -1.04810e-04   8.97695e-04 DIIS
   @ROHF iter   7:   -75.62134171192422   -1.00192e-05   3.17822e-04 DIIS
   @ROHF iter   8:   -75.62134218822624   -4.76302e-07   7.80409e-05 DIIS
   @ROHF iter   9:   -75.62134222563540   -3.74092e-08   2.68587e-05 DIIS
   @ROHF iter  10:   -75.62134222667807   -1.04266e-09   4.90020e-06 DIIS
   @ROHF iter  11:   -75.62134222668112   -3.05533e-12   2.19280e-07 DIIS
   @ROHF iter  12:   -75.62134222668122   -9.94760e-14   5.78944e-08 DIIS

  ==> Post-Iterations <==

	Orbital Energies (a.u.)
	-----------------------

	Doubly Occupied:                                                      

	   1A1   -21.122454     2A1    -1.807728     1B2    -1.168198  
	   3A1    -1.059038  

	Singly Occupied:                                                      

	   1B1    -0.690806  

	Virtual:                                                              

	   4A1    -0.131097     2B2    -0.048500     3B2     0.586122  
	   5A1     0.641232     6A1     0.720655     2B1     0.727665  
	   4B2     0.870547     7A1     0.987059     1A2     1.346739  
	   8A1     1.356305     3B1     1.458174     9A1     2.046744  
	   5B2     2.120283     6B2     2.262511     2A2     2.470165  
	   4B1     2.502866    10A1     2.856186    11A1     3.171210  
	   7B2     3.431043    12A1     3.610004  

	Final Occupation by Irrep:
	         A1    A2    B1    B2 
	DOCC [     3,    0,    0,    1 ]
	SOCC [     0,    0,    1,    0 ]

  Energy converged.

  @ROHF Final Energy:   -75.62134222668122

  ==> Properties <==
  Nuclear Dipole Moment: (a.u.)
     X:    -0.0000      Y:     0.0000      Z:     1.0351

  Electronic Dipole Moment: (a.u.)
     X:     0.0000      Y:     0.0000      Z:     0.0656

  Dipole Moment: (a.u.)
     X:    -0.0000      Y:     0.0000      Z:     1.1007     Total:     1.1007

  Dipole Moment: (Debye)
     X:    -0.0000      Y:     0.0000      Z:     2.7976     Total:     2.7976


  Saving occupied orbitals to File 180.

*** tstop() called on QuickSilver.local at Mon Jan 23 14:44:08 2012
Module time:
	user time   =       0.06 seconds =       0.00 minutes
	system time =       0.01 seconds =       0.00 minutes
	total time  =          0 seconds =       0.00 minutes
Total time:
	user time   =       0.06 seconds =       0.00 minutes
	system time =       0.01 seconds =       0.00 minutes
	total time  =          0 seconds =       0.00 minutes

*** tstart() called on QuickSilver.local
*** at Mon Jan 23 14:44:08 2012


	**************************************************
	* TRANSQT2: Program to transform integrals from  *
	*           the SO basis to the MO basis.        *
	*                                                *
	*            Daniel, David, & Justin             *
	**************************************************


	Input parameters:
	-----------------
	Wave function   =	DETCI
	Backtransform   =	No
	Print Level     =	1
	Print TEIs      =	No
	Reference wfn   =	ROHF
	Derivative      =	None
	Delete TEI File =	Yes
	Memory (Mbytes) =	250.0
	Cache Level     =	2
	Cache Type      =	LRU
	Chkpt Parameters:
	--------------------
	Number of irreps     = 4
	Number of SOs        = 25
	Number of MOs        = 25
	Number of active MOs = 24

	Label	# SOs	# FZDC	# DOCC	# SOCC	# VIRT	# FZVR
	-----	-----	------	------	------	------	------
	 A1	   12	    1	    2	    0	    9	    0
	 A2	   2	    0	    0	    0	    2	    0
	 B1	   4	    0	    0	    1	    3	    0
	 B2	   7	    0	    1	    0	    6	    0

	Nuclear Rep. energy (chkpt) =      8.80468661863905
	SCF energy          (chkpt) =    -75.62134222668122

	Presorting SO-basis two-electron integrals.
	Sorting File: SO Ints (pq,rs) nbuckets = 1
	Frozen-core energy =  -61.217651155481612
	Starting first half-transformation.
	Sorting half-transformed integrals.
	Starting second half-transformation.
	Two-electron integral transformation complete.

*** tstop() called on QuickSilver.local at Mon Jan 23 14:44:08 2012
Module time:
	user time   =       0.02 seconds =       0.00 minutes
	system time =       0.01 seconds =       0.00 minutes
	total time  =          0 seconds =       0.00 minutes
Total time:
	user time   =       0.08 seconds =       0.00 minutes
	system time =       0.02 seconds =       0.00 minutes
	total time  =          0 seconds =       0.00 minutes

*** tstart() called on QuickSilver.local
*** at Mon Jan 23 14:44:08 2012


*******************************************************
                       D E T C I  

                   C. David Sherrill
                   Matt L. Leininger
                     18 June 1999
*******************************************************




PARAMETERS: 
   EX LEVEL      =        2      H0 BLOCKSIZE =      400
   VAL EX LEVEL  =        0      H0 GUESS SIZE=      400
   H0COUPLINGSIZE=        0      H0 COUPLING  =       no
   NUM PRINT     =       20
   MAXITER       =       12      FREEZE CORE  =      yes
   NUM ROOTS     =        1      ICORE        =        0
   PRINT         =        1      FCI          =       no
   R CONV        =   1.00e-04      MIXED        =      yes
   E CONV        =   1.00e-06      MIXED4       =      yes
   OEI FILE      =       35      R4S          =       no
   REPL OTF      =       no
   TEI FILE      =       72      DIAG METHOD  =      SEM
   PRECONDITIONER= DAVIDSON      UPDATE       =   DAVIDSON
   S             =   0.5000      Ms0          =       no
   MAX NUM VECS  =       13
   RESTART       =       no
   GUESS VECTOR  =  H0BLOCK      OPENTYPE     = HIGHSPIN
   REF SYM       =     auto
   COLLAPSE SIZE =        1      HD AVG       = EVANGELISTI
   LSE           =       no      LSE ITER     =        0
   HD OTF        =      yes      NO DFILE     =       no
   MPN           =       no      MPN SCHMIDT  =       no
   ZAPTN         =       no      MPN WIGNER   =       no
   PERT Z        =   1.0000    FOLLOW ROOT  =        0
   NUM THREADS   =        1
   VECS WRITE    =       no      NUM VECS WRITE =        0
   FILTER GUESS  =       no      SF RESTRICT  =       no
   OPDM          =       no      TRANS DENSITY=       no

   FILES         =  50 51 52 53

   EX ALLOW      =  1  1 
   STATE AVERAGE =  1(1.00) 
   STATE AVERAGE =  1(1.00) 

ORBITALS:
   NMO          =       25      NUM ALP      =        5
   ORBS IN CI   =       24      NUM ALP EXPL =        4
   FROZEN CORE  =        1      NUM BET      =        4
   RESTR CORE   =        0      NUM BET EXPL =        3
   IOPEN        =      yes
   RAS1 LVL     =        3      A RAS3 MAX   =        2
   RAS1 MIN     =        7      B RAS3 MAX   =        2
   A RAS1 LVL   =        3      RAS4 LVL     =       24
   A RAS1 MIN   =        3      A RAS4 MAX   =        0
   A RAS1 MAX   =        5      B RAS4 MAX   =        0
   B RAS1 LVL   =        3      RAS4 MAX     =        0
   B RAS1 MIN   =        2      A RAS34 MAX  =        2
   B RAS1 MAX   =        4      B RAS34 MAX  =        2
   RAS3 LVL     =        4      RAS34 MAX    =        2
   RAS3 MAX     =        2

   DOCC         =  3  0  0  1 
   SOCC         =  0  0  1  0 
   FROZEN DOCC  =  1  0  0  0 
   FROZEN UOCC  =  0  0  0  0 
   RAS 1        =  2  0  1  1 
   RAS 2        =  0  0  0  0 
   RAS 3        =  9  2  3  6 
   RAS 4        =  0  0  0  0 
*******************************************************


There are 1221 alpha strings
There are 884 beta strings
CI space contains   13 blocks

CI space requires 3857 determinants

Check SCF Energy from 1- and 2-electron integrals

SCF Energy (ref):            -75.6213422267
Nuclear repulsion energy:      8.8046866186
One-electron energy:         -32.0199315432
Two-electron energy:           9.9231722789
Frozen core energy:          -61.2176511555
Total electronic energy:     -83.3144104198
Total SCF energy:            -74.5097238011

*** Calculated Energy Differs from SCF Energy in CHKPT ! ***

 CI vector/subblock length = 837

*** H0 Block Eigenvalue = -75.70469195

Find the roots by the Simultaneous Expansion Method (Block Davidson Method)
Energy convergence = 1e-06
RMS CI vector convergence = 0.0001

Using 1 initial trial vectors
Iter  0  Root  1 = -75.704691953   Delta_E -2.329E+01   Delta_C  6.333E-01  
Iter  1  Root  1 = -75.783963986   Delta_E -7.927E-02   Delta_C  6.266E-02  
Iter  2  Root  1 = -75.784975384   Delta_E -1.011E-03   Delta_C  1.703E-02  
Iter  3  Root  1 = -75.785060956   Delta_E -8.557E-05   Delta_C  4.425E-03  
Iter  4  Root  1 = -75.785066791   Delta_E -5.835E-06   Delta_C  1.017E-03  
Iter  5  Root  1 = -75.785067165   Delta_E -3.736E-07   Delta_C  2.587E-04  
Iter  6  Root  1 = -75.785067187   Delta_E -2.241E-08   Delta_C  6.476E-05 c

* ROOT 1 CI total energy = -75.7850671871149


The 20 most important determinants

    1    0.977151  (  302,  641)  2A1X  3A1X  1B1A  1B2X  
    2   -0.037409  (  324,  667)  2A1X  3A1X  1B1A  2B2X  
    3    0.024331  (  307,  646)  2A1X  1B1A  1B2X  6A1X  
    4   -0.024282  (  936,  239)  2A1A  3A1B  1B1X  1B2X  3B1A  
    5   -0.024185  (  923,  239)  2A1A  3A1X  1B1B  1B2X  4A1A  
    6   -0.024039  (  932,  239)  2A1A  3A1X  1B1X  1B2B  1A2A  
*   7   -0.023658  (  326,  669)  2A1X  3A1X  1B1A  4B2X  
    8    0.023298  (  321,  667)  2A1X  3A1X  1B2A  2B1A  2B2B  
    9   -0.023250  (  326,  667)  2A1X  3A1X  1B1A  2B2B  4B2A  
   10   -0.023146  (  325,  668)  2A1X  3A1X  1B1A  3B2X  
   11    0.022949  (  321,  669)  2A1X  3A1X  1B2A  2B1A  4B2B  
   12    0.022588  (    7,  440)  2A1X  3A1X  1B1B  1B2A  2B2A  
   13   -0.022379  (  324,  669)  2A1X  3A1X  1B1A  2B2A  4B2B  
*  14    0.022277  (  928,  239)  2A1A  3A1X  1B1B  1B2X  9A1A  
   15    0.021797  (  305,  644)  2A1X  1B1A  1B2X  5A1X  
   16    0.021693  (  321,  646)  2A1X  3A1A  1B2X  6A1B  2B1A  
   17   -0.020706  (  924,  239)  2A1A  3A1X  1B1B  1B2X  5A1A  
   18    0.020347  (  305,  667)  2A1X  3A1B  1B1A  1B2A  5A1A  2B2B  
*  19    0.019749  (  311,  650)  2A1X  1B1A  1B2X  8A1X  
   20   -0.019717  (  324,  644)  2A1X  3A1A  1B1A  1B2B  5A1B  2B2A  




        Total Time (s)     %Time 		%Relative
 -----------------------------------------------------
 Read      0.016916
 Write     0.006757
 Sigma1    0.030807
 Sigma2    0.078839
 Sigma3    0.105948
 S1 Thread 0.000000
 S2 Thread 0.000000
 S3 Thread 0.000000

		 "A good bug is a dead bug" 

			 - Starship Troopers

		 "I didn't write FORTRAN.  That's the problem."

			 - Edward Valeev


*** tstop() called on QuickSilver.local at Mon Jan 23 14:44:08 2012
Module time:
	user time   =       0.63 seconds =       0.01 minutes
	system time =       0.04 seconds =       0.00 minutes
	total time  =          0 seconds =       0.00 minutes
Total time:
	user time   =       0.71 seconds =       0.01 minutes
	system time =       0.06 seconds =       0.00 minutes
	total time  =          0 seconds =       0.00 minutes

*** PSI4 exiting successfully. Buy a developer a beer!
