
    -----------------------------------------------------------------------
          Psi4: An Open-Source Ab Initio Electronic Structure Package
                               Psi4 1.1a2.dev267 

                         Git: Rev {pbeh3c-final} ef2c4be dirty


    R. M. Parrish, L. A. Burns, D. G. A. Smith, A. C. Simmonett,
    A. E. DePrince III, E. G. Hohenstein, U. Bozkaya, A. Yu. Sokolov,
    R. Di Remigio, R. M. Richard, J. F. Gonthier, A. M. James,
    H. R. McAlexander, A. Kumar, M. Saitow, X. Wang, B. P. Pritchard,
    P. Verma, H. F. Schaefer III, K. Patkowski, R. A. King, E. F. Valeev,
    F. A. Evangelista, J. M. Turney, T. D. Crawford, and C. D. Sherrill,
    submitted.

    -----------------------------------------------------------------------


    Psi4 started on: Tuesday, 28 February 2017 07:38PM

    Process ID:   6588
    PSIDATADIR: /theoryfs2/ds/cdsgroup/psi4-compile/hrw-directclone/psi4/objdir3/stage/theoryfs2/ds/cdsgroup/psi4-compile/hrw-directclone/psi4/install-psi4-3/share/psi4
    Memory:     500.0 MiB
    Threads:    1
    
  ==> Input File <==

--------------------------------------------------------------------------
#! Verify HF-3c method over S22

memory 200 mb

def ie(es):
    return es[0] - es[1] - es[2]

import os
import sys
psidatadir = os.environ["PSIDATADIR"]
sys.path.append("""{}/databases""".format(psidatadir))
qcdbpath = os.path.dirname(os.path.dirname(qcdb.__file__))
sys.path.append(qcdbpath)

import S22

set scf_type pk
digits = 6

#set scf_type df  # max IE error 0.03 kcal/mol
#digits = 3

# from suppmat of Grimme's HF-3c paper
# Table S6 file:///Users/loriab/Downloads/jz5021313_si_001.pdf
ans22 = [2.64, 5.93, 18.05, 15.47, 20.75, 18.07, 17.27, 0.56, 1.73, 1.57,
         3.47, 4.64, 8.40, 4.82, 10.43, 1.64, 3.52, 2.55, 3.92, 2.82, 5.57, 7.98]
ans22 = [-x for x in ans22]

ans66 = [-5.78, -5.81, -7.64, -7.93, -6.13, -8.58, -8.05, -5.92, -3.26, -4.06,
         -5.13, -7.12, -6.32, -8.23, -8.26, -5.64, -17.28, -6.75, -7.33, -18.29,
        -15.53, -19.33, -19.17, -3.48, -4.44, -8.40, -4.00, -5.58, -6.30, -1.91,
         -3.08, -3.15, -2.34, -4.63, -3.19, -2.20, -3.19, -3.43, -4.06, -3.55,
         -4.80, -3.96, -3.22, -2.56, -1.86, -4.14, -3.08, -3.42, -3.36, -2.52,
         -1.36, -4.69, -3.68, -3.52, -4.26, -3.50, -5.42, -3.85, -2.18, -4.26,
         -2.94, -3.48, -3.68, -2.55, -4.66, -3.71]

#from plain "!HF-3c" Orca job. IE in E_h
orca22 = [-0.00412642, -0.00912312, -0.02876673, -0.02466090, -0.03306319,
          -0.02880296, -0.02758575, -0.00090665, -0.00278176, -0.00251225,
          -0.00554136, -0.00739721, -0.01338844, -0.00794078, -0.01662261,
          -0.00240232, -0.00554145, -0.00399651, -0.00625213, -0.00442947,
          -0.00893338, -0.01263399]

orcad3 = [-0.002505085, -0.002161393, -0.007432571, -0.006924418, -0.00826834,
          -0.009320689, -0.009750695, -0.001512312, -0.004154426, -0.003971029,
          -0.010583255, -0.011394872, -0.016138638, -0.015279486, -0.022658823,
          -0.001980869, -0.004462745, -0.004228139, -0.005994321, -0.006746989,
          -0.009716987, -0.008176339]

orcahfminix = [-0.002505085, -0.002161393, -0.007432571, -0.006924418, -0.00826834,
               -0.009320689, -0.009750695, -0.001512312, -0.004154426, -0.003971029,
               -0.010583255, -0.011394872, -0.016138638, -0.015279486, -0.022658823,
               -0.001980869, -0.004462745, -0.004228139, -0.005994321, -0.006746989,
               -0.009716987, -0.008176339]

orcagcp = [0.001123689, 0.002365521, 0.007369389, 0.005255831, 0.005826216,
           0.004724168, 0.004954962, 0.000237522, 0.000705801, 0.000587939,
           0.000774531, 0.001336877, 0.00401026, 0.001260855, 0.004269944,
           0.00030467, 0.001044991, 0.000758185, 0.001013116, 0.000894935,
           0.001610777, 0.003529167]

print("""{:4} {:16} {:8} {:8} {:10} : {:8} {:8} {:8}""".format(
      'rxn', 'HF-3c', 'HF-3c [kc]', 'orca', 'err', 'gcp', 'd3', 'hf'))

#for rxn in range(1, 23):
for rxn in [4, 8, 16, 20]:
    ans = ans22
    di = geometry(S22.GEOS['S22-{}-dimer'.format(rxn)].create_psi4_string_from_molecule())
    ma = geometry(S22.GEOS['S22-{}-monoA-unCP'.format(rxn)].create_psi4_string_from_molecule())
    mb = geometry(S22.GEOS['S22-{}-monoB-unCP'.format(rxn)].create_psi4_string_from_molecule())

    di.update_geometry()
    ma.update_geometry()
    mb.update_geometry()

    E, G = di.run_dftd3('hf3c', 'd3bj', verbose=True)
    E1, G2 = ma.run_dftd3('hf3c', 'd3bj', verbose=True)
    E2, G2 = mb.run_dftd3('hf3c', 'd3bj', verbose=True)
    hf3c_d3 = [E, E1, E2]

    if rxn == 4:
        compare_values(-0.03764556, E, digits, 'S22-4 di d3bj')  #TEST  # from orca
        compare_values(-0.015360571, E1, digits, 'S22-4 ma d3bj')  #TEST  # from orca
        compare_values(-0.015360571, E2, digits, 'S22-4 mb d3bj')  #TEST  # from orca

    E, G = di.run_gcp(func='HF3c', verbose=True)
    E1, G1 = ma.run_gcp(func='HF3c', verbose=True)
    E2, G2 = mb.run_gcp(func='HF3c', verbose=True)
    hf3c_gcp = [E, E1, E2]

    if rxn == 4:
        compare_values(-0.098273107, E, digits, 'S22-4 di gcp')  #TEST  # from orca
        compare_values(-0.051764469, E1, digits, 'S22-4 ma gcp')  #TEST  # from orca
        compare_values(-0.051764469, E2, digits, 'S22-4 mb gcp')  #TEST  # from orca

    E = energy('hf/minix', molecule=di)
    E1 = energy('hf/minix', molecule=ma)
    E2 = energy('hf/minix', molecule=mb)
    hf3c_hf = [E, E1, E2]

    if rxn == 4:
        compare_values(-335.4935181, E, digits, 'S22-4 di hf/minix')  #TEST   # from orca
        compare_values(-167.7352629, E1, digits, 'S22-4 ma hf/minix')  #TEST   # from orca
        compare_values(-167.7352629, E2, digits, 'S22-4 mb hf/minix')  #TEST   # from orca

    hf3c = ie(hf3c_gcp) + ie(hf3c_d3) + ie(hf3c_hf)

    print("""{:4} {:16.8f} {:8.3f} {:8.2f} {:10.4f} : {:8.2f} {:8.2f} {:8.2f}""".format(
            rxn, hf3c, hf3c * 627.5095, orca22[rxn-1] * 627.5095, (hf3c - orca22[rxn-1]) * 627.5095,
            627.5095 * ie(hf3c_gcp),
            627.5095 * ie(hf3c_d3),
            627.5095 * ie(hf3c_hf)))

    compare_values(orca22[rxn-1], hf3c, digits, 'HF-3c for S22-{}'.format(rxn))  #TEST

    if rxn == 8:
        EE = energy('hf3c', molecule=di, bsse_type='nocp')
        compare_values(orca22[rxn-1], EE, digits, ' " hf-3c')  #TEST
        EE = energy('hf3c/minix', molecule=di, bsse_type='nocp')
        compare_values(orca22[rxn-1], EE, digits, ' " hf-3c/minix')  #TEST
--------------------------------------------------------------------------

  Memory set to 200.000 MiB by Python script.

  ==> DFTD3 Output <==
  _________________________________
                                   
 |         DFTD3 V3.1 Rev 1        |
 | S.Grimme, University Bonn       |
 |         October  2015           |
 |   see dftd3 -h for options      |
  _________________________________
 
 Please cite DFT-D3 work done with this code as:
 S. Grimme, J. Antony, S. Ehrlich and H. Krieg,
 J. Chem. Phys. 132 (2010), 154104
 If used with BJ-damping cite also
 S. Grimme, S. Ehrlich and L. Goerigk,
 J. Comput. Chem. 32 (2011), 1456-1465
 For DFT-D2 the reference is
 S. Grimme, J. Comput. Chem., 27 (2006), 1787-1799
 For DFT-D3M or DFT-D3M(BJ) the reference is
 D.G.A. Smith, L.A. Burns, K. Patkowski, and 
 C.D. Sherrill, J. Phys. Chem. Lett. 7 (2016) 2197-2203
 
  files read :     
 ./dftd3_geometry.xyz
 .dftd3par.local
C6 coefficients used:
           2  C6 for element            1
Z=  1 CN= 0.912     C6(AA)=    3.03
Z=  1 CN= 0.000     C6(AA)=    7.59
           5  C6 for element            6
Z=  6 CN= 0.000     C6(AA)=   49.11
Z=  6 CN= 0.987     C6(AA)=   43.25
Z=  6 CN= 1.998     C6(AA)=   29.36
Z=  6 CN= 2.999     C6(AA)=   25.78
Z=  6 CN= 3.984     C6(AA)=   18.21
           4  C6 for element            7
Z=  7 CN= 0.000     C6(AA)=   25.27
Z=  7 CN= 0.994     C6(AA)=   22.12
Z=  7 CN= 2.014     C6(AA)=   19.68
Z=  7 CN= 2.990     C6(AA)=   15.58
           3  C6 for element            8
Z=  8 CN= 0.000     C6(AA)=   15.51
Z=  8 CN= 0.993     C6(AA)=   12.82
Z=  8 CN= 1.989     C6(AA)=   10.37

#               XYZ [au]               R0(AA) [Ang.]  CN       C6(AA)     C8(AA)   C10(AA) [au] 
   1  -3.81469   0.09993   0.00000   c     0.594    3.008        25.7       742.1     26290.4
   2  -2.74426   2.16115   0.00000   o     0.496    1.042        12.8       257.9      6374.5
   3  -2.66030  -2.15898   0.00000   n     0.518    3.031        15.6       345.1      9325.8
   4  -3.71255  -3.73606   0.00000   h     0.384    1.006         3.1        37.3       552.7
   5  -0.73179  -2.28238   0.00000   h     0.384    1.011         3.1        37.3       552.3
   6  -5.89039  -0.02589   0.00000   h     0.384    0.999         3.1        37.4       553.3
   7   3.81469  -0.09993   0.00000   c     0.594    3.008        25.7       742.1     26290.4
   8   2.74426  -2.16115   0.00000   o     0.496    1.042        12.8       257.9      6374.5
   9   2.66030   2.15898   0.00000   n     0.518    3.031        15.6       345.1      9325.8
  10   3.71255   3.73606   0.00000   h     0.384    1.006         3.1        37.3       552.7
  11   0.73179   2.28238   0.00000   h     0.384    1.011         3.1        37.3       552.3
  12   5.89039   0.02589   0.00000   h     0.384    0.999         3.1        37.4       553.3

molecular C6(AA) [au] =      1265.03

           DFT-D V3(BJ)
 DF  none (read from parameter file)                  
 parameters
 s6       :    1.0000
 s8       :    0.8777
 a1       :    0.4171
 a2       :    2.9149
 k1-k3    :   16.0000    1.3333   -4.0000
 Cutoff   :   94.8683 a.u.
 CN-Cutoff:   40.0000 a.u.
 
 Edisp /kcal,au:   -23.6230 -0.03764557

 E6    /kcal :   -13.6886
 E8    /kcal :    -9.9344
 % E8        : 42.05
 
 doing analytical gradient O(N^2) ...
 
 |G|=  1.941214871238427E-002
gdisp time     0.0
 Cartesian gradient written to file dftd3_gradient
 normal termination of dftd3
 -0.13522958346552E-02  0.41684667643583E-03  0.00000000000000E+00
 -0.96474853590636E-03  0.14721872339759E-02  0.00000000000000E+00
 -0.69616237695592E-03 -0.12871487341313E-02  0.00000000000000E+00
 -0.14133617971103E-03 -0.87620711145888E-03  0.00000000000000E+00
 -0.19679701986180E-03 -0.11708568638627E-02  0.00000000000000E+00
 -0.85620763795301E-03  0.27528015128425E-03  0.00000000000000E+00
  0.13522958346552E-02 -0.41684667643583E-03  0.00000000000000E+00
  0.96474853590636E-03 -0.14721872339759E-02  0.00000000000000E+00
  0.69616237695592E-03  0.12871487341313E-02  0.00000000000000E+00
  0.14133617971103E-03  0.87620711145888E-03  0.00000000000000E+00
  0.19679701986180E-03  0.11708568638627E-02  0.00000000000000E+00
  0.85620763795301E-03 -0.27528015128425E-03  0.00000000000000E+00


  ==> DFTD3 Output <==
  _________________________________
                                   
 |         DFTD3 V3.1 Rev 1        |
 | S.Grimme, University Bonn       |
 |         October  2015           |
 |   see dftd3 -h for options      |
  _________________________________
 
 Please cite DFT-D3 work done with this code as:
 S. Grimme, J. Antony, S. Ehrlich and H. Krieg,
 J. Chem. Phys. 132 (2010), 154104
 If used with BJ-damping cite also
 S. Grimme, S. Ehrlich and L. Goerigk,
 J. Comput. Chem. 32 (2011), 1456-1465
 For DFT-D2 the reference is
 S. Grimme, J. Comput. Chem., 27 (2006), 1787-1799
 For DFT-D3M or DFT-D3M(BJ) the reference is
 D.G.A. Smith, L.A. Burns, K. Patkowski, and 
 C.D. Sherrill, J. Phys. Chem. Lett. 7 (2016) 2197-2203
 
  files read :     
 ./dftd3_geometry.xyz
 .dftd3par.local
C6 coefficients used:
           2  C6 for element            1
Z=  1 CN= 0.912     C6(AA)=    3.03
Z=  1 CN= 0.000     C6(AA)=    7.59
           5  C6 for element            6
Z=  6 CN= 0.000     C6(AA)=   49.11
Z=  6 CN= 0.987     C6(AA)=   43.25
Z=  6 CN= 1.998     C6(AA)=   29.36
Z=  6 CN= 2.999     C6(AA)=   25.78
Z=  6 CN= 3.984     C6(AA)=   18.21
           4  C6 for element            7
Z=  7 CN= 0.000     C6(AA)=   25.27
Z=  7 CN= 0.994     C6(AA)=   22.12
Z=  7 CN= 2.014     C6(AA)=   19.68
Z=  7 CN= 2.990     C6(AA)=   15.58
           3  C6 for element            8
Z=  8 CN= 0.000     C6(AA)=   15.51
Z=  8 CN= 0.993     C6(AA)=   12.82
Z=  8 CN= 1.989     C6(AA)=   10.37

#               XYZ [au]               R0(AA) [Ang.]  CN       C6(AA)     C8(AA)   C10(AA) [au] 
   1  -0.76418   0.11231   0.00000   c     0.594    3.006        25.7       742.2     26294.1
   2   0.30625   2.17353   0.00000   o     0.496    1.032        12.8       258.0      6378.4
   3   0.39021  -2.14660   0.00000   n     0.518    3.027        15.6       345.1      9326.9
   4  -0.66204  -3.72368   0.00000   h     0.384    1.006         3.1        37.3       552.7
   5   2.31873  -2.27000   0.00000   h     0.384    1.004         3.1        37.3       552.9
   6  -2.83988  -0.01351   0.00000   h     0.384    0.999         3.1        37.4       553.3

molecular C6(AA) [au] =       316.35

           DFT-D V3(BJ)
 DF  none (read from parameter file)                  
 parameters
 s6       :    1.0000
 s8       :    0.8777
 a1       :    0.4171
 a2       :    2.9149
 k1-k3    :   16.0000    1.3333   -4.0000
 Cutoff   :   94.8683 a.u.
 CN-Cutoff:   40.0000 a.u.
 
 Edisp /kcal,au:    -9.6389 -0.01536057

 E6    /kcal :    -5.4702
 E8    /kcal :    -4.1687
 % E8        : 43.25
 
 doing analytical gradient O(N^2) ...
 
 |G|=  7.029212588955011E-003
gdisp time     0.0
 Cartesian gradient written to file dftd3_gradient
 normal termination of dftd3
 -0.39327974171490E-03  0.63289629708862E-03  0.00000000000000E+00
  0.16234850235242E-03  0.13736701518034E-02  0.00000000000000E+00
  0.35535804822536E-03 -0.91608076599427E-03  0.00000000000000E+00
 -0.24587375491627E-04 -0.82626514082952E-03  0.00000000000000E+00
  0.70580287832598E-03 -0.54875095874995E-03  0.00000000000000E+00
 -0.80564231169724E-03  0.28453041668169E-03  0.00000000000000E+00


  ==> DFTD3 Output <==
  _________________________________
                                   
 |         DFTD3 V3.1 Rev 1        |
 | S.Grimme, University Bonn       |
 |         October  2015           |
 |   see dftd3 -h for options      |
  _________________________________
 
 Please cite DFT-D3 work done with this code as:
 S. Grimme, J. Antony, S. Ehrlich and H. Krieg,
 J. Chem. Phys. 132 (2010), 154104
 If used with BJ-damping cite also
 S. Grimme, S. Ehrlich and L. Goerigk,
 J. Comput. Chem. 32 (2011), 1456-1465
 For DFT-D2 the reference is
 S. Grimme, J. Comput. Chem., 27 (2006), 1787-1799
 For DFT-D3M or DFT-D3M(BJ) the reference is
 D.G.A. Smith, L.A. Burns, K. Patkowski, and 
 C.D. Sherrill, J. Phys. Chem. Lett. 7 (2016) 2197-2203
 
  files read :     
 ./dftd3_geometry.xyz
 .dftd3par.local
C6 coefficients used:
           2  C6 for element            1
Z=  1 CN= 0.912     C6(AA)=    3.03
Z=  1 CN= 0.000     C6(AA)=    7.59
           5  C6 for element            6
Z=  6 CN= 0.000     C6(AA)=   49.11
Z=  6 CN= 0.987     C6(AA)=   43.25
Z=  6 CN= 1.998     C6(AA)=   29.36
Z=  6 CN= 2.999     C6(AA)=   25.78
Z=  6 CN= 3.984     C6(AA)=   18.21
           4  C6 for element            7
Z=  7 CN= 0.000     C6(AA)=   25.27
Z=  7 CN= 0.994     C6(AA)=   22.12
Z=  7 CN= 2.014     C6(AA)=   19.68
Z=  7 CN= 2.990     C6(AA)=   15.58
           3  C6 for element            8
Z=  8 CN= 0.000     C6(AA)=   15.51
Z=  8 CN= 0.993     C6(AA)=   12.82
Z=  8 CN= 1.989     C6(AA)=   10.37

#               XYZ [au]               R0(AA) [Ang.]  CN       C6(AA)     C8(AA)   C10(AA) [au] 
   1   0.76418  -0.11231   0.00000   c     0.594    3.006        25.7       742.2     26294.1
   2  -0.30625  -2.17353   0.00000   o     0.496    1.032        12.8       258.0      6378.4
   3  -0.39021   2.14660   0.00000   n     0.518    3.027        15.6       345.1      9326.9
   4   0.66204   3.72368   0.00000   h     0.384    1.006         3.1        37.3       552.7
   5  -2.31873   2.27000   0.00000   h     0.384    1.004         3.1        37.3       552.9
   6   2.83988   0.01351   0.00000   h     0.384    0.999         3.1        37.4       553.3

molecular C6(AA) [au] =       316.35

           DFT-D V3(BJ)
 DF  none (read from parameter file)                  
 parameters
 s6       :    1.0000
 s8       :    0.8777
 a1       :    0.4171
 a2       :    2.9149
 k1-k3    :   16.0000    1.3333   -4.0000
 Cutoff   :   94.8683 a.u.
 CN-Cutoff:   40.0000 a.u.
 
 Edisp /kcal,au:    -9.6389 -0.01536057

 E6    /kcal :    -5.4702
 E8    /kcal :    -4.1687
 % E8        : 43.25
 
 doing analytical gradient O(N^2) ...
 
 |G|=  7.029212588955011E-003
gdisp time     0.0
 Cartesian gradient written to file dftd3_gradient
 normal termination of dftd3
  0.39327974171490E-03 -0.63289629708862E-03  0.00000000000000E+00
 -0.16234850235242E-03 -0.13736701518034E-02  0.00000000000000E+00
 -0.35535804822536E-03  0.91608076599427E-03  0.00000000000000E+00
  0.24587375491627E-04  0.82626514082952E-03  0.00000000000000E+00
 -0.70580287832598E-03  0.54875095874995E-03  0.00000000000000E+00
  0.80564231169724E-03 -0.28453041668169E-03  0.00000000000000E+00

	S22-4 di d3bj.....................................................PASSED
	S22-4 ma d3bj.....................................................PASSED
	S22-4 mb d3bj.....................................................PASSED

  ==> GCP Output <==
  ___________________________________________ 
                                              
 |              **  g C P  **                |
 |  a geometrical counterpoise correction    |
 |     H.Kruse J.G.Brandenburg S.Grimme      |
 |          Version 2.01 Sep 2015            |
 |                                           |
  ___________________________________________ 
 
 Please cite work done with this code as:
 H. Kruse, S. Grimme J. Chem. Phys. 136, 154101 (2012)
 DOI: 10.1063/1.3700154 
 For the periodic version, please also cite:
 J. G. Brandenburg, M. Alessio, B. Civalleri, M. F. Peintinger
 T. Bredow, S.Grimme J. Phys. Chem. A 117, 9282-9292 (2013).
 DOI: 10.1021/jp406658y 
 
 
 reading...      XYZ file [angst]: ./gcp_geometry.xyz
  Perform special gCP-SRB correction for HF-3c 
 
  level            hf3c  
  Nbf                36
  Atoms              12
 
  Parameters: 
  sigma         0.1290
  eta           1.1526
  alpha         1.1549
  beta          1.1763
 
  
 element parameters hf3c
  elem   emiss   nbas    elem   emiss   nbas    elem   emiss   nbas
    h    0.04240    1      he   0.02832    1      li   0.17787    5
    be   0.17160    5      b    0.22424    5      c    0.27995    5
    n    0.35791    5      o    0.47901    5      f    0.63852    5
    ne   0.83235    5      na   1.11411    9      mg   1.27115    9
    al   1.44695   14      si   1.61098   14      p    1.76661   14
    s    1.98823   14      cl   2.22845   14      ar   2.48796   14
    k    0.37425   11      ca   0.46097   11      sc   0.44489   21
    ti   0.40499   21      v    0.37841   21      cr   0.37344   21
    mn   0.36125   21      fe   0.36001   21      co   0.36293   21
    ni   0.24380   21      cu   0.40530   21      zn   0.39651   21
    ga   0.35002   32      ge   0.34578   32      as   0.34953   32
    se   0.36731   32      br   0.38201   32      kr   0.39971   32
  
   
 cutoffs: 
   distance [bohr] 60.0
   noise    [a.u.] 2.2E-16
   SR-damping      F
   
      #     ON  sites    Nvirt           Emiss    BSSE [kcal/mol]
      1      6     11      2.0          0.2799          7.1525
      2      8     11      1.0          0.4790          5.5244
      3      7     11      1.5          0.3579         13.2716
      4      1     11      0.5          0.0424          0.5692
      5      1     11      0.5          0.0424          0.6507
      6      1     11      0.5          0.0424          0.3863
      7      6     11      2.0          0.2799          7.1525
      8      8     11      1.0          0.4790          5.5244
      9      7     11      1.5          0.3579         13.2716
     10      1     11      0.5          0.0424          0.5692
     11      1     11      0.5          0.0424          0.6507
     12      1     11      0.5          0.0424          0.3863
cpu-time for gradient    0.0 s
                 
 ** gCP correction ** 
  Egcp:       -0.0982731065 / (a.u.) ||     -61.6673 / (kcal/mol)
                 
 |G|=  0.658004149316266     
 no gradient file found to add G(gcp)!
 hence written to file gcp_gradient
cpu-time for gCP    0.0 s
 
     normal termination of gCP
 -0.63295613306635E-01 -0.56233240887019E-01  0.00000000000000E+00
  0.49313320668003E-01  0.92289810501868E-01  0.00000000000000E+00
  0.15612438269607E-01 -0.28635481680912E-01  0.00000000000000E+00
 -0.50973667375718E-02 -0.71025128909731E-02  0.00000000000000E+00
  0.92834306434243E-02  0.40195795789350E-03  0.00000000000000E+00
 -0.15774241568855E-02 -0.15947695734120E-03  0.00000000000000E+00
  0.63295613306635E-01  0.56233240887019E-01  0.00000000000000E+00
 -0.49313320668003E-01 -0.92289810501868E-01  0.00000000000000E+00
 -0.15612438269607E-01  0.28635481680912E-01  0.00000000000000E+00
  0.50973667375718E-02  0.71025128909731E-02  0.00000000000000E+00
 -0.92834306434243E-02 -0.40195795789350E-03  0.00000000000000E+00
  0.15774241568855E-02  0.15947695734120E-03  0.00000000000000E+00


  ==> GCP Output <==
  ___________________________________________ 
                                              
 |              **  g C P  **                |
 |  a geometrical counterpoise correction    |
 |     H.Kruse J.G.Brandenburg S.Grimme      |
 |          Version 2.01 Sep 2015            |
 |                                           |
  ___________________________________________ 
 
 Please cite work done with this code as:
 H. Kruse, S. Grimme J. Chem. Phys. 136, 154101 (2012)
 DOI: 10.1063/1.3700154 
 For the periodic version, please also cite:
 J. G. Brandenburg, M. Alessio, B. Civalleri, M. F. Peintinger
 T. Bredow, S.Grimme J. Phys. Chem. A 117, 9282-9292 (2013).
 DOI: 10.1021/jp406658y 
 
 
 reading...      XYZ file [angst]: ./gcp_geometry.xyz
  Perform special gCP-SRB correction for HF-3c 
 
  level            hf3c  
  Nbf                18
  Atoms               6
 
  Parameters: 
  sigma         0.1290
  eta           1.1526
  alpha         1.1549
  beta          1.1763
 
  
 element parameters hf3c
  elem   emiss   nbas    elem   emiss   nbas    elem   emiss   nbas
    h    0.04240    1      he   0.02832    1      li   0.17787    5
    be   0.17160    5      b    0.22424    5      c    0.27995    5
    n    0.35791    5      o    0.47901    5      f    0.63852    5
    ne   0.83235    5      na   1.11411    9      mg   1.27115    9
    al   1.44695   14      si   1.61098   14      p    1.76661   14
    s    1.98823   14      cl   2.22845   14      ar   2.48796   14
    k    0.37425   11      ca   0.46097   11      sc   0.44489   21
    ti   0.40499   21      v    0.37841   21      cr   0.37344   21
    mn   0.36125   21      fe   0.36001   21      co   0.36293   21
    ni   0.24380   21      cu   0.40530   21      zn   0.39651   21
    ga   0.35002   32      ge   0.34578   32      as   0.34953   32
    se   0.36731   32      br   0.38201   32      kr   0.39971   32
  
   
 cutoffs: 
   distance [bohr] 60.0
   noise    [a.u.] 2.2E-16
   SR-damping      F
   
      #     ON  sites    Nvirt           Emiss    BSSE [kcal/mol]
      1      6      5      2.0          0.2799          7.0336
      2      8      5      1.0          0.4790          3.9300
      3      7      5      1.5          0.3579         13.0265
      4      1      5      0.5          0.0424          0.5663
      5      1      5      0.5          0.0424          0.5328
      6      1      5      0.5          0.0424          0.3851
cpu-time for gradient    0.0 s
                 
 ** gCP correction ** 
  Egcp:       -0.0517644699 / (a.u.) ||     -32.4827 / (kcal/mol)
                 
 |G|=  0.325431500764420     
 no gradient file found to add G(gcp)!
 hence written to file gcp_gradient
cpu-time for gCP    0.0 s
 
     normal termination of gCP
 -0.63549498827219E-01 -0.56309371027036E-01  0.00000000000000E+00
  0.47487854243571E-01  0.92329592592542E-01  0.00000000000000E+00
  0.15164326116058E-01 -0.28814424529424E-01  0.00000000000000E+00
 -0.51687948588565E-02 -0.71239551069890E-02  0.00000000000000E+00
  0.76551102097718E-02  0.78867220267728E-04  0.00000000000000E+00
 -0.15889968833247E-02 -0.16070914936083E-03  0.00000000000000E+00


  ==> GCP Output <==
  ___________________________________________ 
                                              
 |              **  g C P  **                |
 |  a geometrical counterpoise correction    |
 |     H.Kruse J.G.Brandenburg S.Grimme      |
 |          Version 2.01 Sep 2015            |
 |                                           |
  ___________________________________________ 
 
 Please cite work done with this code as:
 H. Kruse, S. Grimme J. Chem. Phys. 136, 154101 (2012)
 DOI: 10.1063/1.3700154 
 For the periodic version, please also cite:
 J. G. Brandenburg, M. Alessio, B. Civalleri, M. F. Peintinger
 T. Bredow, S.Grimme J. Phys. Chem. A 117, 9282-9292 (2013).
 DOI: 10.1021/jp406658y 
 
 
 reading...      XYZ file [angst]: ./gcp_geometry.xyz
  Perform special gCP-SRB correction for HF-3c 
 
  level            hf3c  
  Nbf                18
  Atoms               6
 
  Parameters: 
  sigma         0.1290
  eta           1.1526
  alpha         1.1549
  beta          1.1763
 
  
 element parameters hf3c
  elem   emiss   nbas    elem   emiss   nbas    elem   emiss   nbas
    h    0.04240    1      he   0.02832    1      li   0.17787    5
    be   0.17160    5      b    0.22424    5      c    0.27995    5
    n    0.35791    5      o    0.47901    5      f    0.63852    5
    ne   0.83235    5      na   1.11411    9      mg   1.27115    9
    al   1.44695   14      si   1.61098   14      p    1.76661   14
    s    1.98823   14      cl   2.22845   14      ar   2.48796   14
    k    0.37425   11      ca   0.46097   11      sc   0.44489   21
    ti   0.40499   21      v    0.37841   21      cr   0.37344   21
    mn   0.36125   21      fe   0.36001   21      co   0.36293   21
    ni   0.24380   21      cu   0.40530   21      zn   0.39651   21
    ga   0.35002   32      ge   0.34578   32      as   0.34953   32
    se   0.36731   32      br   0.38201   32      kr   0.39971   32
  
   
 cutoffs: 
   distance [bohr] 60.0
   noise    [a.u.] 2.2E-16
   SR-damping      F
   
      #     ON  sites    Nvirt           Emiss    BSSE [kcal/mol]
      1      6      5      2.0          0.2799          7.0336
      2      8      5      1.0          0.4790          3.9300
      3      7      5      1.5          0.3579         13.0265
      4      1      5      0.5          0.0424          0.5663
      5      1      5      0.5          0.0424          0.5328
      6      1      5      0.5          0.0424          0.3851
cpu-time for gradient    0.0 s
                 
 ** gCP correction ** 
  Egcp:       -0.0517644699 / (a.u.) ||     -32.4827 / (kcal/mol)
                 
 |G|=  0.325431500764420     
 no gradient file found to add G(gcp)!
 hence written to file gcp_gradient
cpu-time for gCP    0.0 s
 
     normal termination of gCP
  0.63549498827219E-01  0.56309371027036E-01  0.00000000000000E+00
 -0.47487854243571E-01 -0.92329592592542E-01  0.00000000000000E+00
 -0.15164326116058E-01  0.28814424529424E-01  0.00000000000000E+00
  0.51687948588565E-02  0.71239551069890E-02  0.00000000000000E+00
 -0.76551102097718E-02 -0.78867220267728E-04  0.00000000000000E+00
  0.15889968833247E-02  0.16070914936083E-03  0.00000000000000E+00

	S22-4 di gcp......................................................PASSED
	S22-4 ma gcp......................................................PASSED
	S22-4 mb gcp......................................................PASSED

*** tstart() called on psinet
*** at Tue Feb 28 19:38:15 2017


         ---------------------------------------------------------
                                   SCF
            by Justin Turney, Rob Parrish, and Andy Simmonett
                              RHF Reference
                        1 Threads,    200 MiB Core
         ---------------------------------------------------------

  ==> Geometry <==

    Molecular point group: c2h
    Full point group: C2h

    Geometry (in Angstrom), charge = 0, multiplicity = 1:

       Center              X                  Y                   Z               Mass       
    ------------   -----------------  -----------------  -----------------  -----------------
           C         -2.018649000000     0.052883000000     0.000000000000    12.000000000000
           O         -1.452200000000     1.143634000000     0.000000000000    15.994914619560
           N         -1.407770000000    -1.142484000000     0.000000000000    14.003074004780
           H         -1.964596000000    -1.977036000000     0.000000000000     1.007825032070
           H         -0.387244000000    -1.207782000000     0.000000000000     1.007825032070
           H         -3.117061000000    -0.013701000000     0.000000000000     1.007825032070
           C          2.018649000000    -0.052883000000     0.000000000000    12.000000000000
           O          1.452200000000    -1.143634000000     0.000000000000    15.994914619560
           N          1.407770000000     1.142484000000     0.000000000000    14.003074004780
           H          1.964596000000     1.977036000000     0.000000000000     1.007825032070
           H          0.387244000000     1.207782000000     0.000000000000     1.007825032070
           H          3.117061000000     0.013701000000     0.000000000000     1.007825032070

  Running in c2h symmetry.

  Rotational constants: A =      0.18886  B =      0.06785  C =      0.04992 [cm^-1]
  Rotational constants: A =   5661.79641  B =   2034.12108  C =   1496.47907 [MHz]
  Nuclear repulsion =  230.794855208649068

  Charge       = 0
  Multiplicity = 1
  Electrons    = 48
  Nalpha       = 24
  Nbeta        = 24

  ==> Algorithm <==

  SCF Algorithm Type is PK.
  DIIS enabled.
  MOM disabled.
  Fractional occupation disabled.
  Guess Type is SAD.
  Energy threshold   = 1.00e-06
  Density threshold  = 1.00e-06
  Integral threshold = 0.00e+00

  ==> Primary Basis <==

  Basis Set: file /theoryfs2/ds/cdsgroup/psi4-compile/hrw-directclone/psi4/objdir3/stage/theoryfs2/ds/cdsgroup/psi4-compile/hrw-directclone/psi4/install-psi4-3/share/psi4/basis/minix.gbs
    Number of shells: 24
    Number of basis function: 36
    Number of Cartesian functions: 36
    Spherical Harmonics?: false
    Max angular momentum: 1

  ==> Pre-Iterations <==

   -------------------------------------------------------
    Irrep   Nso     Nmo     Nalpha   Nbeta   Ndocc  Nsocc
   -------------------------------------------------------
     Ag        15      15       0       0       0       0
     Bg         3       3       0       0       0       0
     Au         3       3       0       0       0       0
     Bu        15      15       0       0       0       0
   -------------------------------------------------------
    Total      36      36      24      24      24       0
   -------------------------------------------------------

  ==> Integral Setup <==

  Using in-core PK algorithm.
   Calculation information:
      Number of atoms:                  12
      Number of AO shells:              24
      Number of primitives:             72
      Number of atomic orbitals:        36
      Number of basis functions:        36

      Integral cutoff                 1.00e-12
      Number of threads:                 1

  Performing in-core PK
  Using 444222 doubles for integral storage.
  We computed 40514 shell quartets total.
  Whereas there are 45150 unique shell quartets.
  ==> DiskJK: Disk-Based J/K Matrices <==

    J tasked:                  Yes
    K tasked:                  Yes
    wK tasked:                  No
    Memory (MB):               143
    Schwarz Cutoff:          1E-12

    OpenMP threads:              1
  Minimum eigenvalue in the overlap matrix is 2.2460009621E-01.
  Using Symmetric Orthogonalization.

  SCF Guess: Superposition of Atomic Densities via on-the-fly atomic UHF.

  ==> Iterations <==

                        Total Energy        Delta E     RMS |[F,P]|

   @RHF iter   0:  -336.23441672694906   -3.36234e+02   2.01051e-01 
   @RHF iter   1:  -335.31238827080813    9.22028e-01   2.31310e-02 
   @RHF iter   2:  -335.44612108083390   -1.33733e-01   1.32536e-02 DIIS
   @RHF iter   3:  -335.49027740762176   -4.41563e-02   2.12168e-03 DIIS
   @RHF iter   4:  -335.49325424744376   -2.97684e-03   6.15067e-04 DIIS
   @RHF iter   5:  -335.49347620657318   -2.21959e-04   2.11367e-04 DIIS
   @RHF iter   6:  -335.49351599839127   -3.97918e-05   5.62471e-05 DIIS
   @RHF iter   7:  -335.49351789290870   -1.89452e-06   1.82792e-05 DIIS
   @RHF iter   8:  -335.49351812331963   -2.30411e-07   3.29904e-06 DIIS
   @RHF iter   9:  -335.49351813100759   -7.68796e-09   2.42293e-07 DIIS

  ==> Post-Iterations <==

    Orbital Energies (a.u.)
    -----------------------

    Doubly Occupied:                                                      

       1Ag   -20.283982     1Bu   -20.283947     2Ag   -15.419055  
       2Bu   -15.419044     3Bu   -11.326654     3Ag   -11.326647  
       4Ag    -1.377048     4Bu    -1.372336     5Bu    -1.193337  
       5Ag    -1.186355     6Ag    -0.845355     6Bu    -0.818816  
       7Ag    -0.732474     7Bu    -0.721668     8Bu    -0.679952  
       8Ag    -0.616941     1Au    -0.571616     9Ag    -0.567530  
       1Bg    -0.567060     9Bu    -0.542224    10Ag    -0.417674  
      10Bu    -0.391934     2Bg    -0.384065     2Au    -0.378022  

    Virtual:                                                              

       3Au     0.239393     3Bg     0.242216    11Ag     0.594011  
      11Bu     0.604663    12Ag     0.608368    12Bu     0.628185  
      13Bu     0.682983    13Ag     0.746250    14Bu     0.826657  
      14Ag     0.827032    15Ag     0.931470    15Bu     0.997342  

    Final Occupation by Irrep:
             Ag    Bg    Au    Bu 
    DOCC [    10,    2,    2,   10 ]

  Energy converged.

  @RHF Final Energy:  -335.49351813100759

   => Energetics <=

    Nuclear Repulsion Energy =            230.7948552086490679
    One-Electron Energy =                -917.7292607577668377
    Two-Electron Energy =                 351.4408874181101510
    DFT Exchange-Correlation Energy =       0.0000000000000000
    Empirical Dispersion Energy =           0.0000000000000000
    PCM Polarization Energy =               0.0000000000000000
    EFP Energy =                            0.0000000000000000
    Total Energy =                       -335.4935181310075905

    Alert: EFP and PCM quantities not currently incorporated into SCF psivars.

Properties will be evaluated at   0.000000,   0.000000,   0.000000 Bohr

Properties computed using the SCF density matrix

  Nuclear Dipole Moment: (a.u.)
     X:     0.0000      Y:    -0.0000      Z:     0.0000

  Electronic Dipole Moment: (a.u.)
     X:     0.0000      Y:     0.0000      Z:     0.0000

  Dipole Moment: (a.u.)
     X:     0.0000      Y:    -0.0000      Z:     0.0000     Total:     0.0000

  Dipole Moment: (Debye)
     X:     0.0000      Y:    -0.0000      Z:     0.0000     Total:     0.0000


*** tstop() called on psinet at Tue Feb 28 19:38:16 2017
Module time:
	user time   =       0.69 seconds =       0.01 minutes
	system time =       0.02 seconds =       0.00 minutes
	total time  =          1 seconds =       0.02 minutes
Total time:
	user time   =       0.69 seconds =       0.01 minutes
	system time =       0.02 seconds =       0.00 minutes
	total time  =          1 seconds =       0.02 minutes

*** tstart() called on psinet
*** at Tue Feb 28 19:38:16 2017


         ---------------------------------------------------------
                                   SCF
            by Justin Turney, Rob Parrish, and Andy Simmonett
                              RHF Reference
                        1 Threads,    200 MiB Core
         ---------------------------------------------------------

  ==> Geometry <==

    Molecular point group: cs
    Full point group: Cs

    Geometry (in Angstrom), charge = 0, multiplicity = 1:

       Center              X                  Y                   Z               Mass       
    ------------   -----------------  -----------------  -----------------  -----------------
           C         -0.404387716114     0.059433460705     0.000000000000    12.000000000000
           O          0.162061283886     1.150184460705     0.000000000000    15.994914619560
           N          0.206491283886    -1.135933539295     0.000000000000    14.003074004780
           H         -0.350334716114    -1.970485539295     0.000000000000     1.007825032070
           H          1.227017283886    -1.201231539295     0.000000000000     1.007825032070
           H         -1.502799716114    -0.007150539295     0.000000000000     1.007825032070

  Running in cs symmetry.

  Rotational constants: A =      2.46207  B =      0.37723  C =      0.32711 [cm^-1]
  Rotational constants: A =  73810.87452  B =  11308.94342  C =   9806.44724 [MHz]
  Nuclear repulsion =   71.072863747537440

  Charge       = 0
  Multiplicity = 1
  Electrons    = 24
  Nalpha       = 12
  Nbeta        = 12

  ==> Algorithm <==

  SCF Algorithm Type is PK.
  DIIS enabled.
  MOM disabled.
  Fractional occupation disabled.
  Guess Type is SAD.
  Energy threshold   = 1.00e-06
  Density threshold  = 1.00e-06
  Integral threshold = 0.00e+00

  ==> Primary Basis <==

  Basis Set: file /theoryfs2/ds/cdsgroup/psi4-compile/hrw-directclone/psi4/objdir3/stage/theoryfs2/ds/cdsgroup/psi4-compile/hrw-directclone/psi4/install-psi4-3/share/psi4/basis/minix.gbs
    Number of shells: 12
    Number of basis function: 18
    Number of Cartesian functions: 18
    Spherical Harmonics?: false
    Max angular momentum: 1

  ==> Pre-Iterations <==

   -------------------------------------------------------
    Irrep   Nso     Nmo     Nalpha   Nbeta   Ndocc  Nsocc
   -------------------------------------------------------
     A'        15      15       0       0       0       0
     A"         3       3       0       0       0       0
   -------------------------------------------------------
    Total      18      18      12      12      12       0
   -------------------------------------------------------

  ==> Integral Setup <==

  Using in-core PK algorithm.
   Calculation information:
      Number of atoms:                   6
      Number of AO shells:              12
      Number of primitives:             36
      Number of atomic orbitals:        18
      Number of basis functions:        18

      Integral cutoff                 1.00e-12
      Number of threads:                 1

  Performing in-core PK
  Using 29412 doubles for integral storage.
  We computed 2998 shell quartets total.
  Whereas there are 3081 unique shell quartets.
  ==> DiskJK: Disk-Based J/K Matrices <==

    J tasked:                  Yes
    K tasked:                  Yes
    wK tasked:                  No
    Memory (MB):               143
    Schwarz Cutoff:          1E-12

    OpenMP threads:              1
  Minimum eigenvalue in the overlap matrix is 2.2585825337E-01.
  Using Symmetric Orthogonalization.

  SCF Guess: Superposition of Atomic Densities via on-the-fly atomic UHF.

  ==> Iterations <==

                        Total Energy        Delta E     RMS |[F,P]|

   @RHF iter   0:  -168.08588865844374   -1.68086e+02   2.00560e-01 
   @RHF iter   1:  -167.62583341491489    4.60055e-01   2.47632e-02 
   @RHF iter   2:  -167.70243926766415   -7.66059e-02   1.56986e-02 DIIS
   @RHF iter   3:  -167.73344674090995   -3.10075e-02   2.19682e-03 DIIS
   @RHF iter   4:  -167.73514288776636   -1.69615e-03   5.45020e-04 DIIS
   @RHF iter   5:  -167.73525323738468   -1.10350e-04   1.63347e-04 DIIS
   @RHF iter   6:  -167.73526249627616   -9.25889e-06   4.99453e-05 DIIS
   @RHF iter   7:  -167.73526312649051   -6.30214e-07   1.77933e-05 DIIS
   @RHF iter   8:  -167.73526323002085   -1.03530e-07   3.45008e-06 DIIS
   @RHF iter   9:  -167.73526323392855   -3.90770e-09   2.07986e-07 DIIS

  ==> Post-Iterations <==

    Orbital Energies (a.u.)
    -----------------------

    Doubly Occupied:                                                      

       1Ap   -20.289332     2Ap   -15.438196     3Ap   -11.322018  
       4Ap    -1.369088     5Ap    -1.199192     6Ap    -0.837004  
       7Ap    -0.734741     8Ap    -0.652927     1App   -0.571364  
       9Ap    -0.549540    10Ap    -0.401810     2App   -0.384640  

    Virtual:                                                              

       3App    0.244360    11Ap     0.567280    12Ap     0.603924  
      13Ap     0.686361    14Ap     0.816893    15Ap     0.947000  

    Final Occupation by Irrep:
             Ap   App 
    DOCC [    10,    2 ]

  Energy converged.

  @RHF Final Energy:  -167.73526323392855

   => Energetics <=

    Nuclear Repulsion Energy =             71.0728637475374398
    One-Electron Energy =                -370.1165462949331868
    Two-Electron Energy =                 131.3084193134671978
    DFT Exchange-Correlation Energy =       0.0000000000000000
    Empirical Dispersion Energy =           0.0000000000000000
    PCM Polarization Energy =               0.0000000000000000
    EFP Energy =                            0.0000000000000000
    Total Energy =                       -167.7352632339285492

    Alert: EFP and PCM quantities not currently incorporated into SCF psivars.

Properties will be evaluated at   0.000000,   0.000000,   0.000000 Bohr

Properties computed using the SCF density matrix

  Nuclear Dipole Moment: (a.u.)
     X:    -0.5868      Y:    -2.9713      Z:     0.0000

  Electronic Dipole Moment: (a.u.)
     X:     0.2828      Y:     1.5001      Z:     0.0000

  Dipole Moment: (a.u.)
     X:    -0.3040      Y:    -1.4711      Z:     0.0000     Total:     1.5022

  Dipole Moment: (Debye)
     X:    -0.7727      Y:    -3.7392      Z:     0.0000     Total:     3.8182


*** tstop() called on psinet at Tue Feb 28 19:38:16 2017
Module time:
	user time   =       0.35 seconds =       0.01 minutes
	system time =       0.00 seconds =       0.00 minutes
	total time  =          0 seconds =       0.00 minutes
Total time:
	user time   =       1.05 seconds =       0.02 minutes
	system time =       0.02 seconds =       0.00 minutes
	total time  =          1 seconds =       0.02 minutes

*** tstart() called on psinet
*** at Tue Feb 28 19:38:16 2017


         ---------------------------------------------------------
                                   SCF
            by Justin Turney, Rob Parrish, and Andy Simmonett
                              RHF Reference
                        1 Threads,    200 MiB Core
         ---------------------------------------------------------

  ==> Geometry <==

    Molecular point group: cs
    Full point group: Cs

    Geometry (in Angstrom), charge = 0, multiplicity = 1:

       Center              X                  Y                   Z               Mass       
    ------------   -----------------  -----------------  -----------------  -----------------
           C          0.404387716114    -0.059433460705     0.000000000000    12.000000000000
           O         -0.162061283886    -1.150184460705     0.000000000000    15.994914619560
           N         -0.206491283886     1.135933539295     0.000000000000    14.003074004780
           H          0.350334716114     1.970485539295     0.000000000000     1.007825032070
           H         -1.227017283886     1.201231539295     0.000000000000     1.007825032070
           H          1.502799716114     0.007150539295     0.000000000000     1.007825032070

  Running in cs symmetry.

  Rotational constants: A =      2.46207  B =      0.37723  C =      0.32711 [cm^-1]
  Rotational constants: A =  73810.87452  B =  11308.94342  C =   9806.44724 [MHz]
  Nuclear repulsion =   71.072863747537440

  Charge       = 0
  Multiplicity = 1
  Electrons    = 24
  Nalpha       = 12
  Nbeta        = 12

  ==> Algorithm <==

  SCF Algorithm Type is PK.
  DIIS enabled.
  MOM disabled.
  Fractional occupation disabled.
  Guess Type is SAD.
  Energy threshold   = 1.00e-06
  Density threshold  = 1.00e-06
  Integral threshold = 0.00e+00

  ==> Primary Basis <==

  Basis Set: file /theoryfs2/ds/cdsgroup/psi4-compile/hrw-directclone/psi4/objdir3/stage/theoryfs2/ds/cdsgroup/psi4-compile/hrw-directclone/psi4/install-psi4-3/share/psi4/basis/minix.gbs
    Number of shells: 12
    Number of basis function: 18
    Number of Cartesian functions: 18
    Spherical Harmonics?: false
    Max angular momentum: 1

  ==> Pre-Iterations <==

   -------------------------------------------------------
    Irrep   Nso     Nmo     Nalpha   Nbeta   Ndocc  Nsocc
   -------------------------------------------------------
     A'        15      15       0       0       0       0
     A"         3       3       0       0       0       0
   -------------------------------------------------------
    Total      18      18      12      12      12       0
   -------------------------------------------------------

  ==> Integral Setup <==

  Using in-core PK algorithm.
   Calculation information:
      Number of atoms:                   6
      Number of AO shells:              12
      Number of primitives:             36
      Number of atomic orbitals:        18
      Number of basis functions:        18

      Integral cutoff                 1.00e-12
      Number of threads:                 1

  Performing in-core PK
  Using 29412 doubles for integral storage.
  We computed 2998 shell quartets total.
  Whereas there are 3081 unique shell quartets.
  ==> DiskJK: Disk-Based J/K Matrices <==

    J tasked:                  Yes
    K tasked:                  Yes
    wK tasked:                  No
    Memory (MB):               143
    Schwarz Cutoff:          1E-12

    OpenMP threads:              1
  Minimum eigenvalue in the overlap matrix is 2.2585825337E-01.
  Using Symmetric Orthogonalization.

  SCF Guess: Superposition of Atomic Densities via on-the-fly atomic UHF.

  ==> Iterations <==

                        Total Energy        Delta E     RMS |[F,P]|

   @RHF iter   0:  -168.08588865844374   -1.68086e+02   2.00560e-01 
   @RHF iter   1:  -167.62583341491489    4.60055e-01   2.47632e-02 
   @RHF iter   2:  -167.70243926766415   -7.66059e-02   1.56986e-02 DIIS
   @RHF iter   3:  -167.73344674090995   -3.10075e-02   2.19682e-03 DIIS
   @RHF iter   4:  -167.73514288776636   -1.69615e-03   5.45020e-04 DIIS
   @RHF iter   5:  -167.73525323738468   -1.10350e-04   1.63347e-04 DIIS
   @RHF iter   6:  -167.73526249627616   -9.25889e-06   4.99453e-05 DIIS
   @RHF iter   7:  -167.73526312649051   -6.30214e-07   1.77933e-05 DIIS
   @RHF iter   8:  -167.73526323002085   -1.03530e-07   3.45008e-06 DIIS
   @RHF iter   9:  -167.73526323392855   -3.90770e-09   2.07986e-07 DIIS

  ==> Post-Iterations <==

    Orbital Energies (a.u.)
    -----------------------

    Doubly Occupied:                                                      

       1Ap   -20.289332     2Ap   -15.438196     3Ap   -11.322018  
       4Ap    -1.369088     5Ap    -1.199192     6Ap    -0.837004  
       7Ap    -0.734741     8Ap    -0.652927     1App   -0.571364  
       9Ap    -0.549540    10Ap    -0.401810     2App   -0.384640  

    Virtual:                                                              

       3App    0.244360    11Ap     0.567280    12Ap     0.603924  
      13Ap     0.686361    14Ap     0.816893    15Ap     0.947000  

    Final Occupation by Irrep:
             Ap   App 
    DOCC [    10,    2 ]

  Energy converged.

  @RHF Final Energy:  -167.73526323392855

   => Energetics <=

    Nuclear Repulsion Energy =             71.0728637475374398
    One-Electron Energy =                -370.1165462949331868
    Two-Electron Energy =                 131.3084193134671978
    DFT Exchange-Correlation Energy =       0.0000000000000000
    Empirical Dispersion Energy =           0.0000000000000000
    PCM Polarization Energy =               0.0000000000000000
    EFP Energy =                            0.0000000000000000
    Total Energy =                       -167.7352632339285492

    Alert: EFP and PCM quantities not currently incorporated into SCF psivars.

Properties will be evaluated at   0.000000,   0.000000,   0.000000 Bohr

Properties computed using the SCF density matrix

  Nuclear Dipole Moment: (a.u.)
     X:     0.5868      Y:     2.9713      Z:     0.0000

  Electronic Dipole Moment: (a.u.)
     X:    -0.2828      Y:    -1.5001      Z:     0.0000

  Dipole Moment: (a.u.)
     X:     0.3040      Y:     1.4711      Z:     0.0000     Total:     1.5022

  Dipole Moment: (Debye)
     X:     0.7727      Y:     3.7392      Z:     0.0000     Total:     3.8182


*** tstop() called on psinet at Tue Feb 28 19:38:17 2017
Module time:
	user time   =       0.36 seconds =       0.01 minutes
	system time =       0.01 seconds =       0.00 minutes
	total time  =          1 seconds =       0.02 minutes
Total time:
	user time   =       1.41 seconds =       0.02 minutes
	system time =       0.03 seconds =       0.00 minutes
	total time  =          2 seconds =       0.03 minutes
	S22-4 di hf/minix.................................................PASSED
	S22-4 ma hf/minix.................................................PASSED
	S22-4 mb hf/minix.................................................PASSED
	HF-3c for S22-4...................................................PASSED

  ==> DFTD3 Output <==
  _________________________________
                                   
 |         DFTD3 V3.1 Rev 1        |
 | S.Grimme, University Bonn       |
 |         October  2015           |
 |   see dftd3 -h for options      |
  _________________________________
 
 Please cite DFT-D3 work done with this code as:
 S. Grimme, J. Antony, S. Ehrlich and H. Krieg,
 J. Chem. Phys. 132 (2010), 154104
 If used with BJ-damping cite also
 S. Grimme, S. Ehrlich and L. Goerigk,
 J. Comput. Chem. 32 (2011), 1456-1465
 For DFT-D2 the reference is
 S. Grimme, J. Comput. Chem., 27 (2006), 1787-1799
 For DFT-D3M or DFT-D3M(BJ) the reference is
 D.G.A. Smith, L.A. Burns, K. Patkowski, and 
 C.D. Sherrill, J. Phys. Chem. Lett. 7 (2016) 2197-2203
 
  files read :     
 ./dftd3_geometry.xyz
 .dftd3par.local
C6 coefficients used:
           2  C6 for element            1
Z=  1 CN= 0.912     C6(AA)=    3.03
Z=  1 CN= 0.000     C6(AA)=    7.59
           5  C6 for element            6
Z=  6 CN= 0.000     C6(AA)=   49.11
Z=  6 CN= 0.987     C6(AA)=   43.25
Z=  6 CN= 1.998     C6(AA)=   29.36
Z=  6 CN= 2.999     C6(AA)=   25.78
Z=  6 CN= 3.984     C6(AA)=   18.21

#               XYZ [au]               R0(AA) [Ang.]  CN       C6(AA)     C8(AA)   C10(AA) [au] 
   1   0.00026  -3.51330   0.00000   c     0.594    3.973        18.4       530.8     18806.2
   2  -0.96954  -2.82455  -1.67912   h     0.384    0.994         3.1        37.4       553.7
   3  -0.96954  -2.82455   1.67912   h     0.384    0.994         3.1        37.4       553.7
   4   1.93950  -2.82489   0.00000   h     0.384    0.994         3.1        37.4       553.7
   5  -0.00017  -5.57145   0.00000   h     0.384    0.994         3.1        37.4       553.8
   6  -0.00026   3.51330   0.00000   c     0.594    3.973        18.4       530.8     18806.2
   7   0.00017   5.57145   0.00000   h     0.384    0.994         3.1        37.4       553.8
   8   0.96954   2.82455  -1.67912   h     0.384    0.994         3.1        37.4       553.7
   9   0.96954   2.82455   1.67912   h     0.384    0.994         3.1        37.4       553.7
  10  -1.93950   2.82489   0.00000   h     0.384    0.994         3.1        37.4       553.7

molecular C6(AA) [au] =       510.61

           DFT-D V3(BJ)
 DF  none (read from parameter file)                  
 parameters
 s6       :    1.0000
 s8       :    0.8777
 a1       :    0.4171
 a2       :    2.9149
 k1-k3    :   16.0000    1.3333   -4.0000
 Cutoff   :   94.8683 a.u.
 CN-Cutoff:   40.0000 a.u.
 
 Edisp /kcal,au:   -11.2858 -0.01798501

 E6    /kcal :    -6.8614
 E8    /kcal :    -4.4244
 % E8        : 39.20
 
 doing analytical gradient O(N^2) ...
 
 |G|=  5.969202976296772E-003
gdisp time     0.0
 Cartesian gradient written to file dftd3_gradient
 normal termination of dftd3
  0.14898358158907E-07 -0.46193809764047E-03  0.20328790734103E-19
 -0.22710441493214E-03 -0.12979083557713E-03 -0.39320627785535E-03
 -0.22710441493214E-03 -0.12979083557713E-03  0.39320627785535E-03
  0.45424287175878E-03 -0.12972254412297E-03  0.00000000000000E+00
 -0.60279407970206E-07 -0.43841974013077E-03  0.13552527156069E-19
 -0.14898358158929E-07  0.46193809764047E-03 -0.11858461261560E-19
  0.60279407970200E-07  0.43841974013077E-03  0.00000000000000E+00
  0.22710441493214E-03  0.12979083557713E-03 -0.39320627785535E-03
  0.22710441493214E-03  0.12979083557713E-03  0.39320627785535E-03
 -0.45424287175878E-03  0.12972254412297E-03  0.00000000000000E+00


  ==> DFTD3 Output <==
  _________________________________
                                   
 |         DFTD3 V3.1 Rev 1        |
 | S.Grimme, University Bonn       |
 |         October  2015           |
 |   see dftd3 -h for options      |
  _________________________________
 
 Please cite DFT-D3 work done with this code as:
 S. Grimme, J. Antony, S. Ehrlich and H. Krieg,
 J. Chem. Phys. 132 (2010), 154104
 If used with BJ-damping cite also
 S. Grimme, S. Ehrlich and L. Goerigk,
 J. Comput. Chem. 32 (2011), 1456-1465
 For DFT-D2 the reference is
 S. Grimme, J. Comput. Chem., 27 (2006), 1787-1799
 For DFT-D3M or DFT-D3M(BJ) the reference is
 D.G.A. Smith, L.A. Burns, K. Patkowski, and 
 C.D. Sherrill, J. Phys. Chem. Lett. 7 (2016) 2197-2203
 
  files read :     
 ./dftd3_geometry.xyz
 .dftd3par.local
C6 coefficients used:
           2  C6 for element            1
Z=  1 CN= 0.912     C6(AA)=    3.03
Z=  1 CN= 0.000     C6(AA)=    7.59
           5  C6 for element            6
Z=  6 CN= 0.000     C6(AA)=   49.11
Z=  6 CN= 0.987     C6(AA)=   43.25
Z=  6 CN= 1.998     C6(AA)=   29.36
Z=  6 CN= 2.999     C6(AA)=   25.78
Z=  6 CN= 3.984     C6(AA)=   18.21

#               XYZ [au]               R0(AA) [Ang.]  CN       C6(AA)     C8(AA)   C10(AA) [au] 
   1   0.00005  -0.00049   0.00000   c     0.594    3.972        18.4       530.8     18807.2
   2  -0.96976   0.68827  -1.67912   h     0.384    0.994         3.1        37.4       553.8
   3  -0.96976   0.68827   1.67912   h     0.384    0.994         3.1        37.4       553.8
   4   1.93929   0.68792   0.00000   h     0.384    0.994         3.1        37.4       553.8
   5  -0.00038  -2.05863   0.00000   h     0.384    0.994         3.1        37.4       553.8

molecular C6(AA) [au] =       127.66

           DFT-D V3(BJ)
 DF  none (read from parameter file)                  
 parameters
 s6       :    1.0000
 s8       :    0.8777
 a1       :    0.4171
 a2       :    2.9149
 k1-k3    :   16.0000    1.3333   -4.0000
 Cutoff   :   94.8683 a.u.
 CN-Cutoff:   40.0000 a.u.
 
 Edisp /kcal,au:    -5.1684 -0.00823635

 E6    /kcal :    -3.0822
 E8    /kcal :    -2.0862
 % E8        : 40.36
 
 doing analytical gradient O(N^2) ...
 
 |G|=  2.259457983835685E-003
gdisp time     0.0
 Cartesian gradient written to file dftd3_gradient
 normal termination of dftd3
  0.40486171480095E-08 -0.29204067481181E-07 -0.67762635780344E-20
 -0.19276250697597E-03  0.13682062858242E-03 -0.33373192346880E-03
 -0.19276250697597E-03  0.13682062858242E-03  0.33373192346880E-03
  0.38558103023716E-03  0.13677073242988E-03  0.00000000000000E+00
 -0.60064902367954E-07 -0.41038278552725E-03  0.00000000000000E+00


  ==> DFTD3 Output <==
  _________________________________
                                   
 |         DFTD3 V3.1 Rev 1        |
 | S.Grimme, University Bonn       |
 |         October  2015           |
 |   see dftd3 -h for options      |
  _________________________________
 
 Please cite DFT-D3 work done with this code as:
 S. Grimme, J. Antony, S. Ehrlich and H. Krieg,
 J. Chem. Phys. 132 (2010), 154104
 If used with BJ-damping cite also
 S. Grimme, S. Ehrlich and L. Goerigk,
 J. Comput. Chem. 32 (2011), 1456-1465
 For DFT-D2 the reference is
 S. Grimme, J. Comput. Chem., 27 (2006), 1787-1799
 For DFT-D3M or DFT-D3M(BJ) the reference is
 D.G.A. Smith, L.A. Burns, K. Patkowski, and 
 C.D. Sherrill, J. Phys. Chem. Lett. 7 (2016) 2197-2203
 
  files read :     
 ./dftd3_geometry.xyz
 .dftd3par.local
C6 coefficients used:
           2  C6 for element            1
Z=  1 CN= 0.912     C6(AA)=    3.03
Z=  1 CN= 0.000     C6(AA)=    7.59
           5  C6 for element            6
Z=  6 CN= 0.000     C6(AA)=   49.11
Z=  6 CN= 0.987     C6(AA)=   43.25
Z=  6 CN= 1.998     C6(AA)=   29.36
Z=  6 CN= 2.999     C6(AA)=   25.78
Z=  6 CN= 3.984     C6(AA)=   18.21

#               XYZ [au]               R0(AA) [Ang.]  CN       C6(AA)     C8(AA)   C10(AA) [au] 
   1  -0.00005   0.00049   0.00000   c     0.594    3.972        18.4       530.8     18807.2
   2   0.00038   2.05863   0.00000   h     0.384    0.994         3.1        37.4       553.8
   3   0.96976  -0.68827  -1.67912   h     0.384    0.994         3.1        37.4       553.8
   4   0.96976  -0.68827   1.67912   h     0.384    0.994         3.1        37.4       553.8
   5  -1.93929  -0.68792   0.00000   h     0.384    0.994         3.1        37.4       553.8

molecular C6(AA) [au] =       127.66

           DFT-D V3(BJ)
 DF  none (read from parameter file)                  
 parameters
 s6       :    1.0000
 s8       :    0.8777
 a1       :    0.4171
 a2       :    2.9149
 k1-k3    :   16.0000    1.3333   -4.0000
 Cutoff   :   94.8683 a.u.
 CN-Cutoff:   40.0000 a.u.
 
 Edisp /kcal,au:    -5.1684 -0.00823635

 E6    /kcal :    -3.0822
 E8    /kcal :    -2.0862
 % E8        : 40.36
 
 doing analytical gradient O(N^2) ...
 
 |G|=  2.259457983835686E-003
gdisp time     0.0
 Cartesian gradient written to file dftd3_gradient
 normal termination of dftd3
 -0.40486171480190E-08  0.29204067481178E-07 -0.67762635780344E-20
  0.60064902367954E-07  0.41038278552725E-03  0.00000000000000E+00
  0.19276250697597E-03 -0.13682062858242E-03 -0.33373192346880E-03
  0.19276250697597E-03 -0.13682062858242E-03  0.33373192346880E-03
 -0.38558103023716E-03 -0.13677073242988E-03  0.00000000000000E+00


  ==> GCP Output <==
  ___________________________________________ 
                                              
 |              **  g C P  **                |
 |  a geometrical counterpoise correction    |
 |     H.Kruse J.G.Brandenburg S.Grimme      |
 |          Version 2.01 Sep 2015            |
 |                                           |
  ___________________________________________ 
 
 Please cite work done with this code as:
 H. Kruse, S. Grimme J. Chem. Phys. 136, 154101 (2012)
 DOI: 10.1063/1.3700154 
 For the periodic version, please also cite:
 J. G. Brandenburg, M. Alessio, B. Civalleri, M. F. Peintinger
 T. Bredow, S.Grimme J. Phys. Chem. A 117, 9282-9292 (2013).
 DOI: 10.1021/jp406658y 
 
 
 reading...      XYZ file [angst]: ./gcp_geometry.xyz
  Perform special gCP-SRB correction for HF-3c 
 
  level            hf3c  
  Nbf                18
  Atoms              10
 
  Parameters: 
  sigma         0.1290
  eta           1.1526
  alpha         1.1549
  beta          1.1763
 
  
 element parameters hf3c
  elem   emiss   nbas    elem   emiss   nbas    elem   emiss   nbas
    h    0.04240    1      he   0.02832    1      li   0.17787    5
    be   0.17160    5      b    0.22424    5      c    0.27995    5
    n    0.35791    5      o    0.47901    5      f    0.63852    5
    ne   0.83235    5      na   1.11411    9      mg   1.27115    9
    al   1.44695   14      si   1.61098   14      p    1.76661   14
    s    1.98823   14      cl   2.22845   14      ar   2.48796   14
    k    0.37425   11      ca   0.46097   11      sc   0.44489   21
    ti   0.40499   21      v    0.37841   21      cr   0.37344   21
    mn   0.36125   21      fe   0.36001   21      co   0.36293   21
    ni   0.24380   21      cu   0.40530   21      zn   0.39651   21
    ga   0.35002   32      ge   0.34578   32      as   0.34953   32
    se   0.36731   32      br   0.38201   32      kr   0.39971   32
  
   
 cutoffs: 
   distance [bohr] 60.0
   noise    [a.u.] 2.2E-16
   SR-damping      F
   
      #     ON  sites    Nvirt           Emiss    BSSE [kcal/mol]
      1      6      9      2.0          0.2799         13.3172
      2      1      9      0.5          0.0424          0.6020
      3      1      9      0.5          0.0424          0.6020
      4      1      9      0.5          0.0424          0.6019
      5      1      9      0.5          0.0424          0.5905
      6      6      9      2.0          0.2799         13.3172
      7      1      9      0.5          0.0424          0.5905
      8      1      9      0.5          0.0424          0.6020
      9      1      9      0.5          0.0424          0.6020
     10      1      9      0.5          0.0424          0.6019
cpu-time for gradient    0.0 s
                 
 ** gCP correction ** 
  Egcp:        0.0122408821 / (a.u.) ||       7.6813 / (kcal/mol)
                 
 |G|=  3.104775063731467E-002
 no gradient file found to add G(gcp)!
 hence written to file gcp_gradient
cpu-time for gCP    0.0 s
 
     normal termination of gCP
  0.21977754701731E-05  0.75721653955805E-04  0.27961489325106E-18
 -0.12994263155081E-02  0.99422466490979E-03 -0.22493527304142E-02
 -0.12994263155081E-02  0.99422466490979E-03  0.22493527304142E-02
  0.25973888594450E-02  0.99353451419858E-03  0.00000000000000E+00
 -0.72579489328167E-06 -0.27682992990302E-02  0.00000000000000E+00
 -0.21977754701739E-05 -0.75721653955807E-04  0.27972416050126E-18
  0.72579489328166E-06  0.27682992990302E-02  0.00000000000000E+00
  0.12994263155081E-02 -0.99422466490979E-03 -0.22493527304142E-02
  0.12994263155081E-02 -0.99422466490979E-03  0.22493527304142E-02
 -0.25973888594450E-02 -0.99353451419858E-03  0.00000000000000E+00


  ==> GCP Output <==
  ___________________________________________ 
                                              
 |              **  g C P  **                |
 |  a geometrical counterpoise correction    |
 |     H.Kruse J.G.Brandenburg S.Grimme      |
 |          Version 2.01 Sep 2015            |
 |                                           |
  ___________________________________________ 
 
 Please cite work done with this code as:
 H. Kruse, S. Grimme J. Chem. Phys. 136, 154101 (2012)
 DOI: 10.1063/1.3700154 
 For the periodic version, please also cite:
 J. G. Brandenburg, M. Alessio, B. Civalleri, M. F. Peintinger
 T. Bredow, S.Grimme J. Phys. Chem. A 117, 9282-9292 (2013).
 DOI: 10.1021/jp406658y 
 
 
 reading...      XYZ file [angst]: ./gcp_geometry.xyz
  Perform special gCP-SRB correction for HF-3c 
 
  level            hf3c  
  Nbf                 9
  Atoms               5
 
  Parameters: 
  sigma         0.1290
  eta           1.1526
  alpha         1.1549
  beta          1.1763
 
  
 element parameters hf3c
  elem   emiss   nbas    elem   emiss   nbas    elem   emiss   nbas
    h    0.04240    1      he   0.02832    1      li   0.17787    5
    be   0.17160    5      b    0.22424    5      c    0.27995    5
    n    0.35791    5      o    0.47901    5      f    0.63852    5
    ne   0.83235    5      na   1.11411    9      mg   1.27115    9
    al   1.44695   14      si   1.61098   14      p    1.76661   14
    s    1.98823   14      cl   2.22845   14      ar   2.48796   14
    k    0.37425   11      ca   0.46097   11      sc   0.44489   21
    ti   0.40499   21      v    0.37841   21      cr   0.37344   21
    mn   0.36125   21      fe   0.36001   21      co   0.36293   21
    ni   0.24380   21      cu   0.40530   21      zn   0.39651   21
    ga   0.35002   32      ge   0.34578   32      as   0.34953   32
    se   0.36731   32      br   0.38201   32      kr   0.39971   32
  
   
 cutoffs: 
   distance [bohr] 60.0
   noise    [a.u.] 2.2E-16
   SR-damping      F
   
      #     ON  sites    Nvirt           Emiss    BSSE [kcal/mol]
      1      6      4      2.0          0.2799         13.2746
      2      1      4      0.5          0.0424          0.5913
      3      1      4      0.5          0.0424          0.5913
      4      1      4      0.5          0.0424          0.5911
      5      1      4      0.5          0.0424          0.5901
cpu-time for gradient    0.0 s
                 
 ** gCP correction ** 
  Egcp:        0.0060016797 / (a.u.) ||       3.7661 / (kcal/mol)
                 
 |G|=  1.534296198736844E-002
 no gradient file found to add G(gcp)!
 hence written to file gcp_gradient
cpu-time for gCP    0.0 s
 
     normal termination of gCP
  0.21971718154097E-05 -0.20252693016124E-04  0.16783449630076E-18
 -0.13078231145657E-02  0.93062311180725E-03 -0.22638940215290E-02
 -0.13078231145657E-02  0.93062311180725E-03  0.22638940215290E-02
  0.26141749163655E-02  0.92996866035981E-03  0.00000000000000E+00
 -0.72585904950993E-06 -0.27709621909582E-02  0.00000000000000E+00


  ==> GCP Output <==
  ___________________________________________ 
                                              
 |              **  g C P  **                |
 |  a geometrical counterpoise correction    |
 |     H.Kruse J.G.Brandenburg S.Grimme      |
 |          Version 2.01 Sep 2015            |
 |                                           |
  ___________________________________________ 
 
 Please cite work done with this code as:
 H. Kruse, S. Grimme J. Chem. Phys. 136, 154101 (2012)
 DOI: 10.1063/1.3700154 
 For the periodic version, please also cite:
 J. G. Brandenburg, M. Alessio, B. Civalleri, M. F. Peintinger
 T. Bredow, S.Grimme J. Phys. Chem. A 117, 9282-9292 (2013).
 DOI: 10.1021/jp406658y 
 
 
 reading...      XYZ file [angst]: ./gcp_geometry.xyz
  Perform special gCP-SRB correction for HF-3c 
 
  level            hf3c  
  Nbf                 9
  Atoms               5
 
  Parameters: 
  sigma         0.1290
  eta           1.1526
  alpha         1.1549
  beta          1.1763
 
  
 element parameters hf3c
  elem   emiss   nbas    elem   emiss   nbas    elem   emiss   nbas
    h    0.04240    1      he   0.02832    1      li   0.17787    5
    be   0.17160    5      b    0.22424    5      c    0.27995    5
    n    0.35791    5      o    0.47901    5      f    0.63852    5
    ne   0.83235    5      na   1.11411    9      mg   1.27115    9
    al   1.44695   14      si   1.61098   14      p    1.76661   14
    s    1.98823   14      cl   2.22845   14      ar   2.48796   14
    k    0.37425   11      ca   0.46097   11      sc   0.44489   21
    ti   0.40499   21      v    0.37841   21      cr   0.37344   21
    mn   0.36125   21      fe   0.36001   21      co   0.36293   21
    ni   0.24380   21      cu   0.40530   21      zn   0.39651   21
    ga   0.35002   32      ge   0.34578   32      as   0.34953   32
    se   0.36731   32      br   0.38201   32      kr   0.39971   32
  
   
 cutoffs: 
   distance [bohr] 60.0
   noise    [a.u.] 2.2E-16
   SR-damping      F
   
      #     ON  sites    Nvirt           Emiss    BSSE [kcal/mol]
      1      6      4      2.0          0.2799         13.2746
      2      1      4      0.5          0.0424          0.5901
      3      1      4      0.5          0.0424          0.5913
      4      1      4      0.5          0.0424          0.5913
      5      1      4      0.5          0.0424          0.5911
cpu-time for gradient    0.0 s
                 
 ** gCP correction ** 
  Egcp:        0.0060016797 / (a.u.) ||       3.7661 / (kcal/mol)
                 
 |G|=  1.534296198736844E-002
 no gradient file found to add G(gcp)!
 hence written to file gcp_gradient
cpu-time for gCP    0.0 s
 
     normal termination of gCP
 -0.21971718154108E-05  0.20252693016124E-04  0.16783449630076E-18
  0.72585904950993E-06  0.27709621909582E-02  0.00000000000000E+00
  0.13078231145657E-02 -0.93062311180725E-03 -0.22638940215290E-02
  0.13078231145657E-02 -0.93062311180725E-03  0.22638940215290E-02
 -0.26141749163655E-02 -0.92996866035981E-03  0.00000000000000E+00


*** tstart() called on psinet
*** at Tue Feb 28 19:38:17 2017


         ---------------------------------------------------------
                                   SCF
            by Justin Turney, Rob Parrish, and Andy Simmonett
                              RHF Reference
                        1 Threads,    200 MiB Core
         ---------------------------------------------------------

  ==> Geometry <==

    Molecular point group: c2h
    Full point group: C2h

    Geometry (in Angstrom), charge = 0, multiplicity = 1:

       Center              X                  Y                   Z               Mass       
    ------------   -----------------  -----------------  -----------------  -----------------
           C          0.000140000000    -1.859161000000     0.000000000000    12.000000000000
           H         -0.513060000000    -1.494685000000    -0.888551000000     1.007825032070
           H         -0.513060000000    -1.494685000000     0.888551000000     1.007825032070
           H          1.026339000000    -1.494868000000     0.000000000000     1.007825032070
           H         -0.000089000000    -2.948284000000     0.000000000000     1.007825032070
           C         -0.000140000000     1.859161000000     0.000000000000    12.000000000000
           H          0.000089000000     2.948284000000     0.000000000000     1.007825032070
           H          0.513060000000     1.494685000000    -0.888551000000     1.007825032070
           H          0.513060000000     1.494685000000     0.888551000000     1.007825032070
           H         -1.026339000000     1.494868000000     0.000000000000     1.007825032070

  Running in c2h symmetry.

  Rotational constants: A =      2.64758  B =      0.14387  C =      0.14387 [cm^-1]
  Rotational constants: A =  79372.32729  B =   4313.22629  C =   4313.16789 [MHz]
  Nuclear repulsion =   41.000263795263322

  Charge       = 0
  Multiplicity = 1
  Electrons    = 20
  Nalpha       = 10
  Nbeta        = 10

  ==> Algorithm <==

  SCF Algorithm Type is PK.
  DIIS enabled.
  MOM disabled.
  Fractional occupation disabled.
  Guess Type is SAD.
  Energy threshold   = 1.00e-06
  Density threshold  = 1.00e-06
  Integral threshold = 0.00e+00

  ==> Primary Basis <==

  Basis Set: file /theoryfs2/ds/cdsgroup/psi4-compile/hrw-directclone/psi4/objdir3/stage/theoryfs2/ds/cdsgroup/psi4-compile/hrw-directclone/psi4/install-psi4-3/share/psi4/basis/minix.gbs
    Number of shells: 14
    Number of basis function: 18
    Number of Cartesian functions: 18
    Spherical Harmonics?: false
    Max angular momentum: 1

  ==> Pre-Iterations <==

   -------------------------------------------------------
    Irrep   Nso     Nmo     Nalpha   Nbeta   Ndocc  Nsocc
   -------------------------------------------------------
     Ag         7       7       0       0       0       0
     Bg         2       2       0       0       0       0
     Au         2       2       0       0       0       0
     Bu         7       7       0       0       0       0
   -------------------------------------------------------
    Total      18      18      10      10      10       0
   -------------------------------------------------------

  ==> Integral Setup <==

  Using in-core PK algorithm.
   Calculation information:
      Number of atoms:                  10
      Number of AO shells:              14
      Number of primitives:             42
      Number of atomic orbitals:        18
      Number of basis functions:        18

      Integral cutoff                 1.00e-12
      Number of threads:                 1

  Performing in-core PK
  Using 29412 doubles for integral storage.
  We computed 5414 shell quartets total.
  Whereas there are 5565 unique shell quartets.
  ==> DiskJK: Disk-Based J/K Matrices <==

    J tasked:                  Yes
    K tasked:                  Yes
    wK tasked:                  No
    Memory (MB):               143
    Schwarz Cutoff:          1E-12

    OpenMP threads:              1
  Minimum eigenvalue in the overlap matrix is 2.1512089372E-01.
  Using Symmetric Orthogonalization.

  SCF Guess: Superposition of Atomic Densities via on-the-fly atomic UHF.

  ==> Iterations <==

                        Total Energy        Delta E     RMS |[F,P]|

   @RHF iter   0:   -78.93785793309367   -7.89379e+01   1.99941e-01 
   @RHF iter   1:   -79.82646470855624   -8.88607e-01   2.15180e-02 
   @RHF iter   2:   -79.87201739055421   -4.55527e-02   5.04122e-03 DIIS
   @RHF iter   3:   -79.87447005555168   -2.45266e-03   5.38555e-04 DIIS
   @RHF iter   4:   -79.87449678728964   -2.67317e-05   1.08671e-04 DIIS
   @RHF iter   5:   -79.87449809946132   -1.31217e-06   9.44701e-06 DIIS
   @RHF iter   6:   -79.87449810947669   -1.00154e-08   1.12108e-06 DIIS
   @RHF iter   7:   -79.87449810960315   -1.26462e-10   4.23713e-08 DIIS

  ==> Post-Iterations <==

    Orbital Energies (a.u.)
    -----------------------

    Doubly Occupied:                                                      

       1Bu   -11.132455     1Ag   -11.132405     2Ag    -0.944217  
       2Bu    -0.939275     3Ag    -0.551725     3Bu    -0.547807  
       1Au    -0.547744     4Ag    -0.542874     1Bg    -0.542809  
       4Bu    -0.539295  

    Virtual:                                                              

       5Ag     0.697328     2Au     0.700467     5Bu     0.700619  
       2Bg     0.704210     6Ag     0.704361     6Bu     0.709597  
       7Ag     0.783295     7Bu     0.792040  

    Final Occupation by Irrep:
             Ag    Bg    Au    Bu 
    DOCC [     4,    1,    1,    4 ]

  Energy converged.

  @RHF Final Energy:   -79.87449810960315

   => Energetics <=

    Nuclear Repulsion Energy =             41.0002637952633222
    One-Electron Energy =                -186.9083111799282619
    Two-Electron Energy =                  66.0335492750617874
    DFT Exchange-Correlation Energy =       0.0000000000000000
    Empirical Dispersion Energy =           0.0000000000000000
    PCM Polarization Energy =               0.0000000000000000
    EFP Energy =                            0.0000000000000000
    Total Energy =                        -79.8744981096031523

    Alert: EFP and PCM quantities not currently incorporated into SCF psivars.

Properties will be evaluated at   0.000000,   0.000000,   0.000000 Bohr

Properties computed using the SCF density matrix

  Nuclear Dipole Moment: (a.u.)
     X:    -0.0000      Y:    -0.0000      Z:     0.0000

  Electronic Dipole Moment: (a.u.)
     X:     0.0000      Y:     0.0000      Z:     0.0000

  Dipole Moment: (a.u.)
     X:    -0.0000      Y:    -0.0000      Z:     0.0000     Total:     0.0000

  Dipole Moment: (Debye)
     X:    -0.0000      Y:    -0.0000      Z:     0.0000     Total:     0.0000


*** tstop() called on psinet at Tue Feb 28 19:38:17 2017
Module time:
	user time   =       0.39 seconds =       0.01 minutes
	system time =       0.01 seconds =       0.00 minutes
	total time  =          0 seconds =       0.00 minutes
Total time:
	user time   =       1.81 seconds =       0.03 minutes
	system time =       0.04 seconds =       0.00 minutes
	total time  =          2 seconds =       0.03 minutes

*** tstart() called on psinet
*** at Tue Feb 28 19:38:17 2017


         ---------------------------------------------------------
                                   SCF
            by Justin Turney, Rob Parrish, and Andy Simmonett
                              RHF Reference
                        1 Threads,    200 MiB Core
         ---------------------------------------------------------

  ==> Geometry <==

    Molecular point group: cs
    Full point group: Cs

    Geometry (in Angstrom), charge = 0, multiplicity = 1:

       Center              X                  Y                   Z               Mass       
    ------------   -----------------  -----------------  -----------------  -----------------
           C          0.000027032415    -0.000259133991     0.000000000000    12.000000000000
           H         -0.513172967585     0.364216866009    -0.888551000000     1.007825032070
           H         -0.513172967585     0.364216866009     0.888551000000     1.007825032070
           H          1.026226032415     0.364033866009     0.000000000000     1.007825032070
           H         -0.000201967585    -1.089382133991     0.000000000000     1.007825032070

  Running in cs symmetry.

  Rotational constants: A =      5.29515  B =      5.28720  C =      5.28589 [cm^-1]
  Rotational constants: A = 158744.65592  B = 158506.31590  C = 158466.88882 [MHz]
  Nuclear repulsion =   13.448042265558403

  Charge       = 0
  Multiplicity = 1
  Electrons    = 10
  Nalpha       = 5
  Nbeta        = 5

  ==> Algorithm <==

  SCF Algorithm Type is PK.
  DIIS enabled.
  MOM disabled.
  Fractional occupation disabled.
  Guess Type is SAD.
  Energy threshold   = 1.00e-06
  Density threshold  = 1.00e-06
  Integral threshold = 0.00e+00

  ==> Primary Basis <==

  Basis Set: file /theoryfs2/ds/cdsgroup/psi4-compile/hrw-directclone/psi4/objdir3/stage/theoryfs2/ds/cdsgroup/psi4-compile/hrw-directclone/psi4/install-psi4-3/share/psi4/basis/minix.gbs
    Number of shells: 7
    Number of basis function: 9
    Number of Cartesian functions: 9
    Spherical Harmonics?: false
    Max angular momentum: 1

  ==> Pre-Iterations <==

   -------------------------------------------------------
    Irrep   Nso     Nmo     Nalpha   Nbeta   Ndocc  Nsocc
   -------------------------------------------------------
     A'         7       7       0       0       0       0
     A"         2       2       0       0       0       0
   -------------------------------------------------------
    Total       9       9       5       5       5       0
   -------------------------------------------------------

  ==> Integral Setup <==

  Using in-core PK algorithm.
   Calculation information:
      Number of atoms:                   5
      Number of AO shells:               7
      Number of primitives:             21
      Number of atomic orbitals:         9
      Number of basis functions:         9

      Integral cutoff                 1.00e-12
      Number of threads:                 1

  Performing in-core PK
  Using 2070 doubles for integral storage.
  We computed 406 shell quartets total.
  Whereas there are 406 unique shell quartets.
  ==> DiskJK: Disk-Based J/K Matrices <==

    J tasked:                  Yes
    K tasked:                  Yes
    wK tasked:                  No
    Memory (MB):               143
    Schwarz Cutoff:          1E-12

    OpenMP threads:              1
  Minimum eigenvalue in the overlap matrix is 2.1546116613E-01.
  Using Symmetric Orthogonalization.

  SCF Guess: Superposition of Atomic Densities via on-the-fly atomic UHF.

  ==> Iterations <==

                        Total Energy        Delta E     RMS |[F,P]|

   @RHF iter   0:   -39.46890210286389   -3.94689e+01   1.99946e-01 
   @RHF iter   1:   -39.91350196336104   -4.44600e-01   2.14689e-02 
   @RHF iter   2:   -39.93621455001625   -2.27126e-02   5.00959e-03 DIIS
   @RHF iter   3:   -39.93741934307924   -1.20479e-03   5.33935e-04 DIIS
   @RHF iter   4:   -39.93743245529920   -1.31122e-05   1.09147e-04 DIIS
   @RHF iter   5:   -39.93743311989883   -6.64600e-07   8.85687e-06 DIIS
   @RHF iter   6:   -39.93743312425376   -4.35492e-09   1.16518e-06 DIIS
   @RHF iter   7:   -39.93743312432282   -6.90648e-11   2.23790e-08 DIIS

  ==> Post-Iterations <==

    Orbital Energies (a.u.)
    -----------------------

[...]

   @RHF iter   0:  -461.49613850722278   -4.61496e+02   1.49744e-01 
   @RHF iter   1:  -458.09196170078098    3.40418e+00   1.08544e-02 
   @RHF iter   2:  -458.23863904965299   -1.46677e-01   2.71457e-03 DIIS
   @RHF iter   3:  -458.24806171963940   -9.42267e-03   5.63840e-04 DIIS
   @RHF iter   4:  -458.24836132217769   -2.99603e-04   9.12724e-05 DIIS
   @RHF iter   5:  -458.24836958141623   -8.25924e-06   1.51268e-05 DIIS
   @RHF iter   6:  -458.24836985460468   -2.73188e-07   4.87923e-06 DIIS
   @RHF iter   7:  -458.24836988960601   -3.50013e-08   1.60690e-06 DIIS
   @RHF iter   8:  -458.24836989859091   -8.98490e-09   6.22909e-07 DIIS

  ==> Post-Iterations <==

    Orbital Energies (a.u.)
    -----------------------

    Doubly Occupied:                                                      

       1B1   -11.179999     1A1   -11.179437     1A2   -11.179399  
       2B1   -11.177919     1B2   -11.177880     2A1   -11.176502  
       3A1   -11.171239     2B2   -11.170597     4A1   -11.169550  
       3B2   -11.168566     5A1   -11.168325     6A1   -11.165853  
       7A1    -1.162812     8A1    -1.152638     4B2    -1.022603  
       3B1    -1.022442     5B2    -1.013339     9A1    -1.012939  
       2A2    -0.824895    10A1    -0.824833     6B2    -0.816162  
      11A1    -0.815884    12A1    -0.716238    13A1    -0.707181  
       4B1    -0.640964    14A1    -0.633009     7B2    -0.617109  
       8B2    -0.608103     9B2    -0.591692     5B1    -0.591514  
      15A1    -0.584707    10B2    -0.582876    16A1    -0.523836  
       6B1    -0.515650     3A2    -0.488439    17A1    -0.488330  
      11B2    -0.479567    18A1    -0.475863     7B1    -0.353559  
      12B2    -0.352863     4A2    -0.343751     8B1    -0.341702  

    Virtual:                                                              

       5A2     0.183398    19A1     0.183721     6A2     0.192560  
       9B1     0.193522    10B1     0.426543    11B1     0.436013  
      20A1     0.561884    21A1     0.571677    13B2     0.640175  
      12B1     0.640694    14B2     0.647846    22A1     0.652906  
       7A2     0.681029    23A1     0.681418    13B1     0.686345  
      15B2     0.689742    24A1     0.691188    25A1     0.697520  
      14B1     0.871303    16B2     0.871419     8A2     0.878927  
      26A1     0.879029    27A1     0.880885    17B2     0.880983  
      18B2     0.887536    28A1     0.891380     9A2     1.049302  
      19B2     1.058888    15B1     1.123375    29A1     1.133744  

    Final Occupation by Irrep:
             A1    A2    B1    B2 
    DOCC [    18,    4,    8,   12 ]

  Energy converged.

  @RHF Final Energy:  -458.24836989859091

   => Energetics <=

    Nuclear Repulsion Energy =            592.4166452852708744
    One-Electron Energy =               -1792.5485143198288824
    Two-Electron Energy =                 741.8834991359669857
    DFT Exchange-Correlation Energy =       0.0000000000000000
    Empirical Dispersion Energy =           0.0000000000000000
    PCM Polarization Energy =               0.0000000000000000
    EFP Energy =                            0.0000000000000000
    Total Energy =                       -458.2483698985909086

    Alert: EFP and PCM quantities not currently incorporated into SCF psivars.

Properties will be evaluated at   0.000000,   0.000000,   0.000000 Bohr

Properties computed using the SCF density matrix

  Nuclear Dipole Moment: (a.u.)
     X:    -0.0000      Y:     0.0000      Z:     0.0075

  Electronic Dipole Moment: (a.u.)
     X:     0.0000      Y:     0.0000      Z:    -0.1028

  Dipole Moment: (a.u.)
     X:    -0.0000      Y:     0.0000      Z:    -0.0952     Total:     0.0952

  Dipole Moment: (Debye)
     X:    -0.0000      Y:     0.0000      Z:    -0.2420     Total:     0.2420


*** tstop() called on psinet at Tue Feb 28 19:38:24 2017
Module time:
	user time   =       2.80 seconds =       0.05 minutes
	system time =       0.05 seconds =       0.00 minutes
	total time  =          3 seconds =       0.05 minutes
Total time:
	user time   =       7.93 seconds =       0.13 minutes
	system time =       0.17 seconds =       0.00 minutes
	total time  =          9 seconds =       0.15 minutes

*** tstart() called on psinet
*** at Tue Feb 28 19:38:24 2017


         ---------------------------------------------------------
                                   SCF
            by Justin Turney, Rob Parrish, and Andy Simmonett
                              RHF Reference
                        1 Threads,    200 MiB Core
         ---------------------------------------------------------

  ==> Geometry <==

    Molecular point group: c2v
    Full point group: C2v

    Geometry (in Angstrom), charge = 0, multiplicity = 1:

       Center              X                  Y                   Z               Mass       
    ------------   -----------------  -----------------  -----------------  -----------------
           C         -0.000000000000     0.000000000000    -1.395285998033    12.000000000000
           C          0.000000000000    -1.206008400000    -0.696647098033    12.000000000000
           C          0.000000000000    -1.207176700000     0.697269201967    12.000000000000
           C         -0.000000000000     0.000000000000     1.394253801967    12.000000000000
           C         -0.000000000000     1.207176700000     0.697269201967    12.000000000000
           C         -0.000000000000     1.206008400000    -0.696647098033    12.000000000000
           H         -0.000000000000     0.000000000000    -2.475901798033     1.007825032070
           H          0.000000000000    -2.141638700000    -1.239899598033     1.007825032070
           H          0.000000000000    -2.143565700000     1.238674001967     1.007825032070
           H         -0.000000000000     0.000000000000     2.475828601967     1.007825032070
           H         -0.000000000000     2.143565700000     1.238674001967     1.007825032070
           H         -0.000000000000     2.141638700000    -1.239899598033     1.007825032070

  Running in c2v symmetry.

  Rotational constants: A =      0.19072  B =      0.19037  C =      0.09527 [cm^-1]
  Rotational constants: A =   5717.71799  B =   5707.11891  C =   2856.20677 [MHz]
  Nuclear repulsion =  203.681438992475677

  Charge       = 0
  Multiplicity = 1
  Electrons    = 42
  Nalpha       = 21
  Nbeta        = 21

  ==> Algorithm <==

  SCF Algorithm Type is PK.
  DIIS enabled.
  MOM disabled.
  Fractional occupation disabled.
  Guess Type is SAD.
  Energy threshold   = 1.00e-06
  Density threshold  = 1.00e-06
  Integral threshold = 0.00e+00

  ==> Primary Basis <==

  Basis Set: file /theoryfs2/ds/cdsgroup/psi4-compile/hrw-directclone/psi4/objdir3/stage/theoryfs2/ds/cdsgroup/psi4-compile/hrw-directclone/psi4/install-psi4-3/share/psi4/basis/minix.gbs
    Number of shells: 24
    Number of basis function: 36
    Number of Cartesian functions: 36
    Spherical Harmonics?: false
    Max angular momentum: 1

  ==> Pre-Iterations <==

   -------------------------------------------------------
    Irrep   Nso     Nmo     Nalpha   Nbeta   Ndocc  Nsocc
   -------------------------------------------------------
     A1        18      18       0       0       0       0
     A2         2       2       0       0       0       0
     B1         4       4       0       0       0       0
     B2        12      12       0       0       0       0
   -------------------------------------------------------
    Total      36      36      21      21      21       0
   -------------------------------------------------------

  ==> Integral Setup <==

  Using in-core PK algorithm.
   Calculation information:
      Number of atoms:                  12
      Number of AO shells:              24
      Number of primitives:             72
      Number of atomic orbitals:        36
      Number of basis functions:        36

      Integral cutoff                 1.00e-12
      Number of threads:                 1

  Performing in-core PK
  Using 444222 doubles for integral storage.
  We computed 42339 shell quartets total.
  Whereas there are 45150 unique shell quartets.
  ==> DiskJK: Disk-Based J/K Matrices <==

    J tasked:                  Yes
    K tasked:                  Yes
    wK tasked:                  No
    Memory (MB):               143
    Schwarz Cutoff:          1E-12

    OpenMP threads:              1
  Minimum eigenvalue in the overlap matrix is 1.7119953012E-01.
  Using Symmetric Orthogonalization.

  SCF Guess: Superposition of Atomic Densities via on-the-fly atomic UHF.

  ==> Iterations <==

                        Total Energy        Delta E     RMS |[F,P]|

   @RHF iter   0:  -229.55032584071381   -2.29550e+02   1.75722e-01 
   @RHF iter   1:  -228.99803336235379    5.52292e-01   1.73109e-02 
   @RHF iter   2:  -229.11659289485823   -1.18560e-01   4.45361e-03 DIIS
   @RHF iter   3:  -229.12459073055919   -7.99784e-03   9.87280e-04 DIIS
   @RHF iter   4:  -229.12487699185218   -2.86261e-04   1.15611e-04 DIIS
   @RHF iter   5:  -229.12488097696379   -3.98511e-06   1.29007e-05 DIIS
   @RHF iter   6:  -229.12488106272295   -8.57592e-08   2.46859e-06 DIIS
   @RHF iter   7:  -229.12488106666660   -3.94365e-09   7.98255e-07 DIIS

  ==> Post-Iterations <==

    Orbital Energies (a.u.)
    -----------------------

    Doubly Occupied:                                                      

       1A1   -11.176798     2A1   -11.176223     1B2   -11.176208  
       3A1   -11.174706     2B2   -11.174691     4A1   -11.173274  
       5A1    -1.158374     6A1    -1.019068     3B2    -1.018664  
       4B2    -0.821781     7A1    -0.821641     8A1    -0.712655  
       9A1    -0.638184     5B2    -0.613940    10A1    -0.588498  
       6B2    -0.587998     1B1    -0.521111    11A1    -0.485739  
       7B2    -0.484918     2B1    -0.348858     1A2    -0.348691  

    Virtual:                                                              

       3B1     0.187264     2A2     0.187378     4B1     0.430226  
      12A1     0.564508     8B2     0.642694    13A1     0.644057  
       9B2     0.684129    14A1     0.685496    15A1     0.689522  
      16A1     0.874599    10B2     0.874801    17A1     0.882105  
      11B2     0.882205    12B2     1.052830    18A1     1.127225  

    Final Occupation by Irrep:
             A1    A2    B1    B2 
    DOCC [    11,    1,    2,    7 ]

  Energy converged.

  @RHF Final Energy:  -229.12488106666660

   => Energetics <=

    Nuclear Repulsion Energy =            203.6814389924756767
    One-Electron Energy =                -711.1686057820427322
    Two-Electron Energy =                 278.3622857229004239
    DFT Exchange-Correlation Energy =       0.0000000000000000
    Empirical Dispersion Energy =           0.0000000000000000
    PCM Polarization Energy =               0.0000000000000000
    EFP Energy =                            0.0000000000000000
    Total Energy =                       -229.1248810666666031

    Alert: EFP and PCM quantities not currently incorporated into SCF psivars.

Properties will be evaluated at   0.000000,   0.000000,   0.000000 Bohr

Properties computed using the SCF density matrix

  Nuclear Dipole Moment: (a.u.)
     X:     0.0000      Y:     0.0000      Z:    -0.0024

  Electronic Dipole Moment: (a.u.)
     X:     0.0000      Y:     0.0000      Z:     0.0023

  Dipole Moment: (a.u.)
     X:     0.0000      Y:     0.0000      Z:    -0.0001     Total:     0.0001

  Dipole Moment: (Debye)
     X:     0.0000      Y:     0.0000      Z:    -0.0003     Total:     0.0003


*** tstop() called on psinet at Tue Feb 28 19:38:25 2017
Module time:
	user time   =       0.60 seconds =       0.01 minutes
	system time =       0.01 seconds =       0.00 minutes
	total time  =          1 seconds =       0.02 minutes
Total time:
	user time   =       8.53 seconds =       0.14 minutes
	system time =       0.18 seconds =       0.00 minutes
	total time  =         10 seconds =       0.17 minutes

*** tstart() called on psinet
*** at Tue Feb 28 19:38:25 2017


         ---------------------------------------------------------
                                   SCF
            by Justin Turney, Rob Parrish, and Andy Simmonett
                              RHF Reference
                        1 Threads,    200 MiB Core
         ---------------------------------------------------------

  ==> Geometry <==

    Molecular point group: c2v
    Full point group: C2v

    Geometry (in Angstrom), charge = 0, multiplicity = 1:

       Center              X                  Y                   Z               Mass       
    ------------   -----------------  -----------------  -----------------  -----------------
           C         -1.394063300000    -0.000000000000     0.000168808091    12.000000000000
           C         -0.697046800000     1.207237800000    -0.000306491909    12.000000000000
           C          0.697046800000     1.207237800000    -0.000306491909    12.000000000000
           C          1.394063300000     0.000000000000     0.000168808091    12.000000000000
           C          0.697046800000    -1.207237800000    -0.000306491909    12.000000000000
           C         -0.697046800000    -1.207237800000    -0.000306491909    12.000000000000
           H         -2.475399500000    -0.000000000000     0.003999108091     1.007825032070
           H         -1.238232100000     2.143565500000     0.000644808091     1.007825032070
           H          1.238232100000     2.143565500000     0.000644808091     1.007825032070
           H          2.475399500000     0.000000000000     0.003999108091     1.007825032070
           H          1.238232100000    -2.143565500000     0.000644808091     1.007825032070
           H         -1.238232100000    -2.143565500000     0.000644808091     1.007825032070

  Running in c2v symmetry.

  Rotational constants: A =      0.19053  B =      0.19049  C =      0.09525 [cm^-1]
  Rotational constants: A =   5711.80995  B =   5710.76374  C =   2855.64466 [MHz]
  Nuclear repulsion =  203.664080154352376

  Charge       = 0
  Multiplicity = 1
  Electrons    = 42
  Nalpha       = 21
  Nbeta        = 21

  ==> Algorithm <==

  SCF Algorithm Type is PK.
  DIIS enabled.
  MOM disabled.
  Fractional occupation disabled.
  Guess Type is SAD.
  Energy threshold   = 1.00e-06
  Density threshold  = 1.00e-06
  Integral threshold = 0.00e+00

  ==> Primary Basis <==

  Basis Set: file /theoryfs2/ds/cdsgroup/psi4-compile/hrw-directclone/psi4/objdir3/stage/theoryfs2/ds/cdsgroup/psi4-compile/hrw-directclone/psi4/install-psi4-3/share/psi4/basis/minix.gbs
    Number of shells: 24
    Number of basis function: 36
    Number of Cartesian functions: 36
    Spherical Harmonics?: false
    Max angular momentum: 1

  ==> Pre-Iterations <==

   -------------------------------------------------------
    Irrep   Nso     Nmo     Nalpha   Nbeta   Ndocc  Nsocc
   -------------------------------------------------------
     A1        11      11       0       0       0       0
     A2         7       7       0       0       0       0
     B1        11      11       0       0       0       0
     B2         7       7       0       0       0       0
   -------------------------------------------------------
    Total      36      36      21      21      21       0
   -------------------------------------------------------

  ==> Integral Setup <==

  Using in-core PK algorithm.
   Calculation information:
      Number of atoms:                  12
      Number of AO shells:              24
      Number of primitives:             72
      Number of atomic orbitals:        36
      Number of basis functions:        36

      Integral cutoff                 1.00e-12
      Number of threads:                 1

  Performing in-core PK
  Using 444222 doubles for integral storage.
  We computed 42339 shell quartets total.
  Whereas there are 45150 unique shell quartets.
  ==> DiskJK: Disk-Based J/K Matrices <==

    J tasked:                  Yes
    K tasked:                  Yes
    wK tasked:                  No
    Memory (MB):               143
    Schwarz Cutoff:          1E-12

    OpenMP threads:              1
  Minimum eigenvalue in the overlap matrix is 1.7127578457E-01.
  Using Symmetric Orthogonalization.

  SCF Guess: Superposition of Atomic Densities via on-the-fly atomic UHF.

  ==> Iterations <==

                        Total Energy        Delta E     RMS |[F,P]|

   @RHF iter   0:  -229.55020179665189   -2.29550e+02   2.10444e-01 
   @RHF iter   1:  -228.99579985738231    5.54402e-01   2.09704e-02 
   @RHF iter   2:  -229.11638642449279   -1.20587e-01   5.43520e-03 DIIS
   @RHF iter   3:  -229.12454001824787   -8.15359e-03   1.34794e-03 DIIS
   @RHF iter   4:  -229.12490796153855   -3.67943e-04   1.22928e-04 DIIS
   @RHF iter   5:  -229.12491131682893   -3.35529e-06   1.42629e-05 DIIS
   @RHF iter   6:  -229.12491137796505   -6.11361e-08   1.44535e-06 DIIS
   @RHF iter   7:  -229.12491137866908   -7.04034e-10   1.63715e-07 DIIS

  ==> Post-Iterations <==

    Orbital Energies (a.u.)
    -----------------------

    Doubly Occupied:                                                      

       1B1   -11.176798     1A2   -11.176221     1A1   -11.176213  
       1B2   -11.174703     2B1   -11.174695     2A1   -11.173275  
       3A1    -1.158260     3B1    -1.018852     2B2    -1.018772  
       2A2    -0.821746     4A1    -0.821663     5A1    -0.712631  
       4B1    -0.638276     3B2    -0.613867     5B1    -0.588274  
       4B2    -0.588220     6A1    -0.521027     7A1    -0.485400  
       3A2    -0.485303     6B1    -0.348753     5B2    -0.348709  

    Virtual:                                                              

       4A2     0.187249     8A1     0.187282     7B1     0.430095  
       9A1     0.564673     6B2     0.643321     8B1     0.643593  
       5A2     0.684504    10A1     0.684802     9B1     0.689434  
      10B1     0.874433     7B2     0.874678    11A1     0.882169  
       6A2     0.882204     7A2     1.052519    11B1     1.127053  

    Final Occupation by Irrep:
             A1    A2    B1    B2 
    DOCC [     7,    3,    6,    5 ]

  Energy converged.

  @RHF Final Energy:  -229.12491137866908

   => Energetics <=

    Nuclear Repulsion Energy =            203.6640801543523764
    One-Electron Energy =                -711.1346571676676831
    Two-Electron Energy =                 278.3456656346461955
    DFT Exchange-Correlation Energy =       0.0000000000000000
    Empirical Dispersion Energy =           0.0000000000000000
    PCM Polarization Energy =               0.0000000000000000
    EFP Energy =                            0.0000000000000000
    Total Energy =                       -229.1249113786690828

    Alert: EFP and PCM quantities not currently incorporated into SCF psivars.

Properties will be evaluated at   0.000000,   0.000000,   0.000000 Bohr

Properties computed using the SCF density matrix

  Nuclear Dipole Moment: (a.u.)
     X:     0.0000      Y:     0.0000      Z:     0.0099

  Electronic Dipole Moment: (a.u.)
     X:     0.0000      Y:     0.0000      Z:    -0.0076

  Dipole Moment: (a.u.)
     X:     0.0000      Y:     0.0000      Z:     0.0024     Total:     0.0024

  Dipole Moment: (Debye)
     X:     0.0000      Y:     0.0000      Z:     0.0060     Total:     0.0060


*** tstop() called on psinet at Tue Feb 28 19:38:25 2017
Module time:
	user time   =       0.58 seconds =       0.01 minutes
	system time =       0.01 seconds =       0.00 minutes
	total time  =          0 seconds =       0.00 minutes
Total time:
	user time   =       9.12 seconds =       0.15 minutes
	system time =       0.19 seconds =       0.00 minutes
	total time  =         10 seconds =       0.17 minutes
	HF-3c for S22-20..................................................PASSED

*** Psi4 exiting successfully. Buy a developer a beer!
