    -----------------------------------------------------------------------
          PSI4: An Open-Source Ab Initio Electronic Structure Package
                              PSI 4.0.0-beta1 Driver

    J. M. Turney, A. C. Simmonett, R. M. Parrish, E. G. Hohenstein,
    F. Evangelista, J. T. Fermann, B. J. Mintz, L. A. Burns, J. J. Wilke,
    M. L. Abrams, N. J. Russ, M. L. Leininger, C. L. Janssen, E. T. Seidl,
    W. D. Allen, H. F. Schaefer, R. A. King, E. F. Valeev, C. D. Sherrill,
    and T. D. Crawford, WIREs Comput. Mol. Sci., (2011) (doi: 10.1002/wcms.93)

                         Additional Contributions by
    A. E. DePrince, M. Saitow, U. Bozkaya, A. Yu. Sokolov
    -----------------------------------------------------------------------


    Using LocalCommunicator (Number of processes = 1)

    Memory level set to 256.000 MB

  ==> Input File <==

--------------------------------------------------------------------------
#! Example potential energy surface scan and CP-correction for Ne2

memory 250 mb

molecule dimer {
  Ne
--
  Ne 1 R
}

Rvals=[2.5, 3.0, 4.0]

ecp_ref = {2.5:0.757717, 3.0:0.015685, 4.0:-0.016266} #TEST

set basis aug-cc-pVDZ
set freeze_core True

# Initialize a blank dictionary of counterpoise corrected energies
# (Need this for the syntax below to work)
ecp = {}

for R in Rvals:
  dimer.R = R
  ecp[R] = cp('ccsd(t)')
  compare_values(ecp[R]*627.5095, ecp_ref[R], 4, "CP-CCSD(T) [%3.1f]" % R) #TEST

print "\n"
print "CP-corrected CCSD(T)/aug-cc-pVDZ interaction energies\n\n"
print "        R (Ang)         E_int (kcal/mol)             \n"
print "-----------------------------------------------------\n"
for R in Rvals:
  e = ecp[R] * 627.5095
  print "        %3.1f            %10.6f\n" % (R, e)

--------------------------------------------------------------------------

  Memory set to 250.000 MiB by Python script.
Setting geometry variable R to 2.500000

  //>>>>>>>>>>>>>>>>>>>>>>>>>>>>>>>>>>>//
  //      CP Computation: Complex.     //
  //          Full Basis Set.          //
  //<<<<<<<<<<<<<<<<<<<<<<<<<<<<<<<<<<<//


*** tstart() called on sherrill-laptop
*** at Sat Jan 21 09:31:46 2012

	There are an even number of electrons - assuming singlet.
	Specify the multiplicity with the MULTP option in the
	input if this is incorrect


         ---------------------------------------------------------
                                   SCF
            by Justin Turney, Rob Parrish, and Andy Simmonett
                              RHF Reference
                        1 Threads,    250 MiB Core
         ---------------------------------------------------------

  ==> Geometry <==

    Molecular point group: d2h

    Geometry (in Angstrom), charge = 0, multiplicity = 1:

       Center              X                  Y                   Z       
    ------------   -----------------  -----------------  -----------------
          NE          0.000000000000     0.000000000000    -1.250000000000
          NE          0.000000000000     0.000000000000     1.250000000000

    Number of unique atoms: 1

    Atoms equivalency:
       unique atom 0: 0 1 

  Running in d2h symmetry.

  Nuclear repulsion =   21.167089960000006

  Charge       = 0
  Multiplicity = 1
  Electrons    = 20
  Nalpha       = 10
  Nbeta        = 10

  ==> Algorithm <==

  SCF Algorithm Type is PK.
  DIIS enabled.
  MOM disabled.
  Fractional occupation disabled.
  Guess Type is CORE.
  Energy threshold   = 1.00e-08
  Density threshold  = 1.00e-08
  Integral threshold = 0.00e+00

  ==> Primary Basis: AUG-CC-PVDZ <==

  Basis Set
    Number of shells: 18
    Number of basis function: 46
    Number of Cartesian functions: 50
    Spherical Harmonics?: true
    Max angular momentum: 2

  ==> Pre-Iterations <==

  Minimum eigenvalue in the overlap matrix is 4.9925429743E-02.
  Using Symmetric Orthogonalization.
  SCF Guess: Core (One-Electron) Hamiltonian.

  Initial RHF energy:  -195.16505307335012

   -------------------------------------------------------
    Irrep   Nso     Nmo     Nalpha   Nbeta   Ndocc  Nsocc
   -------------------------------------------------------
     Ag        11      11       3       3       3       0
     B1g        2       2       0       0       0       0
     B2g        5       5       1       1       1       0
     B3g        5       5       1       1       1       0
     Au         2       2       0       0       0       0
     B1u       11      11       3       3       3       0
     B2u        5       5       1       1       1       0
     B3u        5       5       1       1       1       0
   -------------------------------------------------------
    Total      46      46      10      10      10       0
   -------------------------------------------------------

  ==> Integral Setup <==

 MINTS: Wrapper to libmints.
   by Justin Turney

   Calculation information:
      Number of atoms:                   2
      Number of AO shells:              18
      Number of SO shells:               9
      Number of primitives:             50
      Number of atomic orbitals:        50
      Number of basis functions:        46

      Number of irreps:                  8
      Number of functions per irrep: [  11    2    5    5    2   11    5    5 ]

      Overlap, kinetic, potential, dipole, and quadrupole integrals
        stored in file 35.

      Computing two-electron integrals...done
      Computed 69839 non-zero two-electron integrals.
        Stored in file 33.

  ==> Iterations <==

                        Total Energy        Delta E     Density RMS

   @RHF iter   1:  -244.99348246005201   -4.98284e+01   0.00000e+00 
   @RHF iter   2:  -240.13914290516846    4.85434e+00   2.21573e-01 DIIS
   @RHF iter   3:  -256.58365913101107   -1.64445e+01   1.62251e-01 DIIS
   @RHF iter   4:  -256.98024678861083   -3.96588e-01   1.81899e-02 DIIS
   @RHF iter   5:  -256.99136179750491   -1.11150e-02   2.98316e-03 DIIS
   @RHF iter   6:  -256.99144234493895   -8.05474e-05   3.58149e-04 DIIS
   @RHF iter   7:  -256.99144324350181   -8.98563e-07   4.53213e-05 DIIS
   @RHF iter   8:  -256.99144325145249   -7.95069e-09   3.62811e-06 DIIS
   @RHF iter   9:  -256.99144325192105   -4.68560e-10   1.06472e-06 DIIS
   @RHF iter  10:  -256.99144325192327   -2.21689e-12   6.35982e-08 DIIS

  ==> Post-Iterations <==

	Orbital Energies (a.u.)
	-----------------------

	Doubly Occupied:                                                      

	   1B1u  -32.793625     1Ag   -32.793620     2Ag    -1.942031  
	   2B1u   -1.937547     3Ag    -0.867552     1B2u   -0.854681  
	   1B3u   -0.854681     1B3g   -0.849729     1B2g   -0.849729  
	   3B1u   -0.837782  

	Virtual:                                                              

	   4B1u    0.259368     4Ag     0.262505     2B2u    0.267750  
	   2B3u    0.267750     2B2g    0.346489     2B3g    0.346489  
	   5Ag     0.355989     5B1u    0.545225     6Ag     1.613504  
	   3B2u    1.722381     3B3u    1.722381     7Ag     1.754233  
	   1B1g    1.754233     1Au     1.761688     6B1u    1.761688  
	   3B2g    1.806614     3B3g    1.806614     7B1u    1.926596  
	   4B2u    1.960934     4B3u    1.960934     4B2g    1.985296  
	   4B3g    1.985296     8Ag     1.996255     8B1u    2.079002  
	   9Ag     2.781432     9B1u    2.904554    10Ag     6.301197  
	   5B3u    6.348019     5B2u    6.348019     2B1g    6.370739  
	  11Ag     6.370739    10B1u    6.375760     2Au     6.375760  
	   5B3g    6.410401     5B2g    6.410401    11B1u    6.557840  

	Final Occupation by Irrep:
	         Ag   B1g   B2g   B3g    Au   B1u   B2u   B3u 
	DOCC [     3,    0,    1,    1,    0,    3,    1,    1 ]

  Energy converged.

  @RHF Final Energy:  -256.99144325192327

  ==> Properties <==
  Nuclear Dipole Moment: (a.u.)
     X:     0.0000      Y:     0.0000      Z:     0.0000

  Electronic Dipole Moment: (a.u.)
     X:     0.0000      Y:     0.0000      Z:     0.0000

  Dipole Moment: (a.u.)
     X:     0.0000      Y:     0.0000      Z:     0.0000     Total:     0.0000

  Dipole Moment: (Debye)
     X:     0.0000      Y:     0.0000      Z:     0.0000     Total:     0.0000


  Saving occupied orbitals to File 180.

*** tstop() called on sherrill-laptop at Sat Jan 21 09:31:47 2012
Module time:
	user time   =       0.67 seconds =       0.01 minutes
	system time =       0.04 seconds =       0.00 minutes
	total time  =          1 seconds =       0.02 minutes
Total time:
	user time   =       0.67 seconds =       0.01 minutes
	system time =       0.04 seconds =       0.00 minutes
	total time  =          1 seconds =       0.02 minutes

*** tstart() called on sherrill-laptop
*** at Sat Jan 21 09:31:47 2012


	**************************************************
	* TRANSQT2: Program to transform integrals from  *
	*           the SO basis to the MO basis.        *
	*                                                *
	*            Daniel, David, & Justin             *
	**************************************************


	Input parameters:
	-----------------
	Wave function   =	CCSD_T
	Backtransform   =	No
	Print Level     =	1
	Print TEIs      =	No
	Reference wfn   =	RHF
	Derivative      =	None
	Delete TEI File =	Yes
	Memory (Mbytes) =	250.0
	Cache Level     =	2
	Cache Type      =	LRU
	Chkpt Parameters:
	--------------------
	Number of irreps     = 8
	Number of SOs        = 46
	Number of MOs        = 46
	Number of active MOs = 44

	Label	# SOs	# FZDC	# DOCC	# SOCC	# VIRT	# FZVR
	-----	-----	------	------	------	------	------
	 Ag	   11	    1	    2	    0	    8	    0
	 B1g	   2	    0	    0	    0	    2	    0
	 B2g	   5	    0	    1	    0	    4	    0
	 B3g	   5	    0	    1	    0	    4	    0
	 Au	   2	    0	    0	    0	    2	    0
	 B1u	   11	    1	    2	    0	    8	    0
	 B2u	   5	    0	    1	    0	    4	    0
	 B3u	   5	    0	    1	    0	    4	    0

	Nuclear Rep. energy (chkpt) =     21.16708996000001
	SCF energy          (chkpt) =   -256.99144325192327

	Presorting SO-basis two-electron integrals.
	Sorting File: SO Ints (pq,rs) nbuckets = 1
	Frozen-core energy = -195.317936460231152
	Starting first half-transformation.
	Sorting half-transformed integrals.
	Starting second half-transformation.
	Two-electron integral transformation complete.

*** tstop() called on sherrill-laptop at Sat Jan 21 09:31:47 2012
Module time:
	user time   =       0.07 seconds =       0.00 minutes
	system time =       0.04 seconds =       0.00 minutes
	total time  =          0 seconds =       0.00 minutes
Total time:
	user time   =       0.74 seconds =       0.01 minutes
	system time =       0.08 seconds =       0.00 minutes
	total time  =          1 seconds =       0.02 minutes

*** tstart() called on sherrill-laptop
*** at Sat Jan 21 09:31:47 2012


			**************************
			*                        *
			*         CCSORT         *
			*                        *
			**************************


	Input parameters:
	-----------------
	Wave function   =	CCSD_T
	Reference wfn   =	RHF
	Derivative      =	None
	Memory (Mbytes) =	250.0
	AO Basis        =	NONE
	Make (ab|cd)    =	True
	Make unpacked (ab|cd) =	False
	Cache Level     =	2
	Cache Type      =	LRU
	Local CC        =     No


	Chkpt Parameters:
	--------------------
	Number of irreps     = 8
	Number of MOs        = 46
	Number of active MOs = 44

	Label	# MOs	# FZDC	# DOCC	# SOCC	# VIRT	# FZVR
	-----	-----	------	------	------	------	------
	 Ag	   11	    1	    2	    0	    8	    0
	 B1g	   2	    0	    0	    0	    2	    0
	 B2g	   5	    0	    1	    0	    4	    0
	 B3g	   5	    0	    1	    0	    4	    0
	 Au	   2	    0	    0	    0	    2	    0
	 B1u	   11	    1	    2	    0	    8	    0
	 B2u	   5	    0	    1	    0	    4	    0
	 B3u	   5	    0	    1	    0	    4	    0

	Nuclear Rep. energy (chkpt) =     21.16708996000001
	SCF energy          (chkpt) =   -256.99144325192327

	Size of irrep 0 of <ab|cd> integrals:      0.040 (MW) /      0.320 (MB)
	Size of irrep 1 of <ab|cd> integrals:      0.016 (MW) /      0.131 (MB)
	Size of irrep 2 of <ab|cd> integrals:      0.026 (MW) /      0.205 (MB)
	Size of irrep 3 of <ab|cd> integrals:      0.026 (MW) /      0.205 (MB)
	Size of irrep 4 of <ab|cd> integrals:      0.016 (MW) /      0.131 (MB)
	Size of irrep 5 of <ab|cd> integrals:      0.040 (MW) /      0.320 (MB)
	Size of irrep 6 of <ab|cd> integrals:      0.026 (MW) /      0.205 (MB)
	Size of irrep 7 of <ab|cd> integrals:      0.026 (MW) /      0.205 (MB)
	Total:                                     0.215 (MW) /      1.721 (MB)

	Size of irrep 0 of <ia|bc> integrals:      0.010 (MW) /      0.077 (MB)
	Size of irrep 1 of <ia|bc> integrals:      0.003 (MW) /      0.025 (MB)
	Size of irrep 2 of <ia|bc> integrals:      0.006 (MW) /      0.046 (MB)
	Size of irrep 3 of <ia|bc> integrals:      0.006 (MW) /      0.046 (MB)
	Size of irrep 4 of <ia|bc> integrals:      0.003 (MW) /      0.025 (MB)
	Size of irrep 5 of <ia|bc> integrals:      0.010 (MW) /      0.077 (MB)
	Size of irrep 6 of <ia|bc> integrals:      0.006 (MW) /      0.046 (MB)
	Size of irrep 7 of <ia|bc> integrals:      0.006 (MW) /      0.046 (MB)
	Total:                                     0.048 (MW) /      0.387 (MB)

	Size of irrep 0 of tijab amplitudes:       0.002 (MW) /      0.019 (MB)
	Size of irrep 1 of tijab amplitudes:       0.001 (MW) /      0.004 (MB)
	Size of irrep 2 of tijab amplitudes:       0.001 (MW) /      0.010 (MB)
	Size of irrep 3 of tijab amplitudes:       0.001 (MW) /      0.010 (MB)
	Size of irrep 4 of tijab amplitudes:       0.001 (MW) /      0.004 (MB)
	Size of irrep 5 of tijab amplitudes:       0.002 (MW) /      0.019 (MB)
	Size of irrep 6 of tijab amplitudes:       0.001 (MW) /      0.010 (MB)
	Size of irrep 7 of tijab amplitudes:       0.001 (MW) /      0.010 (MB)
	Total:                                     0.011 (MW) /      0.088 (MB)


	Sorting File: A <ij|kl> nbuckets = 1
	Sorting File: B(+) <ab|cd> nbuckets = 1
	Sorting File: C <ia|jb> nbuckets = 1
	Sorting File: D <ij|ab> nbuckets = 1
	Sorting File: E <ai|jk> nbuckets = 1
	Sorting File: F <ia|bc> nbuckets = 1
	One-electron energy          =   -147.69373143777642
	Two-electron (AA) energy     =     26.80736473588896
	Two-electron (BB) energy     =     26.80736473588896
	Two-electron (AB) energy     =     38.04576995019538
	Two-electron energy          =     64.85313468608433
	Frozen-core energy (transqt) =   -195.31793646023115
	Reference energy             =   -256.99144325192322

*** tstop() called on sherrill-laptop at Sat Jan 21 09:31:47 2012
Module time:
	user time   =       0.04 seconds =       0.00 minutes
	system time =       0.06 seconds =       0.00 minutes
	total time  =          0 seconds =       0.00 minutes
Total time:
	user time   =       0.78 seconds =       0.01 minutes
	system time =       0.14 seconds =       0.00 minutes
	total time  =          1 seconds =       0.02 minutes

*** tstart() called on sherrill-laptop
*** at Sat Jan 21 09:31:47 2012

			**************************
			*                        *
			*        CCENERGY        *
			*                        *
			**************************

	Nuclear Rep. energy (chkpt)   =   21.167089960000006
	SCF energy          (chkpt)   = -256.991443251923272
	Reference energy    (file100) = -256.991443251923215

	Input parameters:
	-----------------
	Wave function   =   CCSD_T
	Reference wfn   =     RHF
	Memory (Mbytes) =     250.0
	Maxiter         =     50
	Convergence     =     1.0e-07
	Restart         =     No
	DIIS            =     Yes
	AO Basis        =     NONE
	ABCD            =     NEW
	Cache Level     =     2
	Cache Type      =     LOW
	Print Level     =     1
	Num. of threads =     1
	# Amps to Print =     10
	Print MP2 Amps? =     No
	Analyze T2 Amps =     No
	Print Pair Ener =     No
	Local CC        =     No
	SCS-MP2         =     False
	SCSN-MP2        =     False
	SCS-CCSD        =     False

	            Solving CC Amplitude Equations
	            ------------------------------
  Iter             Energy              RMS        T1Diag      D1Diag    New D1Diag
  ----     ---------------------    ---------   ----------  ----------  ----------
     0        -0.414013020668409    0.000e+00    0.000000    0.000000    0.000000
     1        -0.414780289033163    3.857e-02    0.008548    0.015442    0.015442
     2        -0.419695149543991    1.002e-02    0.008227    0.014782    0.014782
     3        -0.420733064023469    3.908e-03    0.009222    0.016498    0.016498
     4        -0.420653211431896    4.945e-04    0.009331    0.016683    0.016683
     5        -0.420635380529872    1.146e-04    0.009350    0.016701    0.016701
     6        -0.420634818446460    2.484e-05    0.009354    0.016707    0.016707
     7        -0.420634305360394    7.380e-06    0.009355    0.016708    0.016708
     8        -0.420634129926405    1.501e-06    0.009355    0.016707    0.016707
     9        -0.420634136438788    4.295e-07    0.009355    0.016707    0.016707
    10        -0.420634129822970    1.599e-07    0.009355    0.016707    0.016707
    11        -0.420634131739498    4.176e-08    0.009355    0.016707    0.016707

	Iterations converged.


	Largest TIA Amplitudes:
	          1   1         0.0162012277
	          6  28        -0.0159504032
	          7  32        -0.0159504032
	          2  10        -0.0131230653
	          3  14        -0.0131230653
	          5  20        -0.0112836791
	          0   0         0.0071254794
	          4  21         0.0045281302
	          4  20         0.0041344221
	          6  30        -0.0031560239

	Largest TIjAb Amplitudes:
	  2   2  34  34        -0.0169365471
	  3   3  30  30        -0.0169365471
	  6   6  30  30        -0.0167306405
	  7   7  34  34        -0.0167306405
	  2   2  12  12        -0.0165053477
	  3   3  16  16        -0.0165053477
	  2   7  12  34        -0.0165040179
	  3   6  16  30        -0.0165040179
	  6   3  30  16        -0.0165040179
	  7   2  34  12        -0.0165040179

	SCF energy       (chkpt)              = -256.991443251923272
	Reference energy (file100)            = -256.991443251923215

	Opposite-spin MP2 correlation energy  =   -0.300368144558208
	Same-spin MP2 correlation energy      =   -0.113644876110201
	MP2 correlation energy                =   -0.414013020668410
      * MP2 total energy                      = -257.405456272591607

	Opposite-spin CCSD correlation energy =   -0.315874145508045
	Same-spin CCSD correlation energy     =   -0.104759985541564
	CCSD correlation energy               =   -0.420634131739498
      * CCSD total energy                     = -257.412077383662734


*** tstop() called on sherrill-laptop at Sat Jan 21 09:31:48 2012
Module time:
	user time   =       0.44 seconds =       0.01 minutes
	system time =       0.35 seconds =       0.01 minutes
	total time  =          1 seconds =       0.02 minutes
Total time:
	user time   =       1.23 seconds =       0.02 minutes
	system time =       0.49 seconds =       0.01 minutes
	total time  =          2 seconds =       0.03 minutes

*** tstart() called on sherrill-laptop
*** at Sat Jan 21 09:31:48 2012

			**************************
			*                        *
			*        CCTRIPLES       *
			*                        *
			**************************


	Wave function   =    CCSD_T
	Reference wfn   =      RHF

	Nuclear Rep. energy (chkpt)   =   21.167089960000006
	SCF energy          (chkpt)   = -256.991443251923272
	Reference energy    (file100) = -256.991443251923215
	CCSD energy         (file100) =   -0.420634131739498
	Total CCSD energy   (file100) = -257.412077383662734

	Number of ijk index combinations: 120

	(T) energy                    =   -0.005645039292982
      * CCSD(T) total energy          = -257.417722422955705


*** tstop() called on sherrill-laptop at Sat Jan 21 09:31:48 2012
Module time:
	user time   =       0.14 seconds =       0.00 minutes
	system time =       0.00 seconds =       0.00 minutes
	total time  =          0 seconds =       0.00 minutes
Total time:
	user time   =       1.37 seconds =       0.02 minutes
	system time =       0.49 seconds =       0.01 minutes
	total time  =          2 seconds =       0.03 minutes

  //>>>>>>>>>>>>>>>>>>>>>>>>>>>>>>>>>>>//
  //     CP Computation: Monomer 1.    //
  //           Full Basis Set.         //
  //<<<<<<<<<<<<<<<<<<<<<<<<<<<<<<<<<<<//


*** tstart() called on sherrill-laptop
*** at Sat Jan 21 09:31:48 2012

	There are an even number of electrons - assuming singlet.
	Specify the multiplicity with the MULTP option in the
	input if this is incorrect


         ---------------------------------------------------------
                                   SCF
            by Justin Turney, Rob Parrish, and Andy Simmonett
                              RHF Reference
                        1 Threads,    250 MiB Core
         ---------------------------------------------------------

  ==> Geometry <==

    Molecular point group: c2v

    Geometry (in Angstrom), charge = 0, multiplicity = 1:

       Center              X                  Y                   Z       
    ------------   -----------------  -----------------  -----------------
          NE          0.000000000000     0.000000000000    -1.250000000000
          NE(Gh)      0.000000000000     0.000000000000     1.250000000000

    Number of unique atoms: 2

    Atoms equivalency:
       unique atom 0: 0 
       unique atom 1: 1 

  Running in c2v symmetry.

  Nuclear repulsion =    0.000000000000000

  Charge       = 0
  Multiplicity = 1
  Electrons    = 10
  Nalpha       = 5
  Nbeta        = 5

  ==> Algorithm <==

  SCF Algorithm Type is PK.
  DIIS enabled.
  MOM disabled.
  Fractional occupation disabled.
  Guess Type is CORE.
  Energy threshold   = 1.00e-08
  Density threshold  = 1.00e-08
  Integral threshold = 0.00e+00

  ==> Primary Basis: AUG-CC-PVDZ <==

  Basis Set
    Number of shells: 18
    Number of basis function: 46
    Number of Cartesian functions: 50
    Spherical Harmonics?: true
    Max angular momentum: 2

  ==> Pre-Iterations <==

  Minimum eigenvalue in the overlap matrix is 4.9925429743E-02.
  Using Symmetric Orthogonalization.
  SCF Guess: Core (One-Electron) Hamiltonian.

  Initial RHF energy:   -97.57498544936399

   -------------------------------------------------------
    Irrep   Nso     Nmo     Nalpha   Nbeta   Ndocc  Nsocc
   -------------------------------------------------------
     A1        22      22       3       3       3       0
     A2         4       4       0       0       0       0
     B1        10      10       1       1       1       0
     B2        10      10       1       1       1       0
   -------------------------------------------------------
    Total      46      46       5       5       5       0
   -------------------------------------------------------

  ==> Integral Setup <==

 MINTS: Wrapper to libmints.
   by Justin Turney

   Calculation information:
      Number of atoms:                   2
      Number of AO shells:              18
      Number of SO shells:              18
      Number of primitives:             50
      Number of atomic orbitals:        50
      Number of basis functions:        46

      Number of irreps:                  4
      Number of functions per irrep: [  22    4   10   10 ]

      Overlap, kinetic, potential, dipole, and quadrupole integrals
        stored in file 35.

      Computing two-electron integrals...done
      Computed 126209 non-zero two-electron integrals.
        Stored in file 33.

  ==> Iterations <==

                        Total Energy        Delta E     Density RMS

   @RHF iter   1:  -122.49934764879924   -2.49244e+01   0.00000e+00 
   @RHF iter   2:  -117.29898350686385    5.20036e+00   1.02739e-01 DIIS
   @RHF iter   3:  -128.13017576732744   -1.08312e+01   7.05055e-02 DIIS
   @RHF iter   4:  -128.48705394640626   -3.56878e-01   1.21740e-02 DIIS
   @RHF iter   5:  -128.49637826123518   -9.32431e-03   2.18290e-03 DIIS
   @RHF iter   6:  -128.49643498120815   -5.67200e-05   3.06816e-04 DIIS
   @RHF iter   7:  -128.49643833491973   -3.35371e-06   5.26602e-05 DIIS
   @RHF iter   8:  -128.49643838989746   -5.49777e-08   6.94012e-06 DIIS
   @RHF iter   9:  -128.49643839202525   -2.12779e-09   1.60402e-06 DIIS
   @RHF iter  10:  -128.49643839203492   -9.66338e-12   8.90552e-08 DIIS

  ==> Post-Iterations <==

	Orbital Energies (a.u.)
	-----------------------

	Doubly Occupied:                                                      

	   1A1   -32.794999     2A1    -1.940396     3A1    -0.853000  
	   1B2    -0.852986     1B1    -0.852986  

	Virtual:                                                              

	   4A1     0.163586     2B1     0.242152     2B2     0.242152  
	   5A1     0.248883     6A1     0.323039     3B2     0.332037  
	   3B1     0.332037     7A1     0.493003     8A1     1.082205  
	   4B1     1.312813     4B2     1.312813     9A1     1.319752  
	  10A1     1.752522     1A2     1.757686    11A1     1.757686  
	   5B2     1.761285     5B1     1.761285     6B1     1.968421  
	   6B2     1.968421    12A1     1.976849    13A1     2.123769  
	   2A2     2.123769     7B1     2.141738     7B2     2.141738  
	  14A1     2.295077    15A1     2.845273    16A1     4.704755  
	  17A1     6.372541     3A2     6.372541     8B1     6.378208  
	   8B2     6.378208    18A1     6.421934     9B1     8.947897  
	   9B2     8.947897    19A1     8.956409     4A2     8.956409  
	  10B1     8.965727    10B2     8.965727    20A1     8.975407  
	  21A1     9.018394    22A1    53.421735  

	Final Occupation by Irrep:
	         A1    A2    B1    B2 
	DOCC [     3,    0,    1,    1 ]

  Energy converged.

  @RHF Final Energy:  -128.49643839203492

  ==> Properties <==
  Nuclear Dipole Moment: (a.u.)
     X:     0.0000      Y:     0.0000      Z:   -23.6216

  Electronic Dipole Moment: (a.u.)
     X:     0.0000      Y:     0.0000      Z:    23.6196

  Dipole Moment: (a.u.)
     X:     0.0000      Y:     0.0000      Z:    -0.0019     Total:     0.0019

  Dipole Moment: (Debye)
     X:     0.0000      Y:     0.0000      Z:    -0.0049     Total:     0.0049


  Saving occupied orbitals to File 180.

*** tstop() called on sherrill-laptop at Sat Jan 21 09:31:49 2012
Module time:
	user time   =       0.88 seconds =       0.01 minutes
	system time =       0.00 seconds =       0.00 minutes
	total time  =          1 seconds =       0.02 minutes
Total time:
	user time   =       2.26 seconds =       0.04 minutes
	system time =       0.49 seconds =       0.01 minutes
	total time  =          3 seconds =       0.05 minutes

*** tstart() called on sherrill-laptop
*** at Sat Jan 21 09:31:49 2012


	**************************************************
	* TRANSQT2: Program to transform integrals from  *
	*           the SO basis to the MO basis.        *
	*                                                *
	*            Daniel, David, & Justin             *
	**************************************************


	Input parameters:
	-----------------
	Wave function   =	CCSD_T
	Backtransform   =	No
	Print Level     =	1
	Print TEIs      =	No
	Reference wfn   =	RHF
	Derivative      =	None
	Delete TEI File =	Yes
	Memory (Mbytes) =	250.0
	Cache Level     =	2
	Cache Type      =	LRU
	Chkpt Parameters:
	--------------------
	Number of irreps     = 4
	Number of SOs        = 46
	Number of MOs        = 46
	Number of active MOs = 45

	Label	# SOs	# FZDC	# DOCC	# SOCC	# VIRT	# FZVR
	-----	-----	------	------	------	------	------
	 A1	   22	    1	    2	    0	    19	    0
	 A2	   4	    0	    0	    0	    4	    0
	 B1	   10	    0	    1	    0	    9	    0
	 B2	   10	    0	    1	    0	    9	    0

	Nuclear Rep. energy (chkpt) =      0.00000000000000
	SCF energy          (chkpt) =   -128.49643839203492

	Presorting SO-basis two-electron integrals.
	Sorting File: SO Ints (pq,rs) nbuckets = 1
	Frozen-core energy =  -93.848894827829810
	Starting first half-transformation.
	Sorting half-transformed integrals.
	Starting second half-transformation.
	Two-electron integral transformation complete.

*** tstop() called on sherrill-laptop at Sat Jan 21 09:31:49 2012
Module time:
	user time   =       0.16 seconds =       0.00 minutes
	system time =       0.05 seconds =       0.00 minutes
	total time  =          0 seconds =       0.00 minutes
Total time:
	user time   =       2.42 seconds =       0.04 minutes
	system time =       0.54 seconds =       0.01 minutes
	total time  =          3 seconds =       0.05 minutes

*** tstart() called on sherrill-laptop
*** at Sat Jan 21 09:31:49 2012


			**************************
			*                        *
			*         CCSORT         *
			*                        *
			**************************


	Input parameters:
	-----------------
	Wave function   =	CCSD_T
	Reference wfn   =	RHF
	Derivative      =	None
	Memory (Mbytes) =	250.0
	AO Basis        =	NONE
	Make (ab|cd)    =	True
	Make unpacked (ab|cd) =	False
	Cache Level     =	2
	Cache Type      =	LRU
	Local CC        =     No


	Chkpt Parameters:
	--------------------
	Number of irreps     = 4
	Number of MOs        = 46
	Number of active MOs = 45

	Label	# MOs	# FZDC	# DOCC	# SOCC	# VIRT	# FZVR
	-----	-----	------	------	------	------	------
	 A1	   22	    1	    2	    0	    19	    0
	 A2	   4	    0	    0	    0	    4	    0
	 B1	   10	    0	    1	    0	    9	    0
	 B2	   10	    0	    1	    0	    9	    0

	Nuclear Rep. energy (chkpt) =      0.00000000000000
	SCF energy          (chkpt) =   -128.49643839203492

	Size of irrep 0 of <ab|cd> integrals:      0.291 (MW) /      2.324 (MB)
	Size of irrep 1 of <ab|cd> integrals:      0.099 (MW) /      0.789 (MB)
	Size of irrep 2 of <ab|cd> integrals:      0.171 (MW) /      1.371 (MB)
	Size of irrep 3 of <ab|cd> integrals:      0.171 (MW) /      1.371 (MB)
	Total:                                     0.732 (MW) /      5.855 (MB)

	Size of irrep 0 of <ia|bc> integrals:      0.030 (MW) /      0.241 (MB)
	Size of irrep 1 of <ia|bc> integrals:      0.008 (MW) /      0.065 (MB)
	Size of irrep 2 of <ia|bc> integrals:      0.017 (MW) /      0.136 (MB)
	Size of irrep 3 of <ia|bc> integrals:      0.017 (MW) /      0.136 (MB)
	Total:                                     0.072 (MW) /      0.578 (MB)

	Size of irrep 0 of tijab amplitudes:       0.003 (MW) /      0.026 (MB)
	Size of irrep 1 of tijab amplitudes:       0.001 (MW) /      0.005 (MB)
	Size of irrep 2 of tijab amplitudes:       0.002 (MW) /      0.013 (MB)
	Size of irrep 3 of tijab amplitudes:       0.002 (MW) /      0.013 (MB)
	Total:                                     0.007 (MW) /      0.057 (MB)


	Sorting File: A <ij|kl> nbuckets = 1
	Sorting File: B(+) <ab|cd> nbuckets = 1
	Sorting File: C <ia|jb> nbuckets = 1
	Sorting File: D <ij|ab> nbuckets = 1
	Sorting File: E <ai|jk> nbuckets = 1
	Sorting File: F <ia|bc> nbuckets = 1
	One-electron energy          =    -60.29634960182450
	Two-electron (AA) energy     =     10.01572024916654
	Two-electron (BB) energy     =     10.01572024916654
	Two-electron (AB) energy     =     15.63308578845292
	Two-electron energy          =     25.64880603761946
	Frozen-core energy (transqt) =    -93.84889482782981
	Reference energy             =   -128.49643839203486

*** tstop() called on sherrill-laptop at Sat Jan 21 09:31:49 2012
Module time:
	user time   =       0.06 seconds =       0.00 minutes
	system time =       0.07 seconds =       0.00 minutes
	total time  =          0 seconds =       0.00 minutes
Total time:
	user time   =       2.48 seconds =       0.04 minutes
	system time =       0.61 seconds =       0.01 minutes
	total time  =          3 seconds =       0.05 minutes

*** tstart() called on sherrill-laptop
*** at Sat Jan 21 09:31:49 2012

			**************************
			*                        *
			*        CCENERGY        *
			*                        *
			**************************

	Nuclear Rep. energy (chkpt)   =    0.000000000000000
	SCF energy          (chkpt)   = -128.496438392034918
	Reference energy    (file100) = -128.496438392034861

	Input parameters:
	-----------------
	Wave function   =   CCSD_T
	Reference wfn   =     RHF
	Memory (Mbytes) =     250.0
	Maxiter         =     50
	Convergence     =     1.0e-07
	Restart         =     No
	DIIS            =     Yes
	AO Basis        =     NONE
	ABCD            =     NEW
	Cache Level     =     2
	Cache Type      =     LOW
	Print Level     =     1
	Num. of threads =     1
	# Amps to Print =     10
	Print MP2 Amps? =     No
	Analyze T2 Amps =     No
	Print Pair Ener =     No
	Local CC        =     No
	SCS-MP2         =     False
	SCSN-MP2        =     False
	SCS-CCSD        =     False

	            Solving CC Amplitude Equations
	            ------------------------------
  Iter             Energy              RMS        T1Diag      D1Diag    New D1Diag
  ----     ---------------------    ---------   ----------  ----------  ----------
     0        -0.206930597324035    4.176e-08    0.000000    0.000000    0.000000
     1        -0.207285299646419    2.745e-02    0.008612    0.013707    0.013707
     2        -0.209745655606482    7.158e-03    0.008273    0.013048    0.013048
     3        -0.210268981719157    2.789e-03    0.009277    0.014651    0.014651
     4        -0.210229328713456    3.565e-04    0.009387    0.014827    0.014827
     5        -0.210219912622972    8.554e-05    0.009406    0.014860    0.014860
     6        -0.210219561103435    2.015e-05    0.009410    0.014868    0.014868
     7        -0.210219319004788    6.022e-06    0.009411    0.014870    0.014870
     8        -0.210219215571613    1.220e-06    0.009411    0.014870    0.014870
     9        -0.210219206790872    2.695e-07    0.009411    0.014870    0.014870
    10        -0.210219203382089    6.279e-08    0.009411    0.014870    0.014870

	Iterations converged.


	Largest TIA Amplitudes:
	          1   2        -0.0125301046
	          2  24        -0.0115227300
	          3  33        -0.0115227300
	          2  23        -0.0088876797
	          3  32        -0.0088876797
	          1   0         0.0055066972
	          0   1         0.0050988290
	          0   3         0.0038389940
	          1   3         0.0038296677
	          1   1        -0.0031156056

	Largest TIjAb Amplitudes:
	  2   2  27  27        -0.0331210637
	  3   3  36  36        -0.0331210637
	  1   1   8   8        -0.0302549294
	  2   3  27  36        -0.0236707619
	  3   2  36  27        -0.0236707619
	  1   2   8  27         0.0219483737
	  2   1  27   8         0.0219483737
	  1   3   8  36         0.0219483737
	  3   1  36   8         0.0219483737
	  0   2  11  27        -0.0176262349

	SCF energy       (chkpt)              = -128.496438392034918
	Reference energy (file100)            = -128.496438392034861

	Opposite-spin MP2 correlation energy  =   -0.150180638480246
	Same-spin MP2 correlation energy      =   -0.056749958843789
	MP2 correlation energy                =   -0.206930597324035
      * MP2 total energy                      = -128.703368989358893

	Opposite-spin CCSD correlation energy =   -0.157937017208492
	Same-spin CCSD correlation energy     =   -0.052282185913905
	CCSD correlation energy               =   -0.210219203382089
      * CCSD total energy                     = -128.706657595416942


*** tstop() called on sherrill-laptop at Sat Jan 21 09:31:50 2012
Module time:
	user time   =       0.31 seconds =       0.01 minutes
	system time =       0.34 seconds =       0.01 minutes
	total time  =          1 seconds =       0.02 minutes
Total time:
	user time   =       2.80 seconds =       0.05 minutes
	system time =       0.95 seconds =       0.02 minutes
	total time  =          4 seconds =       0.07 minutes

*** tstart() called on sherrill-laptop
*** at Sat Jan 21 09:31:50 2012

			**************************
			*                        *
			*        CCTRIPLES       *
			*                        *
			**************************


	Wave function   =    CCSD_T
	Reference wfn   =      RHF

	Nuclear Rep. energy (chkpt)   =    0.000000000000000
	SCF energy          (chkpt)   = -128.496438392034918
	Reference energy    (file100) = -128.496438392034861
	CCSD energy         (file100) =   -0.210219203382089
	Total CCSD energy   (file100) = -128.706657595416942

	Number of ijk index combinations: 20

	(T) energy                    =   -0.002807365245326
      * CCSD(T) total energy          = -128.709464960662274


*** tstop() called on sherrill-laptop at Sat Jan 21 09:31:50 2012
Module time:
	user time   =       0.11 seconds =       0.00 minutes
	system time =       0.01 seconds =       0.00 minutes
	total time  =          0 seconds =       0.00 minutes
Total time:
	user time   =       2.91 seconds =       0.05 minutes
	system time =       0.96 seconds =       0.02 minutes
	total time  =          4 seconds =       0.07 minutes

  //>>>>>>>>>>>>>>>>>>>>>>>>>>>>>>>>>>>//
  //     CP Computation: Monomer 2.    //
  //           Full Basis Set.         //
  //<<<<<<<<<<<<<<<<<<<<<<<<<<<<<<<<<<<//


*** tstart() called on sherrill-laptop
*** at Sat Jan 21 09:31:50 2012

	There are an even number of electrons - assuming singlet.
	Specify the multiplicity with the MULTP option in the
	input if this is incorrect


         ---------------------------------------------------------
                                   SCF
            by Justin Turney, Rob Parrish, and Andy Simmonett
                              RHF Reference
                        1 Threads,    250 MiB Core
         ---------------------------------------------------------

  ==> Geometry <==

    Molecular point group: c2v

    Geometry (in Angstrom), charge = 0, multiplicity = 1:

       Center              X                  Y                   Z       
    ------------   -----------------  -----------------  -----------------
          NE(Gh)      0.000000000000     0.000000000000    -1.250000000000
          NE          0.000000000000     0.000000000000     1.250000000000

    Number of unique atoms: 2

    Atoms equivalency:
       unique atom 0: 0 
       unique atom 1: 1 

  Running in c2v symmetry.

  Nuclear repulsion =    0.000000000000000

  Charge       = 0
  Multiplicity = 1
  Electrons    = 10
  Nalpha       = 5
  Nbeta        = 5

  ==> Algorithm <==

  SCF Algorithm Type is PK.
  DIIS enabled.
  MOM disabled.
  Fractional occupation disabled.
  Guess Type is CORE.
  Energy threshold   = 1.00e-08
  Density threshold  = 1.00e-08
  Integral threshold = 0.00e+00

  ==> Primary Basis: AUG-CC-PVDZ <==

  Basis Set
    Number of shells: 18
    Number of basis function: 46
    Number of Cartesian functions: 50
    Spherical Harmonics?: true
    Max angular momentum: 2

  ==> Pre-Iterations <==

  Minimum eigenvalue in the overlap matrix is 4.9925429743E-02.
  Using Symmetric Orthogonalization.
  SCF Guess: Core (One-Electron) Hamiltonian.

  Initial RHF energy:   -97.57498544936422

   -------------------------------------------------------
    Irrep   Nso     Nmo     Nalpha   Nbeta   Ndocc  Nsocc
   -------------------------------------------------------
     A1        22      22       3       3       3       0
     A2         4       4       0       0       0       0
     B1        10      10       1       1       1       0
     B2        10      10       1       1       1       0
   -------------------------------------------------------
    Total      46      46       5       5       5       0
   -------------------------------------------------------

  ==> Integral Setup <==

 MINTS: Wrapper to libmints.
   by Justin Turney

   Calculation information:
      Number of atoms:                   2
      Number of AO shells:              18
      Number of SO shells:              18
      Number of primitives:             50
      Number of atomic orbitals:        50
      Number of basis functions:        46

      Number of irreps:                  4
      Number of functions per irrep: [  22    4   10   10 ]

      Overlap, kinetic, potential, dipole, and quadrupole integrals
        stored in file 35.

      Computing two-electron integrals...done
      Computed 126209 non-zero two-electron integrals.
        Stored in file 33.

  ==> Iterations <==

                        Total Energy        Delta E     Density RMS

   @RHF iter   1:  -122.49934764879927   -2.49244e+01   0.00000e+00 
   @RHF iter   2:  -117.29898350686346    5.20036e+00   1.02739e-01 DIIS
   @RHF iter   3:  -128.13017576732742   -1.08312e+01   7.05055e-02 DIIS
   @RHF iter   4:  -128.48705394640641   -3.56878e-01   1.21740e-02 DIIS
   @RHF iter   5:  -128.49637826123535   -9.32431e-03   2.18290e-03 DIIS
   @RHF iter   6:  -128.49643498120841   -5.67200e-05   3.06816e-04 DIIS
   @RHF iter   7:  -128.49643833491993   -3.35371e-06   5.26602e-05 DIIS
   @RHF iter   8:  -128.49643838989741   -5.49775e-08   6.94012e-06 DIIS
   @RHF iter   9:  -128.49643839202540   -2.12799e-09   1.60402e-06 DIIS
   @RHF iter  10:  -128.49643839203509   -9.69180e-12   8.90387e-08 DIIS

  ==> Post-Iterations <==

	Orbital Energies (a.u.)
	-----------------------

	Doubly Occupied:                                                      

	   1A1   -32.794999     2A1    -1.940396     3A1    -0.853000  
	   1B2    -0.852986     1B1    -0.852986  

	Virtual:                                                              

	   4A1     0.163586     2B1     0.242152     2B2     0.242152  
	   5A1     0.248883     6A1     0.323039     3B1     0.332037  
	   3B2     0.332037     7A1     0.493003     8A1     1.082205  
	   4B2     1.312813     4B1     1.312813     9A1     1.319752  
	  10A1     1.752522     1A2     1.757686    11A1     1.757686  
	   5B2     1.761285     5B1     1.761285     6B2     1.968421  
	   6B1     1.968421    12A1     1.976849     2A2     2.123769  
	  13A1     2.123769     7B2     2.141738     7B1     2.141738  
	  14A1     2.295077    15A1     2.845273    16A1     4.704755  
	  17A1     6.372541     3A2     6.372541     8B1     6.378208  
	   8B2     6.378208    18A1     6.421934     9B2     8.947897  
	   9B1     8.947897     4A2     8.956409    19A1     8.956409  
	  10B2     8.965727    10B1     8.965727    20A1     8.975407  
	  21A1     9.018394    22A1    53.421735  

	Final Occupation by Irrep:
	         A1    A2    B1    B2 
	DOCC [     3,    0,    1,    1 ]

  Energy converged.

  @RHF Final Energy:  -128.49643839203509

  ==> Properties <==
  Nuclear Dipole Moment: (a.u.)
     X:     0.0000      Y:     0.0000      Z:    23.6216

  Electronic Dipole Moment: (a.u.)
     X:     0.0000      Y:     0.0000      Z:   -23.6196

  Dipole Moment: (a.u.)
     X:     0.0000      Y:     0.0000      Z:     0.0019     Total:     0.0019

  Dipole Moment: (Debye)
     X:     0.0000      Y:     0.0000      Z:     0.0049     Total:     0.0049


  Saving occupied orbitals to File 180.

*** tstop() called on sherrill-laptop at Sat Jan 21 09:31:51 2012
Module time:
	user time   =       0.85 seconds =       0.01 minutes
	system time =       0.04 seconds =       0.00 minutes
	total time  =          1 seconds =       0.02 minutes
Total time:
	user time   =       3.76 seconds =       0.06 minutes
	system time =       1.00 seconds =       0.02 minutes
	total time  =          5 seconds =       0.08 minutes

*** tstart() called on sherrill-laptop
*** at Sat Jan 21 09:31:51 2012


	**************************************************
	* TRANSQT2: Program to transform integrals from  *
	*           the SO basis to the MO basis.        *
	*                                                *
	*            Daniel, David, & Justin             *
	**************************************************


	Input parameters:
	-----------------
	Wave function   =	CCSD_T
	Backtransform   =	No
	Print Level     =	1
	Print TEIs      =	No
	Reference wfn   =	RHF
	Derivative      =	None
	Delete TEI File =	Yes
	Memory (Mbytes) =	250.0
	Cache Level     =	2
	Cache Type      =	LRU
	Chkpt Parameters:
	--------------------
	Number of irreps     = 4
	Number of SOs        = 46
	Number of MOs        = 46
	Number of active MOs = 45

	Label	# SOs	# FZDC	# DOCC	# SOCC	# VIRT	# FZVR
	-----	-----	------	------	------	------	------
	 A1	   22	    1	    2	    0	    19	    0
	 A2	   4	    0	    0	    0	    4	    0
	 B1	   10	    0	    1	    0	    9	    0
	 B2	   10	    0	    1	    0	    9	    0

	Nuclear Rep. energy (chkpt) =      0.00000000000000
	SCF energy          (chkpt) =   -128.49643839203509

	Presorting SO-basis two-electron integrals.
	Sorting File: SO Ints (pq,rs) nbuckets = 1
	Frozen-core energy =  -93.848894827831373
	Starting first half-transformation.
	Sorting half-transformed integrals.
	Starting second half-transformation.
	Two-electron integral transformation complete.

*** tstop() called on sherrill-laptop at Sat Jan 21 09:31:51 2012
Module time:
	user time   =       0.18 seconds =       0.00 minutes
	system time =       0.02 seconds =       0.00 minutes
	total time  =          0 seconds =       0.00 minutes
Total time:
	user time   =       3.94 seconds =       0.07 minutes
	system time =       1.02 seconds =       0.02 minutes
	total time  =          5 seconds =       0.08 minutes

*** tstart() called on sherrill-laptop
*** at Sat Jan 21 09:31:51 2012


			**************************
			*                        *
			*         CCSORT         *
			*                        *
			**************************


	Input parameters:
	-----------------
	Wave function   =	CCSD_T
	Reference wfn   =	RHF
	Derivative      =	None
	Memory (Mbytes) =	250.0
	AO Basis        =	NONE
	Make (ab|cd)    =	True
	Make unpacked (ab|cd) =	False
	Cache Level     =	2
	Cache Type      =	LRU
	Local CC        =     No


	Chkpt Parameters:
	--------------------
	Number of irreps     = 4
	Number of MOs        = 46
	Number of active MOs = 45

	Label	# MOs	# FZDC	# DOCC	# SOCC	# VIRT	# FZVR
	-----	-----	------	------	------	------	------
	 A1	   22	    1	    2	    0	    19	    0
	 A2	   4	    0	    0	    0	    4	    0
	 B1	   10	    0	    1	    0	    9	    0
	 B2	   10	    0	    1	    0	    9	    0

	Nuclear Rep. energy (chkpt) =      0.00000000000000
	SCF energy          (chkpt) =   -128.49643839203509

	Size of irrep 0 of <ab|cd> integrals:      0.291 (MW) /      2.324 (MB)
	Size of irrep 1 of <ab|cd> integrals:      0.099 (MW) /      0.789 (MB)
	Size of irrep 2 of <ab|cd> integrals:      0.171 (MW) /      1.371 (MB)
	Size of irrep 3 of <ab|cd> integrals:      0.171 (MW) /      1.371 (MB)
	Total:                                     0.732 (MW) /      5.855 (MB)

	Size of irrep 0 of <ia|bc> integrals:      0.030 (MW) /      0.241 (MB)
	Size of irrep 1 of <ia|bc> integrals:      0.008 (MW) /      0.065 (MB)
	Size of irrep 2 of <ia|bc> integrals:      0.017 (MW) /      0.136 (MB)
	Size of irrep 3 of <ia|bc> integrals:      0.017 (MW) /      0.136 (MB)
	Total:                                     0.072 (MW) /      0.578 (MB)

	Size of irrep 0 of tijab amplitudes:       0.003 (MW) /      0.026 (MB)
	Size of irrep 1 of tijab amplitudes:       0.001 (MW) /      0.005 (MB)
	Size of irrep 2 of tijab amplitudes:       0.002 (MW) /      0.013 (MB)
	Size of irrep 3 of tijab amplitudes:       0.002 (MW) /      0.013 (MB)
	Total:                                     0.007 (MW) /      0.057 (MB)


	Sorting File: A <ij|kl> nbuckets = 1
	Sorting File: B(+) <ab|cd> nbuckets = 1
	Sorting File: C <ia|jb> nbuckets = 1
	Sorting File: D <ij|ab> nbuckets = 1
	Sorting File: E <ai|jk> nbuckets = 1
	Sorting File: F <ia|bc> nbuckets = 1
	One-electron energy          =    -60.29634960169898
	Two-electron (AA) energy     =     10.01572024911201
	Two-electron (BB) energy     =     10.01572024911201
	Two-electron (AB) energy     =     15.63308578838329
	Two-electron energy          =     25.64880603749530
	Frozen-core energy (transqt) =    -93.84889482783137
	Reference energy             =   -128.49643839203506

*** tstop() called on sherrill-laptop at Sat Jan 21 09:31:51 2012
Module time:
	user time   =       0.07 seconds =       0.00 minutes
	system time =       0.06 seconds =       0.00 minutes
	total time  =          0 seconds =       0.00 minutes
Total time:
	user time   =       4.01 seconds =       0.07 minutes
	system time =       1.08 seconds =       0.02 minutes
	total time  =          5 seconds =       0.08 minutes

*** tstart() called on sherrill-laptop
*** at Sat Jan 21 09:31:51 2012

			**************************
			*                        *
			*        CCENERGY        *
			*                        *
			**************************

	Nuclear Rep. energy (chkpt)   =    0.000000000000000
	SCF energy          (chkpt)   = -128.496438392035088
	Reference energy    (file100) = -128.496438392035060

	Input parameters:
	-----------------
	Wave function   =   CCSD_T
	Reference wfn   =     RHF
	Memory (Mbytes) =     250.0
	Maxiter         =     50
	Convergence     =     1.0e-07
	Restart         =     No
	DIIS            =     Yes
	AO Basis        =     NONE
	ABCD            =     NEW
	Cache Level     =     2
	Cache Type      =     LOW
	Print Level     =     1
	Num. of threads =     1
	# Amps to Print =     10
	Print MP2 Amps? =     No
	Analyze T2 Amps =     No
	Print Pair Ener =     No
	Local CC        =     No
	SCS-MP2         =     False
	SCSN-MP2        =     False
	SCS-CCSD        =     False

	            Solving CC Amplitude Equations
	            ------------------------------
  Iter             Energy              RMS        T1Diag      D1Diag    New D1Diag
  ----     ---------------------    ---------   ----------  ----------  ----------
     0        -0.206930597299789    6.279e-08    0.000000    0.000000    0.000000
     1        -0.207285299642486    2.745e-02    0.008612    0.013707    0.013707
     2        -0.209745655606965    7.158e-03    0.008273    0.013048    0.013048
     3        -0.210268981721192    2.789e-03    0.009277    0.014651    0.014651
     4        -0.210229328714238    3.565e-04    0.009387    0.014827    0.014827
     5        -0.210219912623671    8.554e-05    0.009406    0.014860    0.014860
     6        -0.210219561104147    2.015e-05    0.009410    0.014868    0.014868
     7        -0.210219319005500    6.022e-06    0.009411    0.014870    0.014870
     8        -0.210219215572323    1.220e-06    0.009411    0.014870    0.014870
     9        -0.210219206791583    2.695e-07    0.009411    0.014870    0.014870
    10        -0.210219203382799    6.279e-08    0.009411    0.014870    0.014870

	Iterations converged.


	Largest TIA Amplitudes:
	          1   2        -0.0125301049
	          2  24        -0.0115227301
	          3  33        -0.0115227301
	          2  23         0.0088876797
	          3  32         0.0088876797
	          1   0         0.0055066970
	          0   1        -0.0050988290
	          0   3         0.0038389939
	          1   3        -0.0038296674
	          1   1        -0.0031156062

	Largest TIjAb Amplitudes:
	  2   2  27  27        -0.0331210637
	  3   3  36  36        -0.0331210637
	  1   1   8   8        -0.0302549294
	  2   3  27  36        -0.0236707619
	  3   2  36  27        -0.0236707619
	  1   2   8  27        -0.0219483737
	  2   1  27   8        -0.0219483737
	  1   3   8  36        -0.0219483737
	  3   1  36   8        -0.0219483737
	  0   2  11  27         0.0176262349

	SCF energy       (chkpt)              = -128.496438392035088
	Reference energy (file100)            = -128.496438392035060

	Opposite-spin MP2 correlation energy  =   -0.150180638464786
	Same-spin MP2 correlation energy      =   -0.056749958835003
	MP2 correlation energy                =   -0.206930597299789
      * MP2 total energy                      = -128.703368989334848

	Opposite-spin CCSD correlation energy =   -0.157937017206069
	Same-spin CCSD correlation energy     =   -0.052282185912130
	CCSD correlation energy               =   -0.210219203382799
      * CCSD total energy                     = -128.706657595417852


*** tstop() called on sherrill-laptop at Sat Jan 21 09:31:52 2012
Module time:
	user time   =       0.35 seconds =       0.01 minutes
	system time =       0.30 seconds =       0.00 minutes
	total time  =          1 seconds =       0.02 minutes
Total time:
	user time   =       4.37 seconds =       0.07 minutes
	system time =       1.38 seconds =       0.02 minutes
	total time  =          6 seconds =       0.10 minutes

*** tstart() called on sherrill-laptop
*** at Sat Jan 21 09:31:52 2012

			**************************
			*                        *
			*        CCTRIPLES       *
			*                        *
			**************************


	Wave function   =    CCSD_T
	Reference wfn   =      RHF

	Nuclear Rep. energy (chkpt)   =    0.000000000000000
	SCF energy          (chkpt)   = -128.496438392035088
	Reference energy    (file100) = -128.496438392035060
	CCSD energy         (file100) =   -0.210219203382799
	Total CCSD energy   (file100) = -128.706657595417852

	Number of ijk index combinations: 20

	(T) energy                    =   -0.002807365244467
      * CCSD(T) total energy          = -128.709464960662331


*** tstop() called on sherrill-laptop at Sat Jan 21 09:31:52 2012
Module time:
	user time   =       0.10 seconds =       0.00 minutes
	system time =       0.02 seconds =       0.00 minutes
	total time  =          0 seconds =       0.00 minutes
Total time:
	user time   =       4.47 seconds =       0.07 minutes
	system time =       1.40 seconds =       0.02 minutes
	total time  =          6 seconds =       0.10 minutes

  //>>>>>>>>>>>>>>>>>>>>>>>>>>>>>>>>>>>//
  //      CP Computation: Results.     //
  //<<<<<<<<<<<<<<<<<<<<<<<<<<<<<<<<<<<//

============= Hartree =============
   System:  Energy (full):
   Complex -257.4177224230
 Monomer 1 -128.7094649607
 Monomer 2 -128.7094649607
Interaction    0.0012074984

=========== kcal*mol^-1 ===========
   System:  Energy (full):
   Complex-161532.1949976289
 Monomer 1-80766.4763574652
 Monomer 2-80766.4763574652
Interaction    0.7577173015
Setting geometry variable R to 3.000000

  //>>>>>>>>>>>>>>>>>>>>>>>>>>>>>>>>>>>//
  //      CP Computation: Complex.     //
  //          Full Basis Set.          //
  //<<<<<<<<<<<<<<<<<<<<<<<<<<<<<<<<<<<//


*** tstart() called on sherrill-laptop
*** at Sat Jan 21 09:31:52 2012

	There are an even number of electrons - assuming singlet.
	Specify the multiplicity with the MULTP option in the
	input if this is incorrect


         ---------------------------------------------------------
                                   SCF
            by Justin Turney, Rob Parrish, and Andy Simmonett
                              RHF Reference
                        1 Threads,    250 MiB Core
         ---------------------------------------------------------

  ==> Geometry <==

    Molecular point group: d2h

    Geometry (in Angstrom), charge = 0, multiplicity = 1:

       Center              X                  Y                   Z       
    ------------   -----------------  -----------------  -----------------
          NE          0.000000000000     0.000000000000    -1.500000000000
          NE          0.000000000000     0.000000000000     1.500000000000

    Number of unique atoms: 1

    Atoms equivalency:
       unique atom 0: 0 1 

  Running in d2h symmetry.

  Nuclear repulsion =   17.639241633333331

  Charge       = 0
  Multiplicity = 1
  Electrons    = 20
  Nalpha       = 10
  Nbeta        = 10

  ==> Algorithm <==

  SCF Algorithm Type is PK.
  DIIS enabled.
  MOM disabled.
  Fractional occupation disabled.
  Guess Type is CORE.
  Energy threshold   = 1.00e-08
  Density threshold  = 1.00e-08
  Integral threshold = 0.00e+00

  ==> Primary Basis: AUG-CC-PVDZ <==

  Basis Set
    Number of shells: 18
    Number of basis function: 46
    Number of Cartesian functions: 50
    Spherical Harmonics?: true
    Max angular momentum: 2

  ==> Pre-Iterations <==

  Minimum eigenvalue in the overlap matrix is 7.0501609328E-02.
  Using Symmetric Orthogonalization.
  SCF Guess: Core (One-Electron) Hamiltonian.

  Initial RHF energy:  -195.15583737305738

   -------------------------------------------------------
    Irrep   Nso     Nmo     Nalpha   Nbeta   Ndocc  Nsocc
   -------------------------------------------------------
     Ag        11      11       3       3       3       0
     B1g        2       2       0       0       0       0
     B2g        5       5       1       1       1       0
     B3g        5       5       1       1       1       0
     Au         2       2       0       0       0       0
     B1u       11      11       3       3       3       0
     B2u        5       5       1       1       1       0
     B3u        5       5       1       1       1       0
   -------------------------------------------------------
    Total      46      46      10      10      10       0
   -------------------------------------------------------

  ==> Integral Setup <==

 MINTS: Wrapper to libmints.
   by Justin Turney

   Calculation information:
      Number of atoms:                   2
      Number of AO shells:              18
      Number of SO shells:               9
      Number of primitives:             50
      Number of atomic orbitals:        50
      Number of basis functions:        46

      Number of irreps:                  8
      Number of functions per irrep: [  11    2    5    5    2   11    5    5 ]

      Overlap, kinetic, potential, dipole, and quadrupole integrals
        stored in file 35.

      Computing two-electron integrals...done
      Computed 69839 non-zero two-electron integrals.
        Stored in file 33.

  ==> Iterations <==

                        Total Energy        Delta E     Density RMS

   @RHF iter   1:  -245.00382813904113   -4.98480e+01   0.00000e+00 
   @RHF iter   2:  -240.12925696189322    4.87457e+00   2.09390e-01 DIIS
   @RHF iter   3:  -256.55896565065200   -1.64297e+01   1.44990e-01 DIIS
   @RHF iter   4:  -256.98030549772875   -4.21340e-01   1.87087e-02 DIIS
   @RHF iter   5:  -256.99250491688991   -1.21994e-02   3.10443e-03 DIIS
   @RHF iter   6:  -256.99259428716283   -8.93703e-05   3.80802e-04 DIIS
   @RHF iter   7:  -256.99259532886470   -1.04170e-06   4.68181e-05 DIIS
   @RHF iter   8:  -256.99259533046870   -1.60401e-09   1.48580e-06 DIIS
   @RHF iter   9:  -256.99259533068204   -2.13333e-10   7.58238e-07 DIIS
   @RHF iter  10:  -256.99259533068317   -1.13687e-12   4.66347e-08 DIIS

  ==> Post-Iterations <==

	Orbital Energies (a.u.)
	-----------------------

	Doubly Occupied:                                                      

	   1B1u  -32.794722     1Ag   -32.794719     2Ag    -1.940656  
	   2B1u   -1.939890     3Ag    -0.857576     1B3u   -0.853473  
	   1B2u   -0.853473     1B2g   -0.852232     1B3g   -0.852232  
	   3B1u   -0.848333  

	Virtual:                                                              

	   4Ag     0.249518     2B2u    0.264955     2B3u    0.264955  
	   4B1u    0.268794     5Ag     0.323898     2B2g    0.335906  
	   2B3g    0.335906     5B1u    0.508295     6Ag     1.742128  
	   3B3u    1.753558     3B2u    1.753558     7Ag     1.757521  
	   1B1g    1.757521     6B1u    1.758032     1Au     1.758032  
	   3B2g    1.761952     3B3g    1.761952     7B1u    1.800249  
	   4B2u    1.957420     4B3u    1.957420     8B1u    1.974882  
	   4B2g    1.982808     4B3g    1.982808     8Ag     2.039803  
	   9Ag     2.741325     9B1u    2.880608    10Ag     6.363459  
	   5B3u    6.371322     5B2u    6.371322    11Ag     6.372505  
	   2B1g    6.372505    10B1u    6.372796     2Au     6.372796  
	   5B2g    6.377346     5B3g    6.377346    11B1u    6.420082  

	Final Occupation by Irrep:
	         Ag   B1g   B2g   B3g    Au   B1u   B2u   B3u 
	DOCC [     3,    0,    1,    1,    0,    3,    1,    1 ]

  Energy converged.

  @RHF Final Energy:  -256.99259533068317

  ==> Properties <==
  Nuclear Dipole Moment: (a.u.)
     X:     0.0000      Y:     0.0000      Z:     0.0000

  Electronic Dipole Moment: (a.u.)
     X:     0.0000      Y:     0.0000      Z:     0.0000

  Dipole Moment: (a.u.)
     X:     0.0000      Y:     0.0000      Z:     0.0000     Total:     0.0000

  Dipole Moment: (Debye)
     X:     0.0000      Y:     0.0000      Z:     0.0000     Total:     0.0000


  Saving occupied orbitals to File 180.

*** tstop() called on sherrill-laptop at Sat Jan 21 09:31:53 2012
Module time:
	user time   =       0.67 seconds =       0.01 minutes
	system time =       0.03 seconds =       0.00 minutes
	total time  =          1 seconds =       0.02 minutes
Total time:
	user time   =       5.14 seconds =       0.09 minutes
	system time =       1.43 seconds =       0.02 minutes
	total time  =          7 seconds =       0.12 minutes

*** tstart() called on sherrill-laptop
*** at Sat Jan 21 09:31:53 2012


	**************************************************
	* TRANSQT2: Program to transform integrals from  *
	*           the SO basis to the MO basis.        *
	*                                                *
	*            Daniel, David, & Justin             *
	**************************************************


	Input parameters:
	-----------------
	Wave function   =	CCSD_T
	Backtransform   =	No
	Print Level     =	1
	Print TEIs      =	No
	Reference wfn   =	RHF
	Derivative      =	None
	Delete TEI File =	Yes
	Memory (Mbytes) =	250.0
	Cache Level     =	2
	Cache Type      =	LRU
	Chkpt Parameters:
	--------------------
	Number of irreps     = 8
	Number of SOs        = 46
	Number of MOs        = 46
	Number of active MOs = 44

	Label	# SOs	# FZDC	# DOCC	# SOCC	# VIRT	# FZVR
	-----	-----	------	------	------	------	------
	 Ag	   11	    1	    2	    0	    8	    0
	 B1g	   2	    0	    0	    0	    2	    0
	 B2g	   5	    0	    1	    0	    4	    0
	 B3g	   5	    0	    1	    0	    4	    0
	 Au	   2	    0	    0	    0	    2	    0
	 B1u	   11	    1	    2	    0	    8	    0
	 B2u	   5	    0	    1	    0	    4	    0
	 B3u	   5	    0	    1	    0	    4	    0

	Nuclear Rep. energy (chkpt) =     17.63924163333333
	SCF energy          (chkpt) =   -256.99259533068317

	Presorting SO-basis two-electron integrals.
	Sorting File: SO Ints (pq,rs) nbuckets = 1
	Frozen-core energy = -194.047921198512938
	Starting first half-transformation.
	Sorting half-transformed integrals.
	Starting second half-transformation.
	Two-electron integral transformation complete.

*** tstop() called on sherrill-laptop at Sat Jan 21 09:31:53 2012
Module time:
	user time   =       0.09 seconds =       0.00 minutes
	system time =       0.02 seconds =       0.00 minutes
	total time  =          0 seconds =       0.00 minutes
Total time:
	user time   =       5.23 seconds =       0.09 minutes
	system time =       1.45 seconds =       0.02 minutes
	total time  =          7 seconds =       0.12 minutes

*** tstart() called on sherrill-laptop
*** at Sat Jan 21 09:31:53 2012


			**************************
			*                        *
			*         CCSORT         *
			*                        *
			**************************


	Input parameters:
	-----------------
	Wave function   =	CCSD_T
	Reference wfn   =	RHF
	Derivative      =	None
	Memory (Mbytes) =	250.0
	AO Basis        =	NONE
	Make (ab|cd)    =	True
	Make unpacked (ab|cd) =	False
	Cache Level     =	2
	Cache Type      =	LRU
	Local CC        =     No


	Chkpt Parameters:
	--------------------
	Number of irreps     = 8
	Number of MOs        = 46
	Number of active MOs = 44

	Label	# MOs	# FZDC	# DOCC	# SOCC	# VIRT	# FZVR
	-----	-----	------	------	------	------	------
	 Ag	   11	    1	    2	    0	    8	    0
	 B1g	   2	    0	    0	    0	    2	    0
	 B2g	   5	    0	    1	    0	    4	    0
	 B3g	   5	    0	    1	    0	    4	    0
	 Au	   2	    0	    0	    0	    2	    0
	 B1u	   11	    1	    2	    0	    8	    0
	 B2u	   5	    0	    1	    0	    4	    0
	 B3u	   5	    0	    1	    0	    4	    0

	Nuclear Rep. energy (chkpt) =     17.63924163333333
	SCF energy          (chkpt) =   -256.99259533068317

	Size of irrep 0 of <ab|cd> integrals:      0.040 (MW) /      0.320 (MB)
	Size of irrep 1 of <ab|cd> integrals:      0.016 (MW) /      0.131 (MB)
	Size of irrep 2 of <ab|cd> integrals:      0.026 (MW) /      0.205 (MB)
	Size of irrep 3 of <ab|cd> integrals:      0.026 (MW) /      0.205 (MB)
	Size of irrep 4 of <ab|cd> integrals:      0.016 (MW) /      0.131 (MB)
	Size of irrep 5 of <ab|cd> integrals:      0.040 (MW) /      0.320 (MB)
	Size of irrep 6 of <ab|cd> integrals:      0.026 (MW) /      0.205 (MB)
	Size of irrep 7 of <ab|cd> integrals:      0.026 (MW) /      0.205 (MB)
	Total:                                     0.215 (MW) /      1.721 (MB)

	Size of irrep 0 of <ia|bc> integrals:      0.010 (MW) /      0.077 (MB)
	Size of irrep 1 of <ia|bc> integrals:      0.003 (MW) /      0.025 (MB)
	Size of irrep 2 of <ia|bc> integrals:      0.006 (MW) /      0.046 (MB)
	Size of irrep 3 of <ia|bc> integrals:      0.006 (MW) /      0.046 (MB)
	Size of irrep 4 of <ia|bc> integrals:      0.003 (MW) /      0.025 (MB)
	Size of irrep 5 of <ia|bc> integrals:      0.010 (MW) /      0.077 (MB)
	Size of irrep 6 of <ia|bc> integrals:      0.006 (MW) /      0.046 (MB)
	Size of irrep 7 of <ia|bc> integrals:      0.006 (MW) /      0.046 (MB)
	Total:                                     0.048 (MW) /      0.387 (MB)

	Size of irrep 0 of tijab amplitudes:       0.002 (MW) /      0.019 (MB)
	Size of irrep 1 of tijab amplitudes:       0.001 (MW) /      0.004 (MB)
	Size of irrep 2 of tijab amplitudes:       0.001 (MW) /      0.010 (MB)
	Size of irrep 3 of tijab amplitudes:       0.001 (MW) /      0.010 (MB)
	Size of irrep 4 of tijab amplitudes:       0.001 (MW) /      0.004 (MB)
	Size of irrep 5 of tijab amplitudes:       0.002 (MW) /      0.019 (MB)
	Size of irrep 6 of tijab amplitudes:       0.001 (MW) /      0.010 (MB)
	Size of irrep 7 of tijab amplitudes:       0.001 (MW) /      0.010 (MB)
	Total:                                     0.011 (MW) /      0.088 (MB)


	Sorting File: A <ij|kl> nbuckets = 1
	Sorting File: B(+) <ab|cd> nbuckets = 1
	Sorting File: C <ia|jb> nbuckets = 1
	Sorting File: D <ij|ab> nbuckets = 1
	Sorting File: E <ai|jk> nbuckets = 1
	Sorting File: F <ia|bc> nbuckets = 1
	One-electron energy          =   -143.17210267902456
	Two-electron (AA) energy     =     25.67650605006196
	Two-electron (BB) energy     =     25.67650605006196
	Two-electron (AB) energy     =     36.91168086345897
	Two-electron energy          =     62.58818691352093
	Frozen-core energy (transqt) =   -194.04792119851294
	Reference energy             =   -256.99259533068323

*** tstop() called on sherrill-laptop at Sat Jan 21 09:31:53 2012
Module time:
	user time   =       0.06 seconds =       0.00 minutes
	system time =       0.04 seconds =       0.00 minutes
	total time  =          0 seconds =       0.00 minutes
Total time:
	user time   =       5.29 seconds =       0.09 minutes
	system time =       1.49 seconds =       0.02 minutes
	total time  =          7 seconds =       0.12 minutes

*** tstart() called on sherrill-laptop
*** at Sat Jan 21 09:31:53 2012

			**************************
			*                        *
			*        CCENERGY        *
			*                        *
			**************************

	Nuclear Rep. energy (chkpt)   =   17.639241633333331
	SCF energy          (chkpt)   = -256.992595330683173
	Reference energy    (file100) = -256.992595330683230

	Input parameters:
	-----------------
	Wave function   =   CCSD_T
	Reference wfn   =     RHF
	Memory (Mbytes) =     250.0
	Maxiter         =     50
	Convergence     =     1.0e-07
	Restart         =     No
	DIIS            =     Yes
	AO Basis        =     NONE
	ABCD            =     NEW
	Cache Level     =     2
	Cache Type      =     LOW
	Print Level     =     1
	Num. of threads =     1
	# Amps to Print =     10
	Print MP2 Amps? =     No
	Analyze T2 Amps =     No
	Print Pair Ener =     No
	Local CC        =     No
	SCS-MP2         =     False
	SCSN-MP2        =     False
	SCS-CCSD        =     False

	            Solving CC Amplitude Equations
	            ------------------------------
  Iter             Energy              RMS        T1Diag      D1Diag    New D1Diag
  ----     ---------------------    ---------   ----------  ----------  ----------
     0        -0.413936942020876    6.279e-08    0.000000    0.000000    0.000000
     1        -0.414661541898521    3.876e-02    0.008597    0.015531    0.015531
     2        -0.419581016746920    1.009e-02    0.008263    0.014829    0.014829
     3        -0.420624490929778    3.928e-03    0.009265    0.016676    0.016676
     4        -0.420543832271458    4.935e-04    0.009374    0.016872    0.016872
     5        -0.420525968289469    1.116e-04    0.009392    0.016909    0.016909
     6        -0.420525418458913    2.369e-05    0.009396    0.016917    0.016917
     7        -0.420524900100340    6.797e-06    0.009397    0.016918    0.016918
     8        -0.420524725534221    1.310e-06    0.009397    0.016919    0.016919
     9        -0.420524721904717    3.138e-07    0.009397    0.016919    0.016919
    10        -0.420524715082244    8.755e-08    0.009397    0.016919    0.016919

	Iterations converged.


	Largest TIA Amplitudes:
	          1   1         0.0153880935
	          6  28        -0.0153068765
	          7  32        -0.0153068765
	          2  10        -0.0137663265
	          3  14        -0.0137663265
	          5  20        -0.0101455241
	          0   0         0.0067936579
	          1   0        -0.0063640362
	          5  21         0.0062626177
	          4  20         0.0047016775

	Largest TIjAb Amplitudes:
	  2   2  34  34        -0.0168494287
	  3   3  30  30        -0.0168494287
	  6   6  30  30        -0.0167840446
	  7   7  34  34        -0.0167840446
	  2   2  12  12        -0.0164847109
	  3   3  16  16        -0.0164847109
	  2   7  12  34        -0.0164790135
	  3   6  16  30        -0.0164790135
	  6   3  30  16        -0.0164790135
	  7   2  34  12        -0.0164790135

	SCF energy       (chkpt)              = -256.992595330683173
	Reference energy (file100)            = -256.992595330683230

	Opposite-spin MP2 correlation energy  =   -0.300384530750556
	Same-spin MP2 correlation energy      =   -0.113552411270321
	MP2 correlation energy                =   -0.413936942020877
      * MP2 total energy                      = -257.406532272704112

	Opposite-spin CCSD correlation energy =   -0.315897278280878
	Same-spin CCSD correlation energy     =   -0.104627436082880
	CCSD correlation energy               =   -0.420524715082244
      * CCSD total energy                     = -257.413120045765481


*** tstop() called on sherrill-laptop at Sat Jan 21 09:31:54 2012
Module time:
	user time   =       0.41 seconds =       0.01 minutes
	system time =       0.33 seconds =       0.01 minutes
	total time  =          1 seconds =       0.02 minutes
Total time:
	user time   =       5.71 seconds =       0.10 minutes
	system time =       1.82 seconds =       0.03 minutes
	total time  =          8 seconds =       0.13 minutes

*** tstart() called on sherrill-laptop
*** at Sat Jan 21 09:31:54 2012

			**************************
			*                        *
			*        CCTRIPLES       *
			*                        *
			**************************


	Wave function   =    CCSD_T
	Reference wfn   =      RHF

	Nuclear Rep. energy (chkpt)   =   17.639241633333331
	SCF energy          (chkpt)   = -256.992595330683173
	Reference energy    (file100) = -256.992595330683230
	CCSD energy         (file100) =   -0.420524715082244
	Total CCSD energy   (file100) = -257.413120045765481

	Number of ijk index combinations: 120

	(T) energy                    =   -0.005617711488297
      * CCSD(T) total energy          = -257.418737757253780


*** tstop() called on sherrill-laptop at Sat Jan 21 09:31:54 2012
Module time:
	user time   =       0.12 seconds =       0.00 minutes
	system time =       0.01 seconds =       0.00 minutes
	total time  =          0 seconds =       0.00 minutes
Total time:
	user time   =       5.83 seconds =       0.10 minutes
	system time =       1.83 seconds =       0.03 minutes
	total time  =          8 seconds =       0.13 minutes

  //>>>>>>>>>>>>>>>>>>>>>>>>>>>>>>>>>>>//
  //     CP Computation: Monomer 1.    //
  //           Full Basis Set.         //
  //<<<<<<<<<<<<<<<<<<<<<<<<<<<<<<<<<<<//


*** tstart() called on sherrill-laptop
*** at Sat Jan 21 09:31:54 2012

	There are an even number of electrons - assuming singlet.
	Specify the multiplicity with the MULTP option in the
	input if this is incorrect


         ---------------------------------------------------------
                                   SCF
            by Justin Turney, Rob Parrish, and Andy Simmonett
                              RHF Reference
                        1 Threads,    250 MiB Core
         ---------------------------------------------------------

  ==> Geometry <==

    Molecular point group: c2v

    Geometry (in Angstrom), charge = 0, multiplicity = 1:

       Center              X                  Y                   Z       
    ------------   -----------------  -----------------  -----------------
          NE          0.000000000000     0.000000000000    -1.500000000000
          NE(Gh)      0.000000000000     0.000000000000     1.500000000000

    Number of unique atoms: 2

    Atoms equivalency:
       unique atom 0: 0 
       unique atom 1: 1 

  Running in c2v symmetry.

  Nuclear repulsion =    0.000000000000000

  Charge       = 0
  Multiplicity = 1
  Electrons    = 10
  Nalpha       = 5
  Nbeta        = 5

  ==> Algorithm <==

  SCF Algorithm Type is PK.
  DIIS enabled.
  MOM disabled.
  Fractional occupation disabled.
  Guess Type is CORE.
  Energy threshold   = 1.00e-08
  Density threshold  = 1.00e-08
  Integral threshold = 0.00e+00

  ==> Primary Basis: AUG-CC-PVDZ <==

  Basis Set
    Number of shells: 18
    Number of basis function: 46
    Number of Cartesian functions: 50
    Spherical Harmonics?: true
    Max angular momentum: 2

  ==> Pre-Iterations <==

  Minimum eigenvalue in the overlap matrix is 7.0501609328E-02.
  Using Symmetric Orthogonalization.
  SCF Guess: Core (One-Electron) Hamiltonian.

  Initial RHF energy:   -97.57449058171021

   -------------------------------------------------------
    Irrep   Nso     Nmo     Nalpha   Nbeta   Ndocc  Nsocc
   -------------------------------------------------------
     A1        22      22       3       3       3       0
     A2         4       4       0       0       0       0
     B1        10      10       1       1       1       0
     B2        10      10       1       1       1       0
   -------------------------------------------------------
    Total      46      46       5       5       5       0
   -------------------------------------------------------

  ==> Integral Setup <==

 MINTS: Wrapper to libmints.
   by Justin Turney

   Calculation information:
      Number of atoms:                   2
      Number of AO shells:              18
      Number of SO shells:              18
      Number of primitives:             50
      Number of atomic orbitals:        50
      Number of basis functions:        46

      Number of irreps:                  4
      Number of functions per irrep: [  22    4   10   10 ]

      Overlap, kinetic, potential, dipole, and quadrupole integrals
        stored in file 35.

      Computing two-electron integrals...done
      Computed 108890 non-zero two-electron integrals.
        Stored in file 33.

  ==> Iterations <==

                        Total Energy        Delta E     Density RMS

   @RHF iter   1:  -122.50249921782537   -2.49280e+01   0.00000e+00 
   @RHF iter   2:  -117.22961224208035    5.27289e+00   1.04555e-01 DIIS
   @RHF iter   3:  -128.12789826538543   -1.08983e+01   7.32908e-02 DIIS
   @RHF iter   4:  -128.48693013605396   -3.59032e-01   1.22147e-02 DIIS
   @RHF iter   5:  -128.49630911068536   -9.37897e-03   2.17374e-03 DIIS
   @RHF iter   6:  -128.49636837149708   -5.92608e-05   3.07163e-04 DIIS
   @RHF iter   7:  -128.49637212161008   -3.75011e-06   5.43722e-05 DIIS
   @RHF iter   8:  -128.49637218034513   -5.87351e-08   7.11479e-06 DIIS
   @RHF iter   9:  -128.49637218210171   -1.75658e-09   1.46985e-06 DIIS
   @RHF iter  10:  -128.49637218211251   -1.08002e-11   8.49336e-08 DIIS

  ==> Post-Iterations <==

	Orbital Energies (a.u.)
	-----------------------

	Doubly Occupied:                                                      

	   1A1   -32.794931     2A1    -1.940386     3A1    -0.853008  
	   1B2    -0.852986     1B1    -0.852986  

	Virtual:                                                              

	   4A1     0.158918     2B1     0.240597     2B2     0.240597  
	   5A1     0.245128     6A1     0.303214     3B1     0.320244  
	   3B2     0.320244     7A1     0.456052     8A1     1.060651  
	   4B2     1.309590     4B1     1.309590     9A1     1.336807  
	   1A2     1.757720    10A1     1.757720     5B1     1.761378  
	   5B2     1.761378    11A1     1.784270     6B2     1.963564  
	   6B1     1.963564    12A1     1.993176    13A1     2.123643  
	   2A2     2.123643     7B1     2.130659     7B2     2.130659  
	  14A1     2.160300    15A1     2.814902    16A1     4.678188  
	  17A1     6.372528     3A2     6.372528     8B1     6.374053  
	   8B2     6.374053    18A1     6.391817     9B1     8.947159  
	   9B2     8.947159    19A1     8.956270     4A2     8.956270  
	  20A1     8.958350    10B2     8.958536    10B1     8.958536  
	  21A1     8.998291    22A1    53.414611  

	Final Occupation by Irrep:
	         A1    A2    B1    B2 
	DOCC [     3,    0,    1,    1 ]

  Energy converged.

  @RHF Final Energy:  -128.49637218211251

  ==> Properties <==
  Nuclear Dipole Moment: (a.u.)
     X:     0.0000      Y:     0.0000      Z:   -28.3459

  Electronic Dipole Moment: (a.u.)
     X:     0.0000      Y:     0.0000      Z:    28.3452

  Dipole Moment: (a.u.)
     X:     0.0000      Y:     0.0000      Z:    -0.0007     Total:     0.0007

  Dipole Moment: (Debye)
     X:     0.0000      Y:     0.0000      Z:    -0.0019     Total:     0.0019


  Saving occupied orbitals to File 180.

*** tstop() called on sherrill-laptop at Sat Jan 21 09:31:55 2012
Module time:
	user time   =       0.86 seconds =       0.01 minutes
	system time =       0.00 seconds =       0.00 minutes
	total time  =          1 seconds =       0.02 minutes
Total time:
	user time   =       6.69 seconds =       0.11 minutes
	system time =       1.83 seconds =       0.03 minutes
	total time  =          9 seconds =       0.15 minutes

*** tstart() called on sherrill-laptop
*** at Sat Jan 21 09:31:55 2012


	**************************************************
	* TRANSQT2: Program to transform integrals from  *
	*           the SO basis to the MO basis.        *
	*                                                *
	*            Daniel, David, & Justin             *
	**************************************************


	Input parameters:
	-----------------
	Wave function   =	CCSD_T
	Backtransform   =	No
	Print Level     =	1
	Print TEIs      =	No
	Reference wfn   =	RHF
	Derivative      =	None
	Delete TEI File =	Yes
	Memory (Mbytes) =	250.0
	Cache Level     =	2
	Cache Type      =	LRU
	Chkpt Parameters:
	--------------------
	Number of irreps     = 4
	Number of SOs        = 46
	Number of MOs        = 46
	Number of active MOs = 45

	Label	# SOs	# FZDC	# DOCC	# SOCC	# VIRT	# FZVR
	-----	-----	------	------	------	------	------
	 A1	   22	    1	    2	    0	    19	    0
	 A2	   4	    0	    0	    0	    4	    0
	 B1	   10	    0	    1	    0	    9	    0
	 B2	   10	    0	    1	    0	    9	    0

	Nuclear Rep. energy (chkpt) =      0.00000000000000
	SCF energy          (chkpt) =   -128.49637218211251

	Presorting SO-basis two-electron integrals.
	Sorting File: SO Ints (pq,rs) nbuckets = 1
	Frozen-core energy =  -93.848897029057241
	Starting first half-transformation.
	Sorting half-transformed integrals.
	Starting second half-transformation.
	Two-electron integral transformation complete.

*** tstop() called on sherrill-laptop at Sat Jan 21 09:31:55 2012
Module time:
	user time   =       0.16 seconds =       0.00 minutes
[...]
	  2   2  27  27        -0.0336764078
	  3   3  36  36        -0.0336764078
	  1   1   8   8        -0.0321270051
	  2   3  27  36        -0.0240698130
	  3   2  36  27        -0.0240698130
	  1   2   8  27         0.0234934174
	  2   1  27   8         0.0234934174
	  1   3   8  36         0.0234934174
	  3   1  36   8         0.0234934174
	  0   2  11  27        -0.0184037358

	SCF energy       (chkpt)              = -128.496351795933094
	Reference energy (file100)            = -128.496351795933066

	Opposite-spin MP2 correlation energy  =   -0.150152677681752
	Same-spin MP2 correlation energy      =   -0.056742460701739
	MP2 correlation energy                =   -0.206895138383491
      * MP2 total energy                      = -128.703246934316553

	Opposite-spin CCSD correlation energy =   -0.157904849736587
	Same-spin CCSD correlation energy     =   -0.052272554431605
	CCSD correlation energy               =   -0.210177404501817
      * CCSD total energy                     = -128.706529200434886


*** tstop() called on sherrill-laptop at Sat Jan 21 09:32:02 2012
Module time:
	user time   =       0.28 seconds =       0.00 minutes
	system time =       0.36 seconds =       0.01 minutes
	total time  =          1 seconds =       0.02 minutes
Total time:
	user time   =      11.66 seconds =       0.19 minutes
	system time =       3.58 seconds =       0.06 minutes
	total time  =         16 seconds =       0.27 minutes

*** tstart() called on sherrill-laptop
*** at Sat Jan 21 09:32:02 2012

			**************************
			*                        *
			*        CCTRIPLES       *
			*                        *
			**************************


	Wave function   =    CCSD_T
	Reference wfn   =      RHF

	Nuclear Rep. energy (chkpt)   =    0.000000000000000
	SCF energy          (chkpt)   = -128.496351795933094
	Reference energy    (file100) = -128.496351795933066
	CCSD energy         (file100) =   -0.210177404501817
	Total CCSD energy   (file100) = -128.706529200434886

	Number of ijk index combinations: 20

	(T) energy                    =   -0.002794855190299
      * CCSD(T) total energy          = -128.709324055625189


*** tstop() called on sherrill-laptop at Sat Jan 21 09:32:02 2012
Module time:
	user time   =       0.10 seconds =       0.00 minutes
	system time =       0.02 seconds =       0.00 minutes
	total time  =          0 seconds =       0.00 minutes
Total time:
	user time   =      11.76 seconds =       0.20 minutes
	system time =       3.60 seconds =       0.06 minutes
	total time  =         16 seconds =       0.27 minutes

  //>>>>>>>>>>>>>>>>>>>>>>>>>>>>>>>>>>>//
  //     CP Computation: Monomer 2.    //
  //           Full Basis Set.         //
  //<<<<<<<<<<<<<<<<<<<<<<<<<<<<<<<<<<<//


*** tstart() called on sherrill-laptop
*** at Sat Jan 21 09:32:02 2012

	There are an even number of electrons - assuming singlet.
	Specify the multiplicity with the MULTP option in the
	input if this is incorrect


         ---------------------------------------------------------
                                   SCF
            by Justin Turney, Rob Parrish, and Andy Simmonett
                              RHF Reference
                        1 Threads,    250 MiB Core
         ---------------------------------------------------------

  ==> Geometry <==

    Molecular point group: c2v

    Geometry (in Angstrom), charge = 0, multiplicity = 1:

       Center              X                  Y                   Z       
    ------------   -----------------  -----------------  -----------------
          NE(Gh)      0.000000000000     0.000000000000    -2.000000000000
          NE          0.000000000000     0.000000000000     2.000000000000

    Number of unique atoms: 2

    Atoms equivalency:
       unique atom 0: 0 
       unique atom 1: 1 

  Running in c2v symmetry.

  Nuclear repulsion =    0.000000000000000

  Charge       = 0
  Multiplicity = 1
  Electrons    = 10
  Nalpha       = 5
  Nbeta        = 5

  ==> Algorithm <==

  SCF Algorithm Type is PK.
  DIIS enabled.
  MOM disabled.
  Fractional occupation disabled.
  Guess Type is CORE.
  Energy threshold   = 1.00e-08
  Density threshold  = 1.00e-08
  Integral threshold = 0.00e+00

  ==> Primary Basis: AUG-CC-PVDZ <==

  Basis Set
    Number of shells: 18
    Number of basis function: 46
    Number of Cartesian functions: 50
    Spherical Harmonics?: true
    Max angular momentum: 2

  ==> Pre-Iterations <==

  Minimum eigenvalue in the overlap matrix is 9.2935169297E-02.
  Using Symmetric Orthogonalization.
  SCF Guess: Core (One-Electron) Hamiltonian.

  Initial RHF energy:   -97.57225499349164

   -------------------------------------------------------
    Irrep   Nso     Nmo     Nalpha   Nbeta   Ndocc  Nsocc
   -------------------------------------------------------
     A1        22      22       3       3       3       0
     A2         4       4       0       0       0       0
     B1        10      10       1       1       1       0
     B2        10      10       1       1       1       0
   -------------------------------------------------------
    Total      46      46       5       5       5       0
   -------------------------------------------------------

  ==> Integral Setup <==

 MINTS: Wrapper to libmints.
   by Justin Turney

   Calculation information:
      Number of atoms:                   2
      Number of AO shells:              18
      Number of SO shells:              18
      Number of primitives:             50
      Number of atomic orbitals:        50
      Number of basis functions:        46

      Number of irreps:                  4
      Number of functions per irrep: [  22    4   10   10 ]

      Overlap, kinetic, potential, dipole, and quadrupole integrals
        stored in file 35.

      Computing two-electron integrals...done
      Computed 89367 non-zero two-electron integrals.
        Stored in file 33.

  ==> Iterations <==

                        Total Energy        Delta E     Density RMS

   @RHF iter   1:  -122.51323407208841   -2.49410e+01   0.00000e+00 
   @RHF iter   2:  -117.62926146515629    4.88397e+00   1.06913e-01 DIIS
   @RHF iter   3:  -128.14796286008166   -1.05187e+01   7.68926e-02 DIIS
   @RHF iter   4:  -128.48674879791216   -3.38786e-01   1.18067e-02 DIIS
   @RHF iter   5:  -128.49628588523333   -9.53709e-03   2.09694e-03 DIIS
   @RHF iter   6:  -128.49634733580589   -6.14506e-05   2.93752e-04 DIIS
   @RHF iter   7:  -128.49635173560890   -4.39980e-06   5.72941e-05 DIIS
   @RHF iter   8:  -128.49635179535537   -5.97465e-08   7.57937e-06 DIIS
   @RHF iter   9:  -128.49635179592281   -5.67439e-10   8.80995e-07 DIIS
   @RHF iter  10:  -128.49635179593278   -9.97602e-12   8.30251e-08 DIIS

  ==> Post-Iterations <==

	Orbital Energies (a.u.)
	-----------------------

	Doubly Occupied:                                                      

	   1A1   -32.794958     2A1    -1.940427     1B2    -0.853046  
	   1B1    -0.853046     3A1    -0.853043  

	Virtual:                                                              

	   4A1     0.159222     5A1     0.226541     2B1     0.248140  
	   2B2     0.248140     6A1     0.290073     3B1     0.300645  
	   3B2     0.300645     7A1     0.378335     8A1     1.031120  
	   4B1     1.306212     4B2     1.306212     9A1     1.325037  
	   1A2     1.757689    10A1     1.757689     5B1     1.757806  
	   5B2     1.757806    11A1     1.760416     6B2     1.962470  
	   6B1     1.962470    12A1     1.982522     2A2     2.123616  
	  13A1     2.123616     7B2     2.123852     7B1     2.123852  
	  14A1     2.129673    15A1     2.756965    16A1     4.638903  
	  17A1     6.372467     3A2     6.372467     8B2     6.372505  
	   8B1     6.372505    18A1     6.373502     9B2     8.943094  
	   9B1     8.943094    19A1     8.955046     4A2     8.956239  
	  20A1     8.956239    10B2     8.956280    10B1     8.956280  
	  21A1     8.965860    22A1    53.403904  

	Final Occupation by Irrep:
	         A1    A2    B1    B2 
	DOCC [     3,    0,    1,    1 ]

  Energy converged.

  @RHF Final Energy:  -128.49635179593278

  ==> Properties <==
  Nuclear Dipole Moment: (a.u.)
     X:     0.0000      Y:     0.0000      Z:    37.7945

  Electronic Dipole Moment: (a.u.)
     X:     0.0000      Y:     0.0000      Z:   -37.7946

  Dipole Moment: (a.u.)
     X:     0.0000      Y:     0.0000      Z:    -0.0001     Total:     0.0001

  Dipole Moment: (Debye)
     X:     0.0000      Y:     0.0000      Z:    -0.0003     Total:     0.0003


  Saving occupied orbitals to File 180.

*** tstop() called on sherrill-laptop at Sat Jan 21 09:32:03 2012
Module time:
	user time   =       0.84 seconds =       0.01 minutes
	system time =       0.03 seconds =       0.00 minutes
	total time  =          1 seconds =       0.02 minutes
Total time:
	user time   =      12.60 seconds =       0.21 minutes
	system time =       3.63 seconds =       0.06 minutes
	total time  =         17 seconds =       0.28 minutes

*** tstart() called on sherrill-laptop
*** at Sat Jan 21 09:32:03 2012


	**************************************************
	* TRANSQT2: Program to transform integrals from  *
	*           the SO basis to the MO basis.        *
	*                                                *
	*            Daniel, David, & Justin             *
	**************************************************


	Input parameters:
	-----------------
	Wave function   =	CCSD_T
	Backtransform   =	No
	Print Level     =	1
	Print TEIs      =	No
	Reference wfn   =	RHF
	Derivative      =	None
	Delete TEI File =	Yes
	Memory (Mbytes) =	250.0
	Cache Level     =	2
	Cache Type      =	LRU
	Chkpt Parameters:
	--------------------
	Number of irreps     = 4
	Number of SOs        = 46
	Number of MOs        = 46
	Number of active MOs = 45

	Label	# SOs	# FZDC	# DOCC	# SOCC	# VIRT	# FZVR
	-----	-----	------	------	------	------	------
	 A1	   22	    1	    2	    0	    19	    0
	 A2	   4	    0	    0	    0	    4	    0
	 B1	   10	    0	    1	    0	    9	    0
	 B2	   10	    0	    1	    0	    9	    0

	Nuclear Rep. energy (chkpt) =      0.00000000000000
	SCF energy          (chkpt) =   -128.49635179593278

	Presorting SO-basis two-electron integrals.
	Sorting File: SO Ints (pq,rs) nbuckets = 1
	Frozen-core energy =  -93.848900576970891
	Starting first half-transformation.
	Sorting half-transformed integrals.
	Starting second half-transformation.
	Two-electron integral transformation complete.

*** tstop() called on sherrill-laptop at Sat Jan 21 09:32:03 2012
Module time:
	user time   =       0.16 seconds =       0.00 minutes
	system time =       0.02 seconds =       0.00 minutes
	total time  =          0 seconds =       0.00 minutes
Total time:
	user time   =      12.76 seconds =       0.21 minutes
	system time =       3.66 seconds =       0.06 minutes
	total time  =         17 seconds =       0.28 minutes

*** tstart() called on sherrill-laptop
*** at Sat Jan 21 09:32:03 2012


			**************************
			*                        *
			*         CCSORT         *
			*                        *
			**************************


	Input parameters:
	-----------------
	Wave function   =	CCSD_T
	Reference wfn   =	RHF
	Derivative      =	None
	Memory (Mbytes) =	250.0
	AO Basis        =	NONE
	Make (ab|cd)    =	True
	Make unpacked (ab|cd) =	False
	Cache Level     =	2
	Cache Type      =	LRU
	Local CC        =     No


	Chkpt Parameters:
	--------------------
	Number of irreps     = 4
	Number of MOs        = 46
	Number of active MOs = 45

	Label	# MOs	# FZDC	# DOCC	# SOCC	# VIRT	# FZVR
	-----	-----	------	------	------	------	------
	 A1	   22	    1	    2	    0	    19	    0
	 A2	   4	    0	    0	    0	    4	    0
	 B1	   10	    0	    1	    0	    9	    0
	 B2	   10	    0	    1	    0	    9	    0

	Nuclear Rep. energy (chkpt) =      0.00000000000000
	SCF energy          (chkpt) =   -128.49635179593278

	Size of irrep 0 of <ab|cd> integrals:      0.291 (MW) /      2.324 (MB)
	Size of irrep 1 of <ab|cd> integrals:      0.099 (MW) /      0.789 (MB)
	Size of irrep 2 of <ab|cd> integrals:      0.171 (MW) /      1.371 (MB)
	Size of irrep 3 of <ab|cd> integrals:      0.171 (MW) /      1.371 (MB)
	Total:                                     0.732 (MW) /      5.855 (MB)

	Size of irrep 0 of <ia|bc> integrals:      0.030 (MW) /      0.241 (MB)
	Size of irrep 1 of <ia|bc> integrals:      0.008 (MW) /      0.065 (MB)
	Size of irrep 2 of <ia|bc> integrals:      0.017 (MW) /      0.136 (MB)
	Size of irrep 3 of <ia|bc> integrals:      0.017 (MW) /      0.136 (MB)
	Total:                                     0.072 (MW) /      0.578 (MB)

	Size of irrep 0 of tijab amplitudes:       0.003 (MW) /      0.026 (MB)
	Size of irrep 1 of tijab amplitudes:       0.001 (MW) /      0.005 (MB)
	Size of irrep 2 of tijab amplitudes:       0.002 (MW) /      0.013 (MB)
	Size of irrep 3 of tijab amplitudes:       0.002 (MW) /      0.013 (MB)
	Total:                                     0.007 (MW) /      0.057 (MB)


	Sorting File: A <ij|kl> nbuckets = 1
	Sorting File: B(+) <ab|cd> nbuckets = 1
	Sorting File: C <ia|jb> nbuckets = 1
	Sorting File: D <ij|ab> nbuckets = 1
	Sorting File: E <ai|jk> nbuckets = 1
	Sorting File: F <ia|bc> nbuckets = 1
	One-electron energy          =    -60.29577668955463
	Two-electron (AA) energy     =     10.01556459726462
	Two-electron (BB) energy     =     10.01556459726462
	Two-electron (AB) energy     =     15.63276087332781
	Two-electron energy          =     25.64832547059244
	Frozen-core energy (transqt) =    -93.84890057697089
	Reference energy             =   -128.49635179593309

*** tstop() called on sherrill-laptop at Sat Jan 21 09:32:03 2012
Module time:
	user time   =       0.08 seconds =       0.00 minutes
	system time =       0.05 seconds =       0.00 minutes
	total time  =          0 seconds =       0.00 minutes
Total time:
	user time   =      12.84 seconds =       0.21 minutes
	system time =       3.71 seconds =       0.06 minutes
	total time  =         17 seconds =       0.28 minutes

*** tstart() called on sherrill-laptop
*** at Sat Jan 21 09:32:03 2012

			**************************
			*                        *
			*        CCENERGY        *
			*                        *
			**************************

	Nuclear Rep. energy (chkpt)   =    0.000000000000000
	SCF energy          (chkpt)   = -128.496351795932782
	Reference energy    (file100) = -128.496351795933094

	Input parameters:
	-----------------
	Wave function   =   CCSD_T
	Reference wfn   =     RHF
	Memory (Mbytes) =     250.0
	Maxiter         =     50
	Convergence     =     1.0e-07
	Restart         =     No
	DIIS            =     Yes
	AO Basis        =     NONE
	ABCD            =     NEW
	Cache Level     =     2
	Cache Type      =     LOW
	Print Level     =     1
	Num. of threads =     1
	# Amps to Print =     10
	Print MP2 Amps? =     No
	Analyze T2 Amps =     No
	Print Pair Ener =     No
	Local CC        =     No
	SCS-MP2         =     False
	SCSN-MP2        =     False
	SCS-CCSD        =     False

	            Solving CC Amplitude Equations
	            ------------------------------
  Iter             Energy              RMS        T1Diag      D1Diag    New D1Diag
  ----     ---------------------    ---------   ----------  ----------  ----------
     0        -0.206895138536695    5.829e-08    0.000000    0.000000    0.000000
     1        -0.207253277179413    2.740e-02    0.008596    0.013685    0.013685
     2        -0.209706087022789    7.134e-03    0.008256    0.013028    0.013028
     3        -0.210227785203372    2.781e-03    0.009260    0.014634    0.014634
     4        -0.210186944981526    3.498e-04    0.009371    0.014809    0.014809
     5        -0.210178041824676    7.790e-05    0.009389    0.014841    0.014841
     6        -0.210177760582648    1.612e-05    0.009393    0.014849    0.014849
     7        -0.210177495685446    4.599e-06    0.009394    0.014851    0.014851
     8        -0.210177411522747    9.326e-07    0.009394    0.014851    0.014851
     9        -0.210177408199001    2.422e-07    0.009394    0.014851    0.014851
    10        -0.210177404470631    5.829e-08    0.009394    0.014851    0.014851

	Iterations converged.


	Largest TIA Amplitudes:
	          2  24        -0.0135052991
	          3  33        -0.0135052991
	          1   3        -0.0092016624
	          1   2         0.0087180775
	          1   1         0.0056585757
	          2  23         0.0053384325
	          3  32         0.0053384325
	          0   2         0.0053157597
	          1   0        -0.0041921814
	          2  27        -0.0031007309

	Largest TIjAb Amplitudes:
	  2   2  27  27        -0.0336764078
	  3   3  36  36        -0.0336764078
	  1   1   8   8        -0.0321270051
	  2   3  27  36        -0.0240698130
	  3   2  36  27        -0.0240698130
	  1   2   8  27         0.0234934174
	  2   1  27   8         0.0234934174
	  1   3   8  36         0.0234934174
	  3   1  36   8         0.0234934174
	  0   2  11  27        -0.0184037358

	SCF energy       (chkpt)              = -128.496351795932782
	Reference energy (file100)            = -128.496351795933094

	Opposite-spin MP2 correlation energy  =   -0.150152677786852
	Same-spin MP2 correlation energy      =   -0.056742460749844
	MP2 correlation energy                =   -0.206895138536695
      * MP2 total energy                      = -128.703246934469803

	Opposite-spin CCSD correlation energy =   -0.157904849801628
	Same-spin CCSD correlation energy     =   -0.052272554458098
	CCSD correlation energy               =   -0.210177404470631
      * CCSD total energy                     = -128.706529200403736


*** tstop() called on sherrill-laptop at Sat Jan 21 09:32:04 2012
Module time:
	user time   =       0.33 seconds =       0.01 minutes
	system time =       0.32 seconds =       0.01 minutes
	total time  =          1 seconds =       0.02 minutes
Total time:
	user time   =      13.18 seconds =       0.22 minutes
	system time =       4.03 seconds =       0.07 minutes
	total time  =         18 seconds =       0.30 minutes

*** tstart() called on sherrill-laptop
*** at Sat Jan 21 09:32:04 2012

			**************************
			*                        *
			*        CCTRIPLES       *
			*                        *
			**************************


	Wave function   =    CCSD_T
	Reference wfn   =      RHF

	Nuclear Rep. energy (chkpt)   =    0.000000000000000
	SCF energy          (chkpt)   = -128.496351795932782
	Reference energy    (file100) = -128.496351795933094
	CCSD energy         (file100) =   -0.210177404470631
	Total CCSD energy   (file100) = -128.706529200403736

	Number of ijk index combinations: 20

	(T) energy                    =   -0.002794855226267
      * CCSD(T) total energy          = -128.709324055629992


*** tstop() called on sherrill-laptop at Sat Jan 21 09:32:04 2012
Module time:
	user time   =       0.09 seconds =       0.00 minutes
	system time =       0.05 seconds =       0.00 minutes
	total time  =          0 seconds =       0.00 minutes
Total time:
	user time   =      13.27 seconds =       0.22 minutes
	system time =       4.08 seconds =       0.07 minutes
	total time  =         18 seconds =       0.30 minutes

  //>>>>>>>>>>>>>>>>>>>>>>>>>>>>>>>>>>>//
  //      CP Computation: Results.     //
  //<<<<<<<<<<<<<<<<<<<<<<<<<<<<<<<<<<<//

============= Hartree =============
   System:  Energy (full):
   Complex -257.4186740328
 Monomer 1 -128.7093240556
 Monomer 2 -128.7093240556
Interaction   -0.0000259216

=========== kcal*mol^-1 ===========
   System:  Energy (full):
   Complex-161532.7921423306
 Monomer 1-80766.3879381454
 Monomer 2-80766.3879381484
Interaction   -0.0162660369

CP-corrected CCSD(T)/aug-cc-pVDZ interaction energies

        R (Ang)         E_int (kcal/mol)             
-----------------------------------------------------
        2.5              0.757717
        3.0              0.015685
        4.0             -0.016266

*** PSI4 exiting successfully. Buy a developer a beer!
