
    -----------------------------------------------------------------------
          Psi4: An Open-Source Ab Initio Electronic Structure Package
                               Psi4 1.3a2.dev335 

                         Git: Rev {newsad} 10c991c dirty


    R. M. Parrish, L. A. Burns, D. G. A. Smith, A. C. Simmonett,
    A. E. DePrince III, E. G. Hohenstein, U. Bozkaya, A. Yu. Sokolov,
    R. Di Remigio, R. M. Richard, J. F. Gonthier, A. M. James,
    H. R. McAlexander, A. Kumar, M. Saitow, X. Wang, B. P. Pritchard,
    P. Verma, H. F. Schaefer III, K. Patkowski, R. A. King, E. F. Valeev,
    F. A. Evangelista, J. M. Turney, T. D. Crawford, and C. D. Sherrill,
    J. Chem. Theory Comput. 13(7) pp 3185--3197 (2017).
    (doi: 10.1021/acs.jctc.7b00174)


                         Additional Contributions by
    P. Kraus, H. Kruse, M. H. Lechner, M. C. Schieber, and R. A. Shaw

    -----------------------------------------------------------------------


    Psi4 started on: Friday, 04 January 2019 03:13PM

    Process ID: 12697
    Host:       dx7-lehtola.chem.helsinki.fi
    PSIDATADIR: /home/work/psi4/install.susi/share/psi4
    Memory:     500.0 MiB
    Threads:    1
    
  ==> Input File <==

--------------------------------------------------------------------------
#! Test initial SCF guesses on FH and FH+ in cc-pVTZ basis

refnuc       =    5.282967161430950  #TEST
refneut_rhf  = -100.0584459442408587 #TEST
refcat_uhf   =  -99.5312257221445549 #TEST
refcat_rohf  =  -99.5261713512123976 #TEST

molecule no {
0 1
F
H 1 0.9015
}

set {
  basis cc-pvtz
  reference rhf
  scf_type pk
  df_scf_guess false
  guess core
  docc [ 3, 0, 1, 1 ]
}
energy('scf')

compare_values(refnuc, variable("NUCLEAR REPULSION ENERGY"), 6, "Nuclear Repulsion Energy (a.u.)"); #TEST
compare_values(refneut_rhf, variable("SCF TOTAL ENERGY"), 6, "RHF  energy, CORE guess (a.u.)");             #TEST

set guess gwh
energy('scf')
compare_values(refneut_rhf, variable("SCF TOTAL ENERGY"), 6, "RHF  energy, GWH  guess (a.u.)");             #TEST

set guess sad
energy('scf')
compare_values(refneut_rhf, variable("SCF TOTAL ENERGY"), 6, "RHF  energy, SAD  guess (a.u.)");             #TEST

molecule nocat {
1 2
F
H 1 0.9015
}

set {
  reference uhf
  guess core
  docc [ 3, 0, 0, 1 ]
  socc [ 0, 0, 1, 0 ]
}
energy('scf')
compare_values(refcat_uhf, variable("SCF TOTAL ENERGY"), 6, "UHF  energy, CORE guess (a.u.)");             #TEST

set guess gwh
energy('scf')
compare_values(refcat_uhf, variable("SCF TOTAL ENERGY"), 6, "UHF  energy, GWH  guess (a.u.)");             #TEST

set guess sad
energy('scf')
compare_values(refcat_uhf, variable("SCF TOTAL ENERGY"), 6, "UHF  energy, SAD  guess (a.u.)");             #TEST


set {
  reference rohf
  guess core
}
energy('scf')
compare_values(refcat_rohf, variable("SCF TOTAL ENERGY"), 6, "ROHF energy, CORE guess (a.u.)");             #TEST

set guess gwh
energy('scf')
compare_values(refcat_rohf, variable("SCF TOTAL ENERGY"), 6, "ROHF energy, GWH  guess (a.u.)");             #TEST

set guess sad
energy('scf')
compare_values(refcat_rohf, variable("SCF TOTAL ENERGY"), 6, "ROHF energy, SAD  guess (a.u.)");             #TEST
--------------------------------------------------------------------------

*** tstart() called on dx7-lehtola.chem.helsinki.fi
*** at Fri Jan  4 15:13:59 2019

   => Loading Basis Set <=

    Name: CC-PVTZ
    Role: ORBITAL
    Keyword: BASIS
    atoms 1 entry F          line   300 file /home/work/psi4/install.susi/share/psi4/basis/cc-pvtz.gbs 
    atoms 2 entry H          line    23 file /home/work/psi4/install.susi/share/psi4/basis/cc-pvtz.gbs 


         ---------------------------------------------------------
                                   SCF
            by Justin Turney, Rob Parrish, Andy Simmonett
                             and Daniel Smith
                              RHF Reference
                        1 Threads,    500 MiB Core
         ---------------------------------------------------------

  ==> Geometry <==

    Molecular point group: c2v
    Full point group: C_inf_v

    Geometry (in Angstrom), charge = 0, multiplicity = 1:

       Center              X                  Y                   Z               Mass       
    ------------   -----------------  -----------------  -----------------  -----------------
         F            0.000000000000     0.000000000000    -0.045413571099    18.998403162730
         H            0.000000000000     0.000000000000     0.856086428901     1.007825032230

  Running in c2v symmetry.

  Rotational constants: A = ************  B =     21.67345  C =     21.67345 [cm^-1]
  Rotational constants: A = ************  B = 649753.63037  C = 649753.63037 [MHz]
  Nuclear repulsion =    5.282967161430950

  Charge       = 0
  Multiplicity = 1
  Electrons    = 10
  Nalpha       = 5
  Nbeta        = 5

  ==> Algorithm <==

  SCF Algorithm Type is PK.
  DIIS enabled.
  MOM disabled.
  Fractional occupation disabled.
  Guess Type is CORE.
  Energy threshold   = 1.00e-06
  Density threshold  = 1.00e-06
  Integral threshold = 0.00e+00

  ==> Primary Basis <==

  Basis Set: CC-PVTZ
    Blend: CC-PVTZ
    Number of shells: 16
    Number of basis function: 44
    Number of Cartesian functions: 50
    Spherical Harmonics?: true
    Max angular momentum: 3

  ==> Pre-Iterations <==

   -------------------------------------------------------
    Irrep   Nso     Nmo     Nalpha   Nbeta   Ndocc  Nsocc
   -------------------------------------------------------
     A1        20      20       3       3       3       0
     A2         4       4       0       0       0       0
     B1        10      10       1       1       1       0
     B2        10      10       1       1       1       0
   -------------------------------------------------------
    Total      44      44       5       5       5       0
   -------------------------------------------------------

  ==> Integral Setup <==

  Using in-core PK algorithm.
   Calculation information:
      Number of atoms:                   2
      Number of AO shells:              16
      Number of primitives:             34
      Number of atomic orbitals:        50
      Number of basis functions:        44

      Integral cutoff                 1.00e-12
      Number of threads:                 1

  Performing in-core PK
  Using 981090 doubles for integral storage.
  We computed 9316 shell quartets total.
  Whereas there are 9316 unique shell quartets.

  ==> DiskJK: Disk-Based J/K Matrices <==

    J tasked:                  Yes
    K tasked:                  Yes
    wK tasked:                  No
    Memory [MiB]:              375
    Schwarz Cutoff:          1E-12

    OpenMP threads:              1

  Minimum eigenvalue in the overlap matrix is 3.4807006011E-03.
  Using Symmetric Orthogonalization.

  SCF Guess: Core (One-Electron) Hamiltonian.

  ==> Iterations <==

                        Total Energy        Delta E     RMS |[F,P]|

   @RHF iter   1:   -85.33505416384978   -8.53351e+01   3.50122e-01 DIIS
   @RHF iter   2:   -90.15653311396636   -4.82148e+00   1.60562e-01 DIIS
   @RHF iter   3:   -98.52130828906670   -8.36478e+00   1.02798e-01 DIIS
   @RHF iter   4:   -99.93258431195144   -1.41128e+00   2.52406e-02 DIIS
   @RHF iter   5:  -100.05668150599611   -1.24097e-01   1.86727e-03 DIIS
   @RHF iter   6:  -100.05812401048792   -1.44250e-03   1.02594e-03 DIIS
   @RHF iter   7:  -100.05842516823020   -3.01158e-04   2.01229e-04 DIIS
   @RHF iter   8:  -100.05844583812492   -2.06699e-05   2.62283e-05 DIIS
   @RHF iter   9:  -100.05844594389093   -1.05766e-07   1.04947e-06 DIIS
   @RHF iter  10:  -100.05844594427322   -3.82286e-10   1.52829e-07 DIIS
  Energy converged.


  ==> Post-Iterations <==

    Orbital Energies [Eh]
    ---------------------

    Doubly Occupied:                                                      

       1A1   -26.286002     2A1    -1.600001     3A1    -0.766542  
       1B2    -0.644852     1B1    -0.644852  

    Virtual:                                                              

       4A1     0.145421     5A1     0.572507     6A1     0.812502  
       2B1     0.857876     2B2     0.857876     3B1     0.986375  
       3B2     0.986375     7A1     1.455858     8A1     1.553377  
       9A1     2.227600     1A2     2.227600    10A1     2.263014  
       4B2     2.544695     4B1     2.544695    11A1     3.232051  
      12A1     3.552429     2A2     3.552429     5B2     3.853178  
       5B1     3.853178    13A1     4.250230     6B2     4.321165  
       6B1     4.321165    14A1     5.198271     7B2     5.364506  
       7B1     5.364506    15A1     6.236858     8B2     7.408846  
       8B1     7.408846    16A1     7.614740     3A2     7.614740  
       9B2     8.497217     9B1     8.497217    17A1     8.525278  
       4A2     8.909366    18A1     8.909366    10B2     9.336848  
      10B1     9.336848    19A1     9.702184    20A1    12.638150  

    Final Occupation by Irrep:
             A1    A2    B1    B2 
    DOCC [     3,    0,    1,    1 ]

  @RHF Final Energy:  -100.05844594427322

   => Energetics <=

    Nuclear Repulsion Energy =              5.2829671614309497
    One-Electron Energy =                -150.7983235225373733
    Two-Electron Energy =                  45.4569104168332103
    Total Energy =                       -100.0584459442732168

Computation Completed


Properties will be evaluated at   0.000000,   0.000000,   0.000000 [a0]

Properties computed using the SCF density matrix

  Nuclear Dipole Moment: [e a0]
     X:     0.0000      Y:     0.0000      Z:     0.8454

  Electronic Dipole Moment: [e a0]
     X:     0.0000      Y:     0.0000      Z:    -0.0934

  Dipole Moment: [e a0]
     X:     0.0000      Y:     0.0000      Z:     0.7520     Total:     0.7520

  Dipole Moment: [D]
     X:     0.0000      Y:     0.0000      Z:     1.9114     Total:     1.9114


*** tstop() called on dx7-lehtola.chem.helsinki.fi at Fri Jan  4 15:13:59 2019
Module time:
	user time   =       0.12 seconds =       0.00 minutes
	system time =       0.01 seconds =       0.00 minutes
	total time  =          0 seconds =       0.00 minutes
Total time:
	user time   =       0.12 seconds =       0.00 minutes
	system time =       0.01 seconds =       0.00 minutes
	total time  =          0 seconds =       0.00 minutes
	Nuclear Repulsion Energy (a.u.)...................................PASSED
	RHF  energy, CORE guess (a.u.)....................................PASSED

*** tstart() called on dx7-lehtola.chem.helsinki.fi
*** at Fri Jan  4 15:13:59 2019

   => Loading Basis Set <=

    Name: CC-PVTZ
    Role: ORBITAL
    Keyword: BASIS
    atoms 1 entry F          line   300 file /home/work/psi4/install.susi/share/psi4/basis/cc-pvtz.gbs 
    atoms 2 entry H          line    23 file /home/work/psi4/install.susi/share/psi4/basis/cc-pvtz.gbs 


         ---------------------------------------------------------
                                   SCF
            by Justin Turney, Rob Parrish, Andy Simmonett
                             and Daniel Smith
                              RHF Reference
                        1 Threads,    500 MiB Core
         ---------------------------------------------------------

  ==> Geometry <==

    Molecular point group: c2v
    Full point group: C_inf_v

    Geometry (in Angstrom), charge = 0, multiplicity = 1:

       Center              X                  Y                   Z               Mass       
    ------------   -----------------  -----------------  -----------------  -----------------
         F            0.000000000000     0.000000000000    -0.045413571099    18.998403162730
         H            0.000000000000     0.000000000000     0.856086428901     1.007825032230

  Running in c2v symmetry.

  Rotational constants: A = ************  B =     21.67345  C =     21.67345 [cm^-1]
  Rotational constants: A = ************  B = 649753.63037  C = 649753.63037 [MHz]
  Nuclear repulsion =    5.282967161430950

  Charge       = 0
  Multiplicity = 1
  Electrons    = 10
  Nalpha       = 5
  Nbeta        = 5

  ==> Algorithm <==

  SCF Algorithm Type is PK.
  DIIS enabled.
  MOM disabled.
  Fractional occupation disabled.
  Guess Type is GWH.
  Energy threshold   = 1.00e-06
  Density threshold  = 1.00e-06
  Integral threshold = 0.00e+00

  ==> Primary Basis <==

  Basis Set: CC-PVTZ
    Blend: CC-PVTZ
    Number of shells: 16
    Number of basis function: 44
    Number of Cartesian functions: 50
    Spherical Harmonics?: true
    Max angular momentum: 3

  ==> Pre-Iterations <==

   -------------------------------------------------------
    Irrep   Nso     Nmo     Nalpha   Nbeta   Ndocc  Nsocc
   -------------------------------------------------------
     A1        20      20       3       3       3       0
     A2         4       4       0       0       0       0
     B1        10      10       1       1       1       0
     B2        10      10       1       1       1       0
   -------------------------------------------------------
    Total      44      44       5       5       5       0
   -------------------------------------------------------

  ==> Integral Setup <==

  Using in-core PK algorithm.
   Calculation information:
      Number of atoms:                   2
      Number of AO shells:              16
      Number of primitives:             34
      Number of atomic orbitals:        50
      Number of basis functions:        44

      Integral cutoff                 1.00e-12
      Number of threads:                 1

  Performing in-core PK
  Using 981090 doubles for integral storage.
  We computed 9316 shell quartets total.
  Whereas there are 9316 unique shell quartets.

  ==> DiskJK: Disk-Based J/K Matrices <==

    J tasked:                  Yes
    K tasked:                  Yes
    wK tasked:                  No
    Memory [MiB]:              375
    Schwarz Cutoff:          1E-12

    OpenMP threads:              1

  Minimum eigenvalue in the overlap matrix is 3.4807006011E-03.
  Using Symmetric Orthogonalization.

  SCF Guess: Generalized Wolfsberg-Helmholtz.

  ==> Iterations <==

                        Total Energy        Delta E     RMS |[F,P]|

   @RHF iter   1:   -92.48691177199242   -9.24869e+01   2.75904e-01 DIIS
   @RHF iter   2:   -94.81281880857573   -2.32591e+00   1.35875e-01 DIIS
   @RHF iter   3:   -99.28602067782353   -4.47320e+00   7.24465e-02 DIIS
   @RHF iter   4:  -100.01311714889604   -7.27096e-01   1.52857e-02 DIIS
   @RHF iter   5:  -100.05790781283881   -4.47907e-02   1.17242e-03 DIIS
   @RHF iter   6:  -100.05838014162740   -4.72329e-04   4.70454e-04 DIIS
   @RHF iter   7:  -100.05844356207233   -6.34204e-05   6.30951e-05 DIIS
   @RHF iter   8:  -100.05844587719858   -2.31513e-06   9.69801e-06 DIIS
   @RHF iter   9:  -100.05844594291696   -6.57184e-08   2.21017e-06 DIIS
   @RHF iter  10:  -100.05844594427576   -1.35880e-09   1.45647e-07 DIIS
  Energy converged.


  ==> Post-Iterations <==

    Orbital Energies [Eh]
    ---------------------

    Doubly Occupied:                                                      

       1A1   -26.286003     2A1    -1.600001     3A1    -0.766542  
       1B2    -0.644852     1B1    -0.644852  

    Virtual:                                                              

       4A1     0.145421     5A1     0.572506     6A1     0.812502  
       2B1     0.857876     2B2     0.857876     3B1     0.986375  
       3B2     0.986375     7A1     1.455858     8A1     1.553377  
       1A2     2.227600     9A1     2.227600    10A1     2.263014  
       4B2     2.544695     4B1     2.544695    11A1     3.232051  
      12A1     3.552429     2A2     3.552429     5B2     3.853178  
       5B1     3.853178    13A1     4.250230     6B1     4.321165  
       6B2     4.321165    14A1     5.198271     7B2     5.364506  
       7B1     5.364506    15A1     6.236857     8B2     7.408845  
       8B1     7.408845    16A1     7.614739     3A2     7.614739  
       9B2     8.497216     9B1     8.497216    17A1     8.525277  
       4A2     8.909365    18A1     8.909365    10B2     9.336847  
      10B1     9.336847    19A1     9.702183    20A1    12.638150  

    Final Occupation by Irrep:
             A1    A2    B1    B2 
    DOCC [     3,    0,    1,    1 ]

  @RHF Final Energy:  -100.05844594427576

   => Energetics <=

    Nuclear Repulsion Energy =              5.2829671614309497
    One-Electron Energy =                -150.7983205333916317
    Two-Electron Energy =                  45.4569074276849321
    Total Energy =                       -100.0584459442757463

Computation Completed


Properties will be evaluated at   0.000000,   0.000000,   0.000000 [a0]

Properties computed using the SCF density matrix

  Nuclear Dipole Moment: [e a0]
     X:     0.0000      Y:     0.0000      Z:     0.8454

  Electronic Dipole Moment: [e a0]
     X:     0.0000      Y:     0.0000      Z:    -0.0934

  Dipole Moment: [e a0]
     X:     0.0000      Y:     0.0000      Z:     0.7520     Total:     0.7520

  Dipole Moment: [D]
     X:     0.0000      Y:     0.0000      Z:     1.9114     Total:     1.9114


*** tstop() called on dx7-lehtola.chem.helsinki.fi at Fri Jan  4 15:14:00 2019
Module time:
	user time   =       0.11 seconds =       0.00 minutes
	system time =       0.00 seconds =       0.00 minutes
	total time  =          1 seconds =       0.02 minutes
Total time:
	user time   =       0.23 seconds =       0.00 minutes
	system time =       0.01 seconds =       0.00 minutes
	total time  =          1 seconds =       0.02 minutes
	RHF  energy, GWH  guess (a.u.)....................................PASSED

*** tstart() called on dx7-lehtola.chem.helsinki.fi
*** at Fri Jan  4 15:14:00 2019

   => Loading Basis Set <=

    Name: CC-PVTZ
    Role: ORBITAL
    Keyword: BASIS
    atoms 1 entry F          line   300 file /home/work/psi4/install.susi/share/psi4/basis/cc-pvtz.gbs 
    atoms 2 entry H          line    23 file /home/work/psi4/install.susi/share/psi4/basis/cc-pvtz.gbs 


         ---------------------------------------------------------
                                   SCF
            by Justin Turney, Rob Parrish, Andy Simmonett
                             and Daniel Smith
                              RHF Reference
                        1 Threads,    500 MiB Core
         ---------------------------------------------------------

  ==> Geometry <==

    Molecular point group: c2v
    Full point group: C_inf_v

    Geometry (in Angstrom), charge = 0, multiplicity = 1:

       Center              X                  Y                   Z               Mass       
    ------------   -----------------  -----------------  -----------------  -----------------
         F            0.000000000000     0.000000000000    -0.045413571099    18.998403162730
         H            0.000000000000     0.000000000000     0.856086428901     1.007825032230

  Running in c2v symmetry.

  Rotational constants: A = ************  B =     21.67345  C =     21.67345 [cm^-1]
  Rotational constants: A = ************  B = 649753.63037  C = 649753.63037 [MHz]
  Nuclear repulsion =    5.282967161430950

  Charge       = 0
  Multiplicity = 1
  Electrons    = 10
  Nalpha       = 5
  Nbeta        = 5

  ==> Algorithm <==

  SCF Algorithm Type is PK.
  DIIS enabled.
  MOM disabled.
  Fractional occupation disabled.
  Guess Type is SAD.
  Energy threshold   = 1.00e-06
  Density threshold  = 1.00e-06
  Integral threshold = 0.00e+00

  ==> Primary Basis <==

  Basis Set: CC-PVTZ
    Blend: CC-PVTZ
    Number of shells: 16
    Number of basis function: 44
    Number of Cartesian functions: 50
    Spherical Harmonics?: true
    Max angular momentum: 3

  ==> Pre-Iterations <==

   -------------------------------------------------------
    Irrep   Nso     Nmo     Nalpha   Nbeta   Ndocc  Nsocc
   -------------------------------------------------------
     A1        20      20       3       3       3       0
     A2         4       4       0       0       0       0
     B1        10      10       1       1       1       0
     B2        10      10       1       1       1       0
   -------------------------------------------------------
    Total      44      44       5       5       5       0
   -------------------------------------------------------

  ==> Integral Setup <==

  Using in-core PK algorithm.
   Calculation information:
      Number of atoms:                   2
      Number of AO shells:              16
      Number of primitives:             34
      Number of atomic orbitals:        50
      Number of basis functions:        44

      Integral cutoff                 1.00e-12
      Number of threads:                 1

  Performing in-core PK
  Using 981090 doubles for integral storage.
  We computed 9316 shell quartets total.
  Whereas there are 9316 unique shell quartets.

  ==> DiskJK: Disk-Based J/K Matrices <==

    J tasked:                  Yes
    K tasked:                  Yes
    wK tasked:                  No
    Memory [MiB]:              375
    Schwarz Cutoff:          1E-12

    OpenMP threads:              1

  Minimum eigenvalue in the overlap matrix is 3.4807006011E-03.
  Using Symmetric Orthogonalization.

  SCF Guess: Superposition of Atomic Densities via on-the-fly atomic UHF.

  ==> Iterations <==

                        Total Energy        Delta E     RMS |[F,P]|

   @RHF iter   0:   -99.90679763470987   -9.99068e+01   0.00000e+00 
   @RHF iter   1:  -100.03749947075762   -1.30702e-01   9.99042e-03 DIIS
   @RHF iter   2:  -100.05384985156076   -1.63504e-02   5.60191e-03 DIIS
   @RHF iter   3:  -100.05835675546629   -4.50690e-03   5.53362e-04 DIIS
   @RHF iter   4:  -100.05843715521004   -8.03997e-05   1.43039e-04 DIIS
   @RHF iter   5:  -100.05844549111171   -8.33590e-06   2.86495e-05 DIIS
   @RHF iter   6:  -100.05844593383658   -4.42725e-07   4.12882e-06 DIIS
   @RHF iter   7:  -100.05844594406867   -1.02321e-08   5.75859e-07 DIIS
  Energy converged.


  ==> Post-Iterations <==

    Orbital Energies [Eh]
    ---------------------

    Doubly Occupied:                                                      

       1A1   -26.286002     2A1    -1.600000     3A1    -0.766542  
       1B1    -0.644852     1B2    -0.644851  

    Virtual:                                                              

       4A1     0.145421     5A1     0.572506     6A1     0.812502  
       2B1     0.857876     2B2     0.857876     3B1     0.986375  
       3B2     0.986376     7A1     1.455858     8A1     1.553376  
       9A1     2.227600     1A2     2.227600    10A1     2.263013  
       4B1     2.544696     4B2     2.544696    11A1     3.232051  
      12A1     3.552428     2A2     3.552428     5B1     3.853177  
       5B2     3.853177    13A1     4.250229     6B1     4.321165  
       6B2     4.321165    14A1     5.198270     7B1     5.364507  
       7B2     5.364507    15A1     6.236858     8B1     7.408846  
       8B2     7.408846    16A1     7.614740     3A2     7.614740  
       9B2     8.497217     9B1     8.497217    17A1     8.525278  
       4A2     8.909366    18A1     8.909366    10B2     9.336848  
      10B1     9.336848    19A1     9.702184    20A1    12.638150  

    Final Occupation by Irrep:
             A1    A2    B1    B2 
    DOCC [     3,    0,    1,    1 ]

  @RHF Final Energy:  -100.05844594406867

   => Energetics <=

    Nuclear Repulsion Energy =              5.2829671614309497
    One-Electron Energy =                -150.7983337014678966
    Two-Electron Energy =                  45.4569205959682918
    Total Energy =                       -100.0584459440686658

Computation Completed


Properties will be evaluated at   0.000000,   0.000000,   0.000000 [a0]

Properties computed using the SCF density matrix

  Nuclear Dipole Moment: [e a0]
     X:     0.0000      Y:     0.0000      Z:     0.8454

  Electronic Dipole Moment: [e a0]
     X:     0.0000      Y:     0.0000      Z:    -0.0934

  Dipole Moment: [e a0]
     X:     0.0000      Y:     0.0000      Z:     0.7520     Total:     0.7520

  Dipole Moment: [D]
     X:     0.0000      Y:     0.0000      Z:     1.9114     Total:     1.9114


*** tstop() called on dx7-lehtola.chem.helsinki.fi at Fri Jan  4 15:14:00 2019
Module time:
	user time   =       0.20 seconds =       0.00 minutes
	system time =       0.01 seconds =       0.00 minutes
	total time  =          0 seconds =       0.00 minutes
Total time:
	user time   =       0.44 seconds =       0.01 minutes
	system time =       0.02 seconds =       0.00 minutes
	total time  =          1 seconds =       0.02 minutes
	RHF  energy, SAD  guess (a.u.)....................................PASSED

*** tstart() called on dx7-lehtola.chem.helsinki.fi
*** at Fri Jan  4 15:14:00 2019

   => Loading Basis Set <=

    Name: CC-PVTZ
    Role: ORBITAL
    Keyword: BASIS
    atoms 1 entry F          line   300 file /home/work/psi4/install.susi/share/psi4/basis/cc-pvtz.gbs 
    atoms 2 entry H          line    23 file /home/work/psi4/install.susi/share/psi4/basis/cc-pvtz.gbs 


         ---------------------------------------------------------
                                   SCF
            by Justin Turney, Rob Parrish, Andy Simmonett
                             and Daniel Smith
                              UHF Reference
                        1 Threads,    500 MiB Core
         ---------------------------------------------------------

  ==> Geometry <==

    Molecular point group: c2v
    Full point group: C_inf_v

    Geometry (in Angstrom), charge = 1, multiplicity = 2:

       Center              X                  Y                   Z               Mass       
    ------------   -----------------  -----------------  -----------------  -----------------
         F            0.000000000000     0.000000000000    -0.045413571099    18.998403162730
         H            0.000000000000     0.000000000000     0.856086428901     1.007825032230

  Running in c2v symmetry.

  Rotational constants: A = ************  B =     21.67345  C =     21.67345 [cm^-1]
  Rotational constants: A = ************  B = 649753.63037  C = 649753.63037 [MHz]
  Nuclear repulsion =    5.282967161430950

  Charge       = 1
  Multiplicity = 2
  Electrons    = 9
  Nalpha       = 5
  Nbeta        = 4

  ==> Algorithm <==

  SCF Algorithm Type is PK.
  DIIS enabled.
  MOM disabled.
  Fractional occupation disabled.
  Guess Type is CORE.
  Energy threshold   = 1.00e-06
  Density threshold  = 1.00e-06
  Integral threshold = 0.00e+00

  ==> Primary Basis <==

  Basis Set: CC-PVTZ
    Blend: CC-PVTZ
    Number of shells: 16
    Number of basis function: 44
    Number of Cartesian functions: 50
    Spherical Harmonics?: true
    Max angular momentum: 3

  ==> Pre-Iterations <==

   -------------------------------------------------------
    Irrep   Nso     Nmo     Nalpha   Nbeta   Ndocc  Nsocc
   -------------------------------------------------------
     A1        20      20       3       3       3       0
     A2         4       4       0       0       0       0
     B1        10      10       1       0       0       1
     B2        10      10       1       1       1       0
   -------------------------------------------------------
    Total      44      44       5       4       4       1
   -------------------------------------------------------

  ==> Integral Setup <==

  Using in-core PK algorithm.
   Calculation information:
      Number of atoms:                   2
      Number of AO shells:              16
      Number of primitives:             34
      Number of atomic orbitals:        50
      Number of basis functions:        44

      Integral cutoff                 1.00e-12
      Number of threads:                 1

  Performing in-core PK
  Using 981090 doubles for integral storage.
  We computed 9316 shell quartets total.
  Whereas there are 9316 unique shell quartets.

  ==> DiskJK: Disk-Based J/K Matrices <==

    J tasked:                  Yes
    K tasked:                  Yes
    wK tasked:                  No
    Memory [MiB]:              375
    Schwarz Cutoff:          1E-12

    OpenMP threads:              1

  Minimum eigenvalue in the overlap matrix is 3.4807006011E-03.
  Using Symmetric Orthogonalization.

  SCF Guess: Core (One-Electron) Hamiltonian.

  ==> Iterations <==

                        Total Energy        Delta E     RMS |[F,P]|

   @UHF iter   1:   -88.99202896495353   -8.89920e+01   3.02296e-01 DIIS
   @UHF iter   2:   -95.39707554592566   -6.40505e+00   1.26999e-01 DIIS
   @UHF iter   3:   -99.28658953444925   -3.88951e+00   4.24323e-02 DIIS
   @UHF iter   4:   -99.52581951930914   -2.39230e-01   5.14637e-03 DIIS
   @UHF iter   5:   -99.53109056732249   -5.27105e-03   5.96857e-04 DIIS
   @UHF iter   6:   -99.53121042092060   -1.19854e-04   1.70123e-04 DIIS
   @UHF iter   7:   -99.53122350134247   -1.30804e-05   5.47483e-05 DIIS
   @UHF iter   8:   -99.53122549384143   -1.99250e-06   1.72191e-05 DIIS
   @UHF iter   9:   -99.53122571558831   -2.21747e-07   2.98887e-06 DIIS
   @UHF iter  10:   -99.53122572203858   -6.45028e-09   6.46645e-07 DIIS
  Energy converged.


  ==> Post-Iterations <==

   @Spin Contamination Metric:   4.192520260E-03
   @S^2 Expected:                7.500000000E-01
   @S^2 Observed:                7.541925203E-01
   @S   Expected:                5.000000000E-01
   @S   Observed:                5.000000000E-01

    Orbital Energies [Eh]
    ---------------------

    Alpha Occupied:                                                       

       1A1   -26.987379     2A1    -2.274177     1B1    -1.390065  
       3A1    -1.381376     1B2    -1.273581  

    Alpha Virtual:                                                        

       4A1    -0.185343     5A1     0.174906     2B1     0.391538  
       6A1     0.417152     2B2     0.426074     3B1     0.544611  
       3B2     0.571665     7A1     0.965391     8A1     1.112363  
       9A1     1.649973     1A2     1.650573    10A1     1.811016  
       4B1     1.976746     4B2     2.027806    11A1     2.720216  
       2A2     3.075779    12A1     3.076221     5B1     3.380642  
       5B2     3.393759    13A1     3.778690     6B1     3.783300  
       6B2     3.820501    14A1     4.660651     7B1     4.696121  
       7B2     4.776300    15A1     5.646969     8B1     6.750498  
       8B2     6.750519     3A2     6.986488    16A1     6.986719  
       9B1     7.839722     9B2     7.908702    17A1     7.920759  
      18A1     8.205318     4A2     8.206349    10B1     8.666404  
      10B2     8.740687    19A1     9.081980    20A1    12.029285  

    Beta Occupied:                                                        

       1A1   -26.935688     2A1    -2.083726     3A1    -1.328924  
       1B2    -1.219531  

    Beta Virtual:                                                         

       1B1    -0.432044     4A1    -0.175302     5A1     0.182663  
       6A1     0.427562     2B2     0.433747     2B1     0.482987  
       3B2     0.575908     3B1     0.620390     7A1     1.002733  
       8A1     1.126957     9A1     1.739198     1A2     1.739546  
      10A1     1.819539     4B2     2.035713     4B1     2.061449  
      11A1     2.742011     2A2     3.084545    12A1     3.084561  
       5B1     3.387498     5B2     3.390768    13A1     3.784204  
       6B2     3.827306     6B1     3.844507    14A1     4.682923  
       7B2     4.799183     7B1     4.843271    15A1     5.679300  
       8B2     6.821657     8B1     6.821659    16A1     7.036965  
       3A2     7.037019     9B1     7.920409     9B2     7.924737  
      17A1     7.951313     4A2     8.327835    18A1     8.328100  
      10B2     8.757640    10B1     8.758923    19A1     9.121435  
      20A1    12.072478  

    Final Occupation by Irrep:
             A1    A2    B1    B2 
    DOCC [     3,    0,    0,    1 ]
    SOCC [     0,    0,    1,    0 ]

  @UHF Final Energy:   -99.53122572203858

   => Energetics <=

    Nuclear Repulsion Energy =              5.2829671614309497
    One-Electron Energy =                -144.7539754220743760
    Two-Electron Energy =                  39.9397825386048453
    Total Energy =                        -99.5312257220385845

  UHF NO Occupations:
  HONO-2 :    2 A1 1.9996019
  HONO-1 :    3 A1 1.9984982
  HONO-0 :    1 B1 1.0000000
  LUNO+0 :    4 A1 0.0015018
  LUNO+1 :    5 A1 0.0003981
  LUNO+2 :    2 B2 0.0001966
  LUNO+3 :    6 A1 0.0000010


Computation Completed


Properties will be evaluated at   0.000000,   0.000000,   0.000000 [a0]

Properties computed using the SCF density matrix

  Nuclear Dipole Moment: [e a0]
     X:     0.0000      Y:     0.0000      Z:     0.8454

  Electronic Dipole Moment: [e a0]
     X:     0.0000      Y:     0.0000      Z:     0.0698

  Dipole Moment: [e a0]
     X:     0.0000      Y:     0.0000      Z:     0.9152     Total:     0.9152

  Dipole Moment: [D]
     X:     0.0000      Y:     0.0000      Z:     2.3262     Total:     2.3262


*** tstop() called on dx7-lehtola.chem.helsinki.fi at Fri Jan  4 15:14:00 2019
Module time:
	user time   =       0.12 seconds =       0.00 minutes
	system time =       0.00 seconds =       0.00 minutes
	total time  =          0 seconds =       0.00 minutes
Total time:
	user time   =       0.57 seconds =       0.01 minutes
	system time =       0.02 seconds =       0.00 minutes
	total time  =          1 seconds =       0.02 minutes
	UHF  energy, CORE guess (a.u.)....................................PASSED

*** tstart() called on dx7-lehtola.chem.helsinki.fi
*** at Fri Jan  4 15:14:00 2019

   => Loading Basis Set <=

    Name: CC-PVTZ
    Role: ORBITAL
    Keyword: BASIS
    atoms 1 entry F          line   300 file /home/work/psi4/install.susi/share/psi4/basis/cc-pvtz.gbs 
    atoms 2 entry H          line    23 file /home/work/psi4/install.susi/share/psi4/basis/cc-pvtz.gbs 


         ---------------------------------------------------------
                                   SCF
            by Justin Turney, Rob Parrish, Andy Simmonett
                             and Daniel Smith
                              UHF Reference
                        1 Threads,    500 MiB Core
         ---------------------------------------------------------

  ==> Geometry <==

    Molecular point group: c2v
    Full point group: C_inf_v

    Geometry (in Angstrom), charge = 1, multiplicity = 2:

       Center              X                  Y                   Z               Mass       
    ------------   -----------------  -----------------  -----------------  -----------------
         F            0.000000000000     0.000000000000    -0.045413571099    18.998403162730
         H            0.000000000000     0.000000000000     0.856086428901     1.007825032230

  Running in c2v symmetry.

  Rotational constants: A = ************  B =     21.67345  C =     21.67345 [cm^-1]
  Rotational constants: A = ************  B = 649753.63037  C = 649753.63037 [MHz]
  Nuclear repulsion =    5.282967161430950

  Charge       = 1
  Multiplicity = 2
  Electrons    = 9
  Nalpha       = 5
  Nbeta        = 4

  ==> Algorithm <==

  SCF Algorithm Type is PK.
  DIIS enabled.
  MOM disabled.
  Fractional occupation disabled.
  Guess Type is GWH.
  Energy threshold   = 1.00e-06
  Density threshold  = 1.00e-06
  Integral threshold = 0.00e+00

  ==> Primary Basis <==

  Basis Set: CC-PVTZ
    Blend: CC-PVTZ
    Number of shells: 16
    Number of basis function: 44
    Number of Cartesian functions: 50
    Spherical Harmonics?: true
    Max angular momentum: 3

  ==> Pre-Iterations <==

   -------------------------------------------------------
    Irrep   Nso     Nmo     Nalpha   Nbeta   Ndocc  Nsocc
   -------------------------------------------------------
     A1        20      20       3       3       3       0
     A2         4       4       0       0       0       0
     B1        10      10       1       0       0       1
     B2        10      10       1       1       1       0
   -------------------------------------------------------
    Total      44      44       5       4       4       1
   -------------------------------------------------------

  ==> Integral Setup <==

  Using in-core PK algorithm.
   Calculation information:
      Number of atoms:                   2
      Number of AO shells:              16
      Number of primitives:             34
      Number of atomic orbitals:        50
      Number of basis functions:        44

      Integral cutoff                 1.00e-12
      Number of threads:                 1

  Performing in-core PK
  Using 981090 doubles for integral storage.
  We computed 9316 shell quartets total.
  Whereas there are 9316 unique shell quartets.

  ==> DiskJK: Disk-Based J/K Matrices <==

    J tasked:                  Yes
    K tasked:                  Yes
    wK tasked:                  No
    Memory [MiB]:              375
    Schwarz Cutoff:          1E-12

    OpenMP threads:              1

  Minimum eigenvalue in the overlap matrix is 3.4807006011E-03.
  Using Symmetric Orthogonalization.

  SCF Guess: Generalized Wolfsberg-Helmholtz.

  ==> Iterations <==

                        Total Energy        Delta E     RMS |[F,P]|

   @UHF iter   1:   -94.35585144644560   -9.43559e+01   2.43823e-01 DIIS
   @UHF iter   2:   -98.29872799930514   -3.94288e+00   8.15661e-02 DIIS
   @UHF iter   3:   -99.44938731771843   -1.15066e+00   2.54434e-02 DIIS
   @UHF iter   4:   -99.53009031835916   -8.07030e-02   2.65438e-03 DIIS
   @UHF iter   5:   -99.53120766464284   -1.11735e-03   2.15671e-04 DIIS
   @UHF iter   6:   -99.53122427560501   -1.66110e-05   4.69404e-05 DIIS
   @UHF iter   7:   -99.53122541947029   -1.14387e-06   1.98652e-05 DIIS
   @UHF iter   8:   -99.53122570963505   -2.90165e-07   4.23138e-06 DIIS
   @UHF iter   9:   -99.53122572189923   -1.22642e-08   6.97571e-07 DIIS
  Energy converged.


  ==> Post-Iterations <==

   @Spin Contamination Metric:   4.192469225E-03
   @S^2 Expected:                7.500000000E-01
   @S^2 Observed:                7.541924692E-01
   @S   Expected:                5.000000000E-01
   @S   Observed:                5.000000000E-01

    Orbital Energies [Eh]
    ---------------------

    Alpha Occupied:                                                       

       1A1   -26.987380     2A1    -2.274178     1B1    -1.390066  
       3A1    -1.381376     1B2    -1.273581  

    Alpha Virtual:                                                        

       4A1    -0.185343     5A1     0.174906     2B1     0.391538  
       6A1     0.417152     2B2     0.426075     3B1     0.544610  
       3B2     0.571665     7A1     0.965390     8A1     1.112363  
       9A1     1.649972     1A2     1.650573    10A1     1.811016  
       4B1     1.976746     4B2     2.027806    11A1     2.720216  
       2A2     3.075779    12A1     3.076221     5B1     3.380642  
       5B2     3.393759    13A1     3.778690     6B1     3.783300  
       6B2     3.820501    14A1     4.660651     7B1     4.696120  
       7B2     4.776300    15A1     5.646969     8B1     6.750498  
       8B2     6.750518     3A2     6.986487    16A1     6.986719  
       9B1     7.839721     9B2     7.908701    17A1     7.920758  
      18A1     8.205318     4A2     8.206349    10B1     8.666403  
      10B2     8.740687    19A1     9.081979    20A1    12.029284  

    Beta Occupied:                                                        

       1A1   -26.935690     2A1    -2.083727     3A1    -1.328925  
       1B2    -1.219533  

    Beta Virtual:                                                         

       1B1    -0.432045     4A1    -0.175302     5A1     0.182663  
       6A1     0.427561     2B2     0.433746     2B1     0.482987  
       3B2     0.575908     3B1     0.620390     7A1     1.002733  
       8A1     1.126957     9A1     1.739197     1A2     1.739545  
      10A1     1.819539     4B2     2.035712     4B1     2.061448  
      11A1     2.742011     2A2     3.084546    12A1     3.084561  
       5B1     3.387498     5B2     3.390768    13A1     3.784204  
       6B2     3.827305     6B1     3.844507    14A1     4.682922  
       7B2     4.799182     7B1     4.843271    15A1     5.679299  
       8B2     6.821657     8B1     6.821659    16A1     7.036965  
       3A2     7.037018     9B1     7.920408     9B2     7.924736  
      17A1     7.951312     4A2     8.327834    18A1     8.328099  
      10B2     8.757639    10B1     8.758922    19A1     9.121434  
      20A1    12.072477  

    Final Occupation by Irrep:
             A1    A2    B1    B2 
    DOCC [     3,    0,    0,    1 ]
    SOCC [     0,    0,    1,    0 ]

  @UHF Final Energy:   -99.53122572189923

   => Energetics <=

    Nuclear Repulsion Energy =              5.2829671614309497
    One-Electron Energy =                -144.7539350339384328
    Two-Electron Energy =                  39.9397421506082537
    Total Energy =                        -99.5312257218992329

  UHF NO Occupations:
  HONO-2 :    2 A1 1.9996020
  HONO-1 :    3 A1 1.9984981
  HONO-0 :    1 B1 1.0000000
  LUNO+0 :    4 A1 0.0015019
  LUNO+1 :    5 A1 0.0003980
  LUNO+2 :    2 B2 0.0001966
  LUNO+3 :    6 A1 0.0000010


Computation Completed


Properties will be evaluated at   0.000000,   0.000000,   0.000000 [a0]

Properties computed using the SCF density matrix

  Nuclear Dipole Moment: [e a0]
     X:     0.0000      Y:     0.0000      Z:     0.8454

  Electronic Dipole Moment: [e a0]
     X:     0.0000      Y:     0.0000      Z:     0.0698

  Dipole Moment: [e a0]
     X:     0.0000      Y:     0.0000      Z:     0.9152     Total:     0.9152

  Dipole Moment: [D]
     X:     0.0000      Y:     0.0000      Z:     2.3262     Total:     2.3262


*** tstop() called on dx7-lehtola.chem.helsinki.fi at Fri Jan  4 15:14:00 2019
Module time:
	user time   =       0.11 seconds =       0.00 minutes
	system time =       0.00 seconds =       0.00 minutes
	total time  =          0 seconds =       0.00 minutes
Total time:
	user time   =       0.68 seconds =       0.01 minutes
	system time =       0.02 seconds =       0.00 minutes
	total time  =          1 seconds =       0.02 minutes
	UHF  energy, GWH  guess (a.u.)....................................PASSED

*** tstart() called on dx7-lehtola.chem.helsinki.fi
*** at Fri Jan  4 15:14:00 2019

   => Loading Basis Set <=

    Name: CC-PVTZ
    Role: ORBITAL
    Keyword: BASIS
    atoms 1 entry F          line   300 file /home/work/psi4/install.susi/share/psi4/basis/cc-pvtz.gbs 
    atoms 2 entry H          line    23 file /home/work/psi4/install.susi/share/psi4/basis/cc-pvtz.gbs 


         ---------------------------------------------------------
                                   SCF
            by Justin Turney, Rob Parrish, Andy Simmonett
                             and Daniel Smith
                              UHF Reference
                        1 Threads,    500 MiB Core
         ---------------------------------------------------------

  ==> Geometry <==

    Molecular point group: c2v
    Full point group: C_inf_v

    Geometry (in Angstrom), charge = 1, multiplicity = 2:

       Center              X                  Y                   Z               Mass       
    ------------   -----------------  -----------------  -----------------  -----------------
         F            0.000000000000     0.000000000000    -0.045413571099    18.998403162730
         H            0.000000000000     0.000000000000     0.856086428901     1.007825032230

  Running in c2v symmetry.

  Rotational constants: A = ************  B =     21.67345  C =     21.67345 [cm^-1]
  Rotational constants: A = ************  B = 649753.63037  C = 649753.63037 [MHz]
  Nuclear repulsion =    5.282967161430950

  Charge       = 1
  Multiplicity = 2
  Electrons    = 9
  Nalpha       = 5
  Nbeta        = 4

  ==> Algorithm <==

  SCF Algorithm Type is PK.
  DIIS enabled.
  MOM disabled.
  Fractional occupation disabled.
  Guess Type is SAD.
  Energy threshold   = 1.00e-06
  Density threshold  = 1.00e-06
  Integral threshold = 0.00e+00

  ==> Primary Basis <==

  Basis Set: CC-PVTZ
    Blend: CC-PVTZ
    Number of shells: 16
    Number of basis function: 44
    Number of Cartesian functions: 50
    Spherical Harmonics?: true
    Max angular momentum: 3

  ==> Pre-Iterations <==

   -------------------------------------------------------
    Irrep   Nso     Nmo     Nalpha   Nbeta   Ndocc  Nsocc
   -------------------------------------------------------
     A1        20      20       3       3       3       0
     A2         4       4       0       0       0       0
     B1        10      10       1       0       0       1
     B2        10      10       1       1       1       0
   -------------------------------------------------------
    Total      44      44       5       4       4       1
   -------------------------------------------------------

  ==> Integral Setup <==

  Using in-core PK algorithm.
   Calculation information:
      Number of atoms:                   2
      Number of AO shells:              16
      Number of primitives:             34
      Number of atomic orbitals:        50
      Number of basis functions:        44

      Integral cutoff                 1.00e-12
      Number of threads:                 1

  Performing in-core PK
  Using 981090 doubles for integral storage.
  We computed 9316 shell quartets total.
  Whereas there are 9316 unique shell quartets.

  ==> DiskJK: Disk-Based J/K Matrices <==

    J tasked:                  Yes
    K tasked:                  Yes
    wK tasked:                  No
    Memory [MiB]:              375
    Schwarz Cutoff:          1E-12

    OpenMP threads:              1

  Minimum eigenvalue in the overlap matrix is 3.4807006011E-03.
  Using Symmetric Orthogonalization.

  SCF Guess: Superposition of Atomic Densities via on-the-fly atomic UHF.

  ==> Iterations <==

                        Total Energy        Delta E     RMS |[F,P]|

   @UHF iter   0:   -93.49845299857162   -9.34985e+01   0.00000e+00 
   @UHF iter   1:   -99.40576845293968   -5.90732e+00   3.25606e-02 DIIS
   @UHF iter   2:   -99.51337182188979   -1.07603e-01   1.13874e-02 DIIS
   @UHF iter   3:   -99.53105781923095   -1.76860e-02   9.15057e-04 DIIS
   @UHF iter   4:   -99.53121845291156   -1.60634e-04   1.40951e-04 DIIS
   @UHF iter   5:   -99.53122525384359   -6.80093e-06   3.03380e-05 DIIS
   @UHF iter   6:   -99.53122567448175   -4.20638e-07   8.21378e-06 DIIS
   @UHF iter   7:   -99.53122571493859   -4.04568e-08   2.97008e-06 DIIS
   @UHF iter   8:   -99.53122572196349   -7.02491e-09   5.48387e-07 DIIS
  Energy converged.


  ==> Post-Iterations <==

   @Spin Contamination Metric:   4.192390908E-03
   @S^2 Expected:                7.500000000E-01
   @S^2 Observed:                7.541923909E-01
   @S   Expected:                5.000000000E-01
   @S   Observed:                5.000000000E-01

    Orbital Energies [Eh]
    ---------------------

    Alpha Occupied:                                                       

       1A1   -26.987379     2A1    -2.274177     1B1    -1.390064  
       3A1    -1.381376     1B2    -1.273580  

    Alpha Virtual:                                                        

       4A1    -0.185343     5A1     0.174906     2B1     0.391539  
       6A1     0.417152     2B2     0.426075     3B1     0.544611  
       3B2     0.571665     7A1     0.965391     8A1     1.112363  
       9A1     1.649973     1A2     1.650573    10A1     1.811016  
       4B1     1.976746     4B2     2.027806    11A1     2.720216  
       2A2     3.075779    12A1     3.076221     5B1     3.380642  
       5B2     3.393759    13A1     3.778690     6B1     3.783300  
       6B2     3.820501    14A1     4.660651     7B1     4.696121  
       7B2     4.776301    15A1     5.646970     8B1     6.750499  
       8B2     6.750519     3A2     6.986488    16A1     6.986719  
       9B1     7.839722     9B2     7.908702    17A1     7.920759  
      18A1     8.205319     4A2     8.206350    10B1     8.666404  
      10B2     8.740688    19A1     9.081980    20A1    12.029285  

    Beta Occupied:                                                        

       1A1   -26.935689     2A1    -2.083726     3A1    -1.328924  
       1B2    -1.219534  

    Beta Virtual:                                                         

       1B1    -0.432044     4A1    -0.175302     5A1     0.182663  
       6A1     0.427562     2B2     0.433746     2B1     0.482987  
       3B2     0.575908     3B1     0.620390     7A1     1.002733  
       8A1     1.126957     9A1     1.739198     1A2     1.739546  
      10A1     1.819539     4B2     2.035713     4B1     2.061449  
      11A1     2.742011     2A2     3.084545    12A1     3.084561  
       5B1     3.387498     5B2     3.390768    13A1     3.784204  
       6B2     3.827305     6B1     3.844507    14A1     4.682923  
       7B2     4.799182     7B1     4.843271    15A1     5.679300  
       8B2     6.821658     8B1     6.821659    16A1     7.036965  
       3A2     7.037019     9B1     7.920409     9B2     7.924737  
      17A1     7.951313     4A2     8.327834    18A1     8.328099  
      10B2     8.757640    10B1     8.758923    19A1     9.121435  
      20A1    12.072478  

    Final Occupation by Irrep:
             A1    A2    B1    B2 
    DOCC [     3,    0,    0,    1 ]
    SOCC [     0,    0,    1,    0 ]

  @UHF Final Energy:   -99.53122572196349

   => Energetics <=

    Nuclear Repulsion Energy =              5.2829671614309497
    One-Electron Energy =                -144.7539435836967812
    Two-Electron Energy =                  39.9397507003023264
    Total Energy =                        -99.5312257219635086

  UHF NO Occupations:
  HONO-2 :    2 A1 1.9996019
  HONO-1 :    3 A1 1.9984982
  HONO-0 :    1 B1 1.0000000
  LUNO+0 :    4 A1 0.0015018
  LUNO+1 :    5 A1 0.0003981
  LUNO+2 :    2 B2 0.0001965
  LUNO+3 :    6 A1 0.0000010


Computation Completed


Properties will be evaluated at   0.000000,   0.000000,   0.000000 [a0]

Properties computed using the SCF density matrix

  Nuclear Dipole Moment: [e a0]
     X:     0.0000      Y:     0.0000      Z:     0.8454

  Electronic Dipole Moment: [e a0]
     X:     0.0000      Y:     0.0000      Z:     0.0698

  Dipole Moment: [e a0]
     X:     0.0000      Y:     0.0000      Z:     0.9152     Total:     0.9152

  Dipole Moment: [D]
     X:     0.0000      Y:     0.0000      Z:     2.3262     Total:     2.3262


*** tstop() called on dx7-lehtola.chem.helsinki.fi at Fri Jan  4 15:14:00 2019
Module time:
	user time   =       0.22 seconds =       0.00 minutes
	system time =       0.00 seconds =       0.00 minutes
	total time  =          0 seconds =       0.00 minutes
Total time:
	user time   =       0.91 seconds =       0.02 minutes
	system time =       0.02 seconds =       0.00 minutes
	total time  =          1 seconds =       0.02 minutes
	UHF  energy, SAD  guess (a.u.)....................................PASSED

*** tstart() called on dx7-lehtola.chem.helsinki.fi
*** at Fri Jan  4 15:14:00 2019

   => Loading Basis Set <=

    Name: CC-PVTZ
    Role: ORBITAL
    Keyword: BASIS
    atoms 1 entry F          line   300 file /home/work/psi4/install.susi/share/psi4/basis/cc-pvtz.gbs 
    atoms 2 entry H          line    23 file /home/work/psi4/install.susi/share/psi4/basis/cc-pvtz.gbs 


         ---------------------------------------------------------
                                   SCF
            by Justin Turney, Rob Parrish, Andy Simmonett
                             and Daniel Smith
                             ROHF Reference
                        1 Threads,    500 MiB Core
         ---------------------------------------------------------

  ==> Geometry <==

    Molecular point group: c2v
    Full point group: C_inf_v

    Geometry (in Angstrom), charge = 1, multiplicity = 2:

       Center              X                  Y                   Z               Mass       
    ------------   -----------------  -----------------  -----------------  -----------------
         F            0.000000000000     0.000000000000    -0.045413571099    18.998403162730
         H            0.000000000000     0.000000000000     0.856086428901     1.007825032230

  Running in c2v symmetry.

  Rotational constants: A = ************  B =     21.67345  C =     21.67345 [cm^-1]
  Rotational constants: A = ************  B = 649753.63037  C = 649753.63037 [MHz]
  Nuclear repulsion =    5.282967161430950

  Charge       = 1
  Multiplicity = 2
  Electrons    = 9
  Nalpha       = 5
  Nbeta        = 4

  ==> Algorithm <==

  SCF Algorithm Type is PK.
  DIIS enabled.
  MOM disabled.
  Fractional occupation disabled.
  Guess Type is CORE.
  Energy threshold   = 1.00e-06
  Density threshold  = 1.00e-06
  Integral threshold = 0.00e+00

  ==> Primary Basis <==

  Basis Set: CC-PVTZ
    Blend: CC-PVTZ
    Number of shells: 16
    Number of basis function: 44
    Number of Cartesian functions: 50
    Spherical Harmonics?: true
    Max angular momentum: 3

  ==> Pre-Iterations <==

   -------------------------------------------------------
    Irrep   Nso     Nmo     Nalpha   Nbeta   Ndocc  Nsocc
   -------------------------------------------------------
     A1        20      20       3       3       3       0
     A2         4       4       0       0       0       0
     B1        10      10       1       0       0       1
     B2        10      10       1       1       1       0
   -------------------------------------------------------
    Total      44      44       5       4       4       1
   -------------------------------------------------------

  ==> Integral Setup <==

  Using in-core PK algorithm.
   Calculation information:
      Number of atoms:                   2
      Number of AO shells:              16
      Number of primitives:             34
      Number of atomic orbitals:        50
      Number of basis functions:        44

      Integral cutoff                 1.00e-12
      Number of threads:                 1

  Performing in-core PK
  Using 981090 doubles for integral storage.
  We computed 9316 shell quartets total.
  Whereas there are 9316 unique shell quartets.

  ==> DiskJK: Disk-Based J/K Matrices <==

    J tasked:                  Yes
    K tasked:                  Yes
    wK tasked:                  No
    Memory [MiB]:              375
    Schwarz Cutoff:          1E-12

    OpenMP threads:              1

  Minimum eigenvalue in the overlap matrix is 3.4807006011E-03.
  Using Symmetric Orthogonalization.

  SCF Guess: Core (One-Electron) Hamiltonian.

  ==> Iterations <==

                        Total Energy        Delta E     RMS |[F,P]|

   @ROHF iter   1:   -88.99202896495353   -8.89920e+01   2.25388e-01 DIIS
   @ROHF iter   2:   -94.76173947230723   -5.76971e+00   9.73159e-02 DIIS
   @ROHF iter   3:   -99.09252921087801   -4.33079e+00   4.24504e-02 DIIS
   @ROHF iter   4:   -99.51198980087987   -4.19461e-01   6.48144e-03 DIIS
   @ROHF iter   5:   -99.52601174030082   -1.40219e-02   6.02218e-04 DIIS
   @ROHF iter   6:   -99.52616181232666   -1.50072e-04   1.35312e-04 DIIS
   @ROHF iter   7:   -99.52617106943212   -9.25711e-06   1.75540e-05 DIIS
   @ROHF iter   8:   -99.52617133609061   -2.66658e-07   4.01154e-06 DIIS
   @ROHF iter   9:   -99.52617135108531   -1.49947e-08   5.37596e-07 DIIS
  Energy converged.


  ==> Post-Iterations <==

    Orbital Energies [Eh]
    ---------------------

    Doubly Occupied:                                                      

       1A1   -26.962056     2A1    -2.176864     3A1    -1.355356  
       1B2    -1.246706  

    Singly Occupied:                                                      

       1B1    -0.882970  

    Virtual:                                                              

       4A1    -0.180491     5A1     0.178550     6A1     0.422241  
       2B1     0.429509     2B2     0.429839     3B1     0.566011  
       3B2     0.573608     7A1     0.983899     8A1     1.119530  
       1A2     1.695114     9A1     1.695136    10A1     1.813677  
       4B1     2.018923     4B2     2.031681    11A1     2.730610  
       2A2     3.079972    12A1     3.080073     5B1     3.383958  
       5B2     3.392058    13A1     3.781202     6B1     3.813377  
       6B2     3.823743    14A1     4.671568     7B1     4.766665  
       7B2     4.787527    15A1     5.663032     8B1     6.785701  
       8B2     6.785785     3A2     7.011608    16A1     7.011643  
       9B1     7.880011     9B2     7.916625    17A1     7.935701  
      18A1     8.266301     4A2     8.266603    10B1     8.711859  
      10B2     8.748989    19A1     9.100782    20A1    12.050440  

    Final Occupation by Irrep:
             A1    A2    B1    B2 
    DOCC [     3,    0,    0,    1 ]
    SOCC [     0,    0,    1,    0 ]

  @ROHF Final Energy:   -99.52617135108531

   => Energetics <=

    Nuclear Repulsion Energy =              5.2829671614309497
    One-Electron Energy =                -144.7572499551081648
    Two-Electron Energy =                  39.9481114425919088
    Total Energy =                        -99.5261713510853099

Computation Completed


Properties will be evaluated at   0.000000,   0.000000,   0.000000 [a0]

Properties computed using the SCF density matrix

  Nuclear Dipole Moment: [e a0]
     X:     0.0000      Y:     0.0000      Z:     0.8454

  Electronic Dipole Moment: [e a0]
     X:     0.0000      Y:     0.0000      Z:     0.0702

  Dipole Moment: [e a0]
     X:     0.0000      Y:     0.0000      Z:     0.9156     Total:     0.9156

  Dipole Moment: [D]
     X:     0.0000      Y:     0.0000      Z:     2.3272     Total:     2.3272


*** tstop() called on dx7-lehtola.chem.helsinki.fi at Fri Jan  4 15:14:00 2019
Module time:
	user time   =       0.12 seconds =       0.00 minutes
	system time =       0.00 seconds =       0.00 minutes
	total time  =          0 seconds =       0.00 minutes
Total time:
	user time   =       1.03 seconds =       0.02 minutes
	system time =       0.02 seconds =       0.00 minutes
	total time  =          1 seconds =       0.02 minutes
	ROHF energy, CORE guess (a.u.)....................................PASSED

*** tstart() called on dx7-lehtola.chem.helsinki.fi
*** at Fri Jan  4 15:14:00 2019

   => Loading Basis Set <=

    Name: CC-PVTZ
    Role: ORBITAL
    Keyword: BASIS
    atoms 1 entry F          line   300 file /home/work/psi4/install.susi/share/psi4/basis/cc-pvtz.gbs 
    atoms 2 entry H          line    23 file /home/work/psi4/install.susi/share/psi4/basis/cc-pvtz.gbs 


         ---------------------------------------------------------
                                   SCF
            by Justin Turney, Rob Parrish, Andy Simmonett
                             and Daniel Smith
                             ROHF Reference
                        1 Threads,    500 MiB Core
         ---------------------------------------------------------

  ==> Geometry <==

    Molecular point group: c2v
    Full point group: C_inf_v

    Geometry (in Angstrom), charge = 1, multiplicity = 2:

       Center              X                  Y                   Z               Mass       
    ------------   -----------------  -----------------  -----------------  -----------------
         F            0.000000000000     0.000000000000    -0.045413571099    18.998403162730
         H            0.000000000000     0.000000000000     0.856086428901     1.007825032230

  Running in c2v symmetry.

  Rotational constants: A = ************  B =     21.67345  C =     21.67345 [cm^-1]
  Rotational constants: A = ************  B = 649753.63037  C = 649753.63037 [MHz]
  Nuclear repulsion =    5.282967161430950

  Charge       = 1
  Multiplicity = 2
  Electrons    = 9
  Nalpha       = 5
  Nbeta        = 4

  ==> Algorithm <==

  SCF Algorithm Type is PK.
  DIIS enabled.
  MOM disabled.
  Fractional occupation disabled.
  Guess Type is GWH.
  Energy threshold   = 1.00e-06
  Density threshold  = 1.00e-06
  Integral threshold = 0.00e+00

  ==> Primary Basis <==

  Basis Set: CC-PVTZ
    Blend: CC-PVTZ
    Number of shells: 16
    Number of basis function: 44
    Number of Cartesian functions: 50
    Spherical Harmonics?: true
    Max angular momentum: 3

  ==> Pre-Iterations <==

   -------------------------------------------------------
    Irrep   Nso     Nmo     Nalpha   Nbeta   Ndocc  Nsocc
   -------------------------------------------------------
     A1        20      20       3       3       3       0
     A2         4       4       0       0       0       0
     B1        10      10       1       0       0       1
     B2        10      10       1       1       1       0
   -------------------------------------------------------
    Total      44      44       5       4       4       1
   -------------------------------------------------------

  ==> Integral Setup <==

  Using in-core PK algorithm.
   Calculation information:
      Number of atoms:                   2
      Number of AO shells:              16
      Number of primitives:             34
      Number of atomic orbitals:        50
      Number of basis functions:        44

      Integral cutoff                 1.00e-12
      Number of threads:                 1

  Performing in-core PK
  Using 981090 doubles for integral storage.
  We computed 9316 shell quartets total.
  Whereas there are 9316 unique shell quartets.

  ==> DiskJK: Disk-Based J/K Matrices <==

    J tasked:                  Yes
    K tasked:                  Yes
    wK tasked:                  No
    Memory [MiB]:              375
    Schwarz Cutoff:          1E-12

    OpenMP threads:              1

  Minimum eigenvalue in the overlap matrix is 3.4807006011E-03.
  Using Symmetric Orthogonalization.

  SCF Guess: Generalized Wolfsberg-Helmholtz.

  ==> Iterations <==

                        Total Energy        Delta E     RMS |[F,P]|

   @ROHF iter   1:   -94.35585144644557   -9.43559e+01   1.78830e-01 DIIS
   @ROHF iter   2:   -97.74862418157667   -3.39277e+00   7.00348e-02 DIIS
   @ROHF iter   3:   -99.37530742984110   -1.62668e+00   2.52341e-02 DIIS
   @ROHF iter   4:   -99.52287871000358   -1.47571e-01   3.08104e-03 DIIS
   @ROHF iter   5:   -99.52612552903291   -3.24682e-03   3.64369e-04 DIIS
   @ROHF iter   6:   -99.52617114228762   -4.56133e-05   2.38100e-05 DIIS
   @ROHF iter   7:   -99.52617133771889   -1.95431e-07   3.71102e-06 DIIS
   @ROHF iter   8:   -99.52617134988091   -1.21620e-08   1.20710e-06 DIIS
   @ROHF iter   9:   -99.52617135123243   -1.35152e-09   1.04670e-07 DIIS
  Energy converged.


  ==> Post-Iterations <==

    Orbital Energies [Eh]
    ---------------------

    Doubly Occupied:                                                      

       1A1   -26.962056     2A1    -2.176864     3A1    -1.355356  
       1B2    -1.246706  

    Singly Occupied:                                                      

       1B1    -0.882971  

    Virtual:                                                              

       4A1    -0.180491     5A1     0.178550     6A1     0.422240  
       2B1     0.429509     2B2     0.429839     3B1     0.566011  
       3B2     0.573608     7A1     0.983899     8A1     1.119530  
       1A2     1.695114     9A1     1.695135    10A1     1.813677  
       4B1     2.018923     4B2     2.031681    11A1     2.730610  
       2A2     3.079972    12A1     3.080073     5B1     3.383958  
       5B2     3.392058    13A1     3.781202     6B1     3.813377  
       6B2     3.823743    14A1     4.671568     7B1     4.766665  
       7B2     4.787527    15A1     5.663032     8B1     6.785701  
       8B2     6.785785     3A2     7.011608    16A1     7.011642  
       9B1     7.880010     9B2     7.916625    17A1     7.935701  
      18A1     8.266301     4A2     8.266603    10B1     8.711859  
      10B2     8.748989    19A1     9.100782    20A1    12.050440  

    Final Occupation by Irrep:
             A1    A2    B1    B2 
    DOCC [     3,    0,    0,    1 ]
    SOCC [     0,    0,    1,    0 ]

  @ROHF Final Energy:   -99.52617135123243

   => Energetics <=

    Nuclear Repulsion Energy =              5.2829671614309497
    One-Electron Energy =                -144.7572871760333726
    Two-Electron Energy =                  39.9481486633699916
    Total Energy =                        -99.5261713512324349

Computation Completed


Properties will be evaluated at   0.000000,   0.000000,   0.000000 [a0]

Properties computed using the SCF density matrix

  Nuclear Dipole Moment: [e a0]
     X:     0.0000      Y:     0.0000      Z:     0.8454

  Electronic Dipole Moment: [e a0]
     X:     0.0000      Y:     0.0000      Z:     0.0702

  Dipole Moment: [e a0]
     X:     0.0000      Y:     0.0000      Z:     0.9156     Total:     0.9156

  Dipole Moment: [D]
     X:     0.0000      Y:     0.0000      Z:     2.3272     Total:     2.3272


*** tstop() called on dx7-lehtola.chem.helsinki.fi at Fri Jan  4 15:14:00 2019
Module time:
	user time   =       0.12 seconds =       0.00 minutes
	system time =       0.00 seconds =       0.00 minutes
	total time  =          0 seconds =       0.00 minutes
Total time:
	user time   =       1.15 seconds =       0.02 minutes
	system time =       0.02 seconds =       0.00 minutes
	total time  =          1 seconds =       0.02 minutes
	ROHF energy, GWH  guess (a.u.)....................................PASSED

*** tstart() called on dx7-lehtola.chem.helsinki.fi
*** at Fri Jan  4 15:14:00 2019

   => Loading Basis Set <=

    Name: CC-PVTZ
    Role: ORBITAL
    Keyword: BASIS
    atoms 1 entry F          line   300 file /home/work/psi4/install.susi/share/psi4/basis/cc-pvtz.gbs 
    atoms 2 entry H          line    23 file /home/work/psi4/install.susi/share/psi4/basis/cc-pvtz.gbs 


         ---------------------------------------------------------
                                   SCF
            by Justin Turney, Rob Parrish, Andy Simmonett
                             and Daniel Smith
                             ROHF Reference
                        1 Threads,    500 MiB Core
         ---------------------------------------------------------

  ==> Geometry <==

    Molecular point group: c2v
    Full point group: C_inf_v

    Geometry (in Angstrom), charge = 1, multiplicity = 2:

       Center              X                  Y                   Z               Mass       
    ------------   -----------------  -----------------  -----------------  -----------------
         F            0.000000000000     0.000000000000    -0.045413571099    18.998403162730
         H            0.000000000000     0.000000000000     0.856086428901     1.007825032230

  Running in c2v symmetry.

  Rotational constants: A = ************  B =     21.67345  C =     21.67345 [cm^-1]
  Rotational constants: A = ************  B = 649753.63037  C = 649753.63037 [MHz]
  Nuclear repulsion =    5.282967161430950

  Charge       = 1
  Multiplicity = 2
  Electrons    = 9
  Nalpha       = 5
  Nbeta        = 4

  ==> Algorithm <==

  SCF Algorithm Type is PK.
  DIIS enabled.
  MOM disabled.
  Fractional occupation disabled.
  Guess Type is SAD.
  Energy threshold   = 1.00e-06
  Density threshold  = 1.00e-06
  Integral threshold = 0.00e+00

  ==> Primary Basis <==

  Basis Set: CC-PVTZ
    Blend: CC-PVTZ
    Number of shells: 16
    Number of basis function: 44
    Number of Cartesian functions: 50
    Spherical Harmonics?: true
    Max angular momentum: 3

  ==> Pre-Iterations <==

   -------------------------------------------------------
    Irrep   Nso     Nmo     Nalpha   Nbeta   Ndocc  Nsocc
   -------------------------------------------------------
     A1        20      20       3       3       3       0
     A2         4       4       0       0       0       0
     B1        10      10       1       0       0       1
     B2        10      10       1       1       1       0
   -------------------------------------------------------
    Total      44      44       5       4       4       1
   -------------------------------------------------------

  ==> Integral Setup <==

  Using in-core PK algorithm.
   Calculation information:
      Number of atoms:                   2
      Number of AO shells:              16
      Number of primitives:             34
      Number of atomic orbitals:        50
      Number of basis functions:        44

      Integral cutoff                 1.00e-12
      Number of threads:                 1

  Performing in-core PK
  Using 981090 doubles for integral storage.
  We computed 9316 shell quartets total.
  Whereas there are 9316 unique shell quartets.

  ==> DiskJK: Disk-Based J/K Matrices <==

    J tasked:                  Yes
    K tasked:                  Yes
    wK tasked:                  No
    Memory [MiB]:              375
    Schwarz Cutoff:          1E-12

    OpenMP threads:              1

  Minimum eigenvalue in the overlap matrix is 3.4807006011E-03.
  Using Symmetric Orthogonalization.

  SCF Guess: Superposition of Atomic Densities via on-the-fly atomic UHF.

  ==> Iterations <==

                        Total Energy        Delta E     RMS |[F,P]|

   @ROHF iter   0:    37.35213783948360    3.73521e+01   0.00000e+00 
   @ROHF iter   1:   -98.88199282615329   -1.36234e+02   5.47587e-02 DIIS
   @ROHF iter   2:   -99.37308671364978   -4.91094e-01   2.39373e-02 DIIS
   @ROHF iter   3:   -99.52506651519126   -1.51980e-01   1.60839e-03 DIIS
   @ROHF iter   4:   -99.52612487148858   -1.05836e-03   3.72093e-04 DIIS
   @ROHF iter   5:   -99.52617068447651   -4.58130e-05   3.55283e-05 DIIS
   @ROHF iter   6:   -99.52617130679995   -6.22323e-07   6.69049e-06 DIIS
   @ROHF iter   7:   -99.52617134939349   -4.25935e-08   1.37357e-06 DIIS
   @ROHF iter   8:   -99.52617135123218   -1.83869e-09   1.08978e-07 DIIS
  Energy converged.


  ==> Post-Iterations <==

    Orbital Energies [Eh]
    ---------------------

    Doubly Occupied:                                                      

       1A1   -26.962057     2A1    -2.176864     3A1    -1.355356  
       1B2    -1.246707  

    Singly Occupied:                                                      

       1B1    -0.882971  

    Virtual:                                                              

       4A1    -0.180491     5A1     0.178550     6A1     0.422240  
       2B1     0.429509     2B2     0.429839     3B1     0.566011  
       3B2     0.573608     7A1     0.983899     8A1     1.119530  
       1A2     1.695114     9A1     1.695135    10A1     1.813677  
       4B1     2.018923     4B2     2.031681    11A1     2.730610  
       2A2     3.079972    12A1     3.080073     5B1     3.383958  
       5B2     3.392058    13A1     3.781202     6B1     3.813377  
       6B2     3.823743    14A1     4.671568     7B1     4.766665  
       7B2     4.787527    15A1     5.663032     8B1     6.785701  
       8B2     6.785785     3A2     7.011608    16A1     7.011642  
       9B1     7.880010     9B2     7.916625    17A1     7.935701  
      18A1     8.266300     4A2     8.266603    10B1     8.711859  
      10B2     8.748989    19A1     9.100782    20A1    12.050440  

    Final Occupation by Irrep:
             A1    A2    B1    B2 
    DOCC [     3,    0,    0,    1 ]
    SOCC [     0,    0,    1,    0 ]

  @ROHF Final Energy:   -99.52617135123218

   => Energetics <=

    Nuclear Repulsion Energy =              5.2829671614309497
    One-Electron Energy =                -144.7572894497901359
    Two-Electron Energy =                  39.9481509371270107
    Total Energy =                        -99.5261713512321791

Computation Completed


Properties will be evaluated at   0.000000,   0.000000,   0.000000 [a0]

Properties computed using the SCF density matrix

  Nuclear Dipole Moment: [e a0]
     X:     0.0000      Y:     0.0000      Z:     0.8454

  Electronic Dipole Moment: [e a0]
     X:     0.0000      Y:     0.0000      Z:     0.0702

  Dipole Moment: [e a0]
     X:     0.0000      Y:     0.0000      Z:     0.9156     Total:     0.9156

  Dipole Moment: [D]
     X:     0.0000      Y:     0.0000      Z:     2.3272     Total:     2.3272


*** tstop() called on dx7-lehtola.chem.helsinki.fi at Fri Jan  4 15:14:01 2019
Module time:
	user time   =       0.22 seconds =       0.00 minutes
	system time =       0.01 seconds =       0.00 minutes
	total time  =          1 seconds =       0.02 minutes
Total time:
	user time   =       1.37 seconds =       0.02 minutes
	system time =       0.03 seconds =       0.00 minutes
	total time  =          2 seconds =       0.03 minutes
	ROHF energy, SAD  guess (a.u.)....................................PASSED

    Psi4 stopped on: Friday, 04 January 2019 03:14PM
    Psi4 wall time for execution: 0:00:01.44

*** Psi4 exiting successfully. Buy a developer a beer!
