    -----------------------------------------------------------------------
          Psi4: An Open-Source Ab Initio Electronic Structure Package
                              Psi4 0.4.190 Driver

                          Git: Rev {test_ref_refresh} 9b1b239 dirty

    J. M. Turney, A. C. Simmonett, R. M. Parrish, E. G. Hohenstein,
    F. A. Evangelista, J. T. Fermann, B. J. Mintz, L. A. Burns, J. J. Wilke,
    M. L. Abrams, N. J. Russ, M. L. Leininger, C. L. Janssen, E. T. Seidl,
    W. D. Allen, H. F. Schaefer, R. A. King, E. F. Valeev, C. D. Sherrill,
    and T. D. Crawford, WIREs Comput. Mol. Sci. 2, 556-565 (2012)
    (doi: 10.1002/wcms.93)

                         Additional Contributions by
    A. E. DePrince, U. Bozkaya, A. Yu. Sokolov, D. G. A. Smith, R. Di Remigio,
    R. M. Richard, J. F. Gonthier, H. R. McAlexander, M. Saitow, and
    B. P. Pritchard
    -----------------------------------------------------------------------


    Psi4 started on: Mon Apr  4 10:22:26 2016

    Process ID:   4596
    PSI4DATADIR: /home/dsmith/Gits/dgas_psi/share
    Memory level set to 256.000 MB

  ==> Input File <==

--------------------------------------------------------------------------
#! RHF CCSD(T) STO-3G frozen-core energy of C4NH4 Anion

memory 250 mb

molecule C4NH4 {
  -1 1
  C         0.00000000     0.00000000     2.13868804
  N         0.00000000     0.00000000     4.42197911
  C         0.00000000     0.00000000    -0.46134192
  C        -1.47758582     0.00000000    -2.82593059
  C         1.47758582     0.00000000    -2.82593059
  H        -2.41269553    -1.74021190    -3.52915989
  H        -2.41269553     1.74021190    -3.52915989
  H         2.41269553     1.74021190    -3.52915989
  H         2.41269553    -1.74021190    -3.52915989
  units bohr
}

set globals {
  docc        [10, 1, 4, 3]
  basis       cc-pVDZ
  freeze_core true
  r_convergence 10
  e_convergence 10
  d_convergence 10
}

energy('ccsd(t)')

refnuc   =  135.092128488419604 #TEST
refscf   = -208.153697555165110 #TEST
refccsd  =   -0.731388084971396 #TEST
ref_t    =   -0.030675386522182 #TEST
reftotal = -208.915761026658572 #TEST

compare_values(refnuc,   C4NH4.nuclear_repulsion_energy(),        9, "Nuclear repulsion energy")  #TEST
compare_values(refscf,   get_variable("SCF total energy"),              9, "SCF energy")                   #TEST
compare_values(refccsd,  get_variable("CCSD correlation energy"), 9, "CCSD contribution")            #TEST
compare_values(ref_t,    get_variable("(T) correction energy"),   9, "(T) contribution")             #TEST
compare_values(reftotal, get_variable("Current energy"),          9, "Total energy")                 #TEST
--------------------------------------------------------------------------

  Memory set to 250.000 MiB by Python script.

*** tstart() called on ds1.sherrill.chemistry.gatech.edu
*** at Mon Apr  4 10:22:26 2016


         ---------------------------------------------------------
                                   SCF
            by Justin Turney, Rob Parrish, and Andy Simmonett
                              RHF Reference
                        1 Threads,    250 MiB Core
         ---------------------------------------------------------

  ==> Geometry <==

    Molecular point group: c2v
    Full point group: C2v

    Geometry (in Bohr), charge = -1, multiplicity = 1:

       Center              X                  Y                   Z               Mass       
    ------------   -----------------  -----------------  -----------------  -----------------
           C          0.000000000000    -0.000000000000     2.138687778202    12.000000000000
           N          0.000000000000    -0.000000000000     4.421978848202    14.003074004780
           C          0.000000000000    -0.000000000000    -0.461342181798    12.000000000000
           C         -1.477585820000    -0.000000000000    -2.825930851798    12.000000000000
           C          1.477585820000     0.000000000000    -2.825930851798    12.000000000000
           H         -2.412695530000    -1.740211900000    -3.529160151798     1.007825032070
           H         -2.412695530000     1.740211900000    -3.529160151798     1.007825032070
           H          2.412695530000     1.740211900000    -3.529160151798     1.007825032070
           H          2.412695530000    -1.740211900000    -3.529160151798     1.007825032070

  Running in c2v symmetry.

  Rotational constants: A =      0.68352  B =      0.10285  C =      0.09276 [cm^-1]
  Rotational constants: A =  20491.43031  B =   3083.25870  C =   2780.83592 [MHz]
  Nuclear repulsion =  135.092128488419604

  Charge       = -1
  Multiplicity = 1
  Electrons    = 36
  Nalpha       = 18
  Nbeta        = 18

  ==> Algorithm <==

  SCF Algorithm Type is PK.
  DIIS enabled.
  MOM disabled.
  Fractional occupation disabled.
  Guess Type is CORE.
  Energy threshold   = 1.00e-10
  Density threshold  = 1.00e-10
  Integral threshold = 0.00e+00

  ==> Primary Basis <==

  Basis Set: CC-PVDZ
    Number of shells: 42
    Number of basis function: 90
    Number of Cartesian functions: 95
    Spherical Harmonics?: true
    Max angular momentum: 2

  ==> Pre-Iterations <==

   -------------------------------------------------------
    Irrep   Nso     Nmo     Nalpha   Nbeta   Ndocc  Nsocc
   -------------------------------------------------------
     A1        36      36      10      10      10       0
     A2        12      12       1       1       1       0
     B1        24      24       4       4       4       0
     B2        18      18       3       3       3       0
   -------------------------------------------------------
    Total      90      90      18      18      18       0
   -------------------------------------------------------

  ==> Integral Setup <==

	Batch   1 pq = [       0,    1215] index = [             0,738720]
  ==> DiskJK: Disk-Based J/K Matrices <==

    J tasked:                  Yes
    K tasked:                  Yes
    wK tasked:                  No
    Memory (MB):               178
    Schwarz Cutoff:          1E-12

  Minimum eigenvalue in the overlap matrix is 1.0784772041E-03.
  Using Symmetric Orthogonalization.
  SCF Guess: Core (One-Electron) Hamiltonian.

  ==> Iterations <==

                        Total Energy        Delta E     RMS |[F,P]|

   @RHF iter   1:  -173.02990812614840   -1.73030e+02   1.00706e-01 
   @RHF iter   2:  -184.45862431301040   -1.14287e+01   8.77807e-02 DIIS
   @RHF iter   3:  -207.61075494413669   -2.31521e+01   1.95292e-02 DIIS
   @RHF iter   4:  -208.01209990130528   -4.01345e-01   9.83726e-03 DIIS
   @RHF iter   5:  -208.14091592800102   -1.28816e-01   2.44411e-03 DIIS
   @RHF iter   6:  -208.15252460254962   -1.16087e-02   7.33817e-04 DIIS
   @RHF iter   7:  -208.15352242775762   -9.97825e-04   2.74645e-04 DIIS
   @RHF iter   8:  -208.15367779289855   -1.55365e-04   7.10104e-05 DIIS
   @RHF iter   9:  -208.15369502305478   -1.72302e-05   2.00378e-05 DIIS
   @RHF iter  10:  -208.15369704727479   -2.02422e-06   7.32708e-06 DIIS
   @RHF iter  11:  -208.15369744683099   -3.99556e-07   3.51798e-06 DIIS
   @RHF iter  12:  -208.15369755057733   -1.03746e-07   1.06484e-06 DIIS
   @RHF iter  13:  -208.15369755494575   -4.36842e-09   2.86495e-07 DIIS
   @RHF iter  14:  -208.15369755515209   -2.06342e-10   5.36797e-08 DIIS
   @RHF iter  15:  -208.15369755516448   -1.23919e-11   1.20498e-08 DIIS
   @RHF iter  16:  -208.15369755516488   -3.97904e-13   2.76690e-09 DIIS
   @RHF iter  17:  -208.15369755516505   -1.70530e-13   8.85957e-10 DIIS
   @RHF iter  18:  -208.15369755516488    1.70530e-13   3.42006e-10 DIIS
   @RHF iter  19:  -208.15369755516494   -5.68434e-14   1.35821e-10 DIIS
   @RHF iter  20:  -208.15369755516500   -5.68434e-14   2.68853e-11 DIIS

  ==> Post-Iterations <==

    Orbital Energies (a.u.)
    -----------------------

    Doubly Occupied:                                                      

       1A1   -15.320904     2A1   -11.070098     1B1   -11.069592  
       3A1   -11.066982     4A1   -11.001102     5A1    -0.955126  
       6A1    -0.921297     7A1    -0.667532     2B1    -0.638626  
       8A1    -0.492937     1B2    -0.448627     1A2    -0.331036  
       9A1    -0.323566     3B1    -0.289294     2B2    -0.261084  
      10A1    -0.241617     4B1    -0.182464     3B2    -0.055447  

    Virtual:                                                              

      11A1     0.345941     4B2     0.373159     5B1     0.374079  
       6B1     0.411220     2A2     0.447147     7B1     0.510571  
       5B2     0.514937    12A1     0.518475    13A1     0.613119  
       8B1     0.680882    14A1     0.692987    15A1     0.784011  
       6B2     0.862563     9B1     0.883386    16A1     0.919707  
       7B2     0.919890    17A1     0.929314    10B1     0.937015  
       3A2     0.998247    11B1     1.002667     8B2     1.046658  
       4A2     1.059810    12B1     1.060156    18A1     1.078249  
       9B2     1.080386    19A1     1.132281    13B1     1.160574  
      20A1     1.224382    10B2     1.327930    14B1     1.351773  
      21A1     1.388445    11B2     1.439395    22A1     1.530477  
       5A2     1.537840    23A1     1.579768     6A2     1.593471  
      15B1     1.670902    24A1     1.672269    12B2     1.713413  
      25A1     1.801431     7A2     1.831612    16B1     1.868441  
      26A1     1.889550    13B2     1.974883     8A2     2.033041  
      14B2     2.042497    17B1     2.052559    18B1     2.069126  
      27A1     2.098202    28A1     2.115706    29A1     2.182176  
      15B2     2.197374    19B1     2.311650    30A1     2.353131  
       9A2     2.406855    20B1     2.412767    31A1     2.459559  
      10A2     2.508080    16B2     2.579679    21B1     2.643804  
      11A2     2.645639    32A1     2.646358    22B1     2.784794  
      33A1     2.882316    34A1     2.952834    17B2     2.962743  
      23B1     3.002065    12A2     3.164312    35A1     3.355988  
      24B1     3.361645    18B2     3.363677    36A1     3.491024  

    Final Occupation by Irrep:
             A1    A2    B1    B2 
    DOCC [    10,    1,    4,    3 ]

  Energy converged.

  @RHF Final Energy:  -208.15369755516500

   => Energetics <=

    Nuclear Repulsion Energy =            135.0921284884196041
    One-Electron Energy =                -555.8169827227794713
    Two-Electron Energy =                 212.5711566791948712
    DFT Exchange-Correlation Energy =       0.0000000000000000
    Empirical Dispersion Energy =           0.0000000000000000
    PCM Polarization Energy =               0.0000000000000000
    EFP Energy =                            0.0000000000000000
    Total Energy =                       -208.1536975551650244

    Alert: EFP and PCM quantities not currently incorporated into SCF psivars.

Properties will be evaluated at   0.000000,   0.000000,   0.000000 Bohr
  ==> Properties <==


Properties computed using the SCF density matrix

  Nuclear Dipole Moment: (a.u.)
     X:    -0.0000      Y:     0.0000      Z:    -7.0099

  Electronic Dipole Moment: (a.u.)
     X:     0.0000      Y:     0.0000      Z:     5.2752

  Dipole Moment: (a.u.)
     X:    -0.0000      Y:     0.0000      Z:    -1.7347     Total:     1.7347

  Dipole Moment: (Debye)
     X:    -0.0000      Y:     0.0000      Z:    -4.4091     Total:     4.4091


  Saving occupied orbitals to File 180.

*** tstop() called on ds1.sherrill.chemistry.gatech.edu at Mon Apr  4 10:22:28 2016
Module time:
	user time   =       1.29 seconds =       0.02 minutes
	system time =       0.08 seconds =       0.00 minutes
	total time  =          2 seconds =       0.03 minutes
Total time:
	user time   =       1.29 seconds =       0.02 minutes
	system time =       0.08 seconds =       0.00 minutes
	total time  =          2 seconds =       0.03 minutes

*** tstart() called on ds1.sherrill.chemistry.gatech.edu
*** at Mon Apr  4 10:22:28 2016


	Wfn Parameters:
	--------------------
	Wavefunction         = CCSD_T
	Number of irreps     = 4
	Number of MOs        = 90
	Number of active MOs = 85
	AO-Basis             = NONE
	Semicanonical        = false
	Reference            = RHF
	Print Level          = 1

	IRREP	# MOs	# FZDC	# DOCC	# SOCC	# VIRT	# FZVR
	-----	-----	------	------	------	------	------
	 A1	   36	    4	    6	    0	    26	    0
	 A2	   12	    0	    1	    0	    11	    0
	 B1	   24	    1	    3	    0	    20	    0
	 B2	   18	    0	    3	    0	    15	    0
	Transforming integrals...
	IWL integrals will be deleted.
	(OO|OO)...
	Presorting SO-basis two-electron integrals.
	Sorting File: SO Ints (nn|nn) nbuckets = 1
	Transforming the one-electron integrals and constructing Fock matrices
	Starting first half-transformation.
	Sorting half-transformed integrals.
	First half integral transformation complete.
	Starting second half-transformation.
	Two-electron integral transformation complete.
	(OO|OV)...
	Starting second half-transformation.
	Two-electron integral transformation complete.
	(OO|VV)...
	Starting second half-transformation.
	Two-electron integral transformation complete.
	(OV|OO)...
	Starting first half-transformation.
	Sorting half-transformed integrals.
	First half integral transformation complete.
	Starting second half-transformation.
	Two-electron integral transformation complete.
	(OV|OV)...
	Starting second half-transformation.
	Two-electron integral transformation complete.
	(OV|VV)...
	Starting second half-transformation.
	Two-electron integral transformation complete.
	(VV|OO)...
	Starting first half-transformation.
	Sorting half-transformed integrals.
	First half integral transformation complete.
	Starting second half-transformation.
	Two-electron integral transformation complete.
	(VV|OV)...
	Starting second half-transformation.
	Two-electron integral transformation complete.
	(VV|VV)...
	Starting second half-transformation.
	Two-electron integral transformation complete.
	Frozen core energy     =   -240.51542960402790

	Size of irrep 0 of <ab|cd> integrals:      2.022 (MW) /     16.177 (MB)
	Size of irrep 1 of <ab|cd> integrals:      1.374 (MW) /     10.989 (MB)
	Size of irrep 2 of <ab|cd> integrals:      1.877 (MW) /     15.015 (MB)
	Size of irrep 3 of <ab|cd> integrals:      1.488 (MW) /     11.907 (MB)
	Total:                                     6.761 (MW) /     54.088 (MB)

	Size of irrep 0 of <ia|bc> integrals:      0.387 (MW) /      3.094 (MB)
	Size of irrep 1 of <ia|bc> integrals:      0.231 (MW) /      1.847 (MB)
	Size of irrep 2 of <ia|bc> integrals:      0.337 (MW) /      2.696 (MB)
	Size of irrep 3 of <ia|bc> integrals:      0.270 (MW) /      2.157 (MB)
	Total:                                     1.224 (MW) /      9.794 (MB)

	Size of irrep 0 of tijab amplitudes:       0.078 (MW) /      0.626 (MB)
	Size of irrep 1 of tijab amplitudes:       0.035 (MW) /      0.281 (MB)
	Size of irrep 2 of tijab amplitudes:       0.058 (MW) /      0.460 (MB)
	Size of irrep 3 of tijab amplitudes:       0.051 (MW) /      0.410 (MB)
	Total:                                     0.222 (MW) /      1.777 (MB)

	Nuclear Rep. energy          =    135.09212848841960
	SCF energy                   =   -208.15369755516500
	One-electron energy          =   -193.84348285424468
	Two-electron energy          =     91.11308641468825
	Reference energy             =   -208.15369755516474

*** tstop() called on ds1.sherrill.chemistry.gatech.edu at Mon Apr  4 10:22:29 2016
Module time:
	user time   =       0.77 seconds =       0.01 minutes
	system time =       0.48 seconds =       0.01 minutes
	total time  =          1 seconds =       0.02 minutes
Total time:
	user time   =       2.06 seconds =       0.03 minutes
	system time =       0.56 seconds =       0.01 minutes
	total time  =          3 seconds =       0.05 minutes

*** tstart() called on ds1.sherrill.chemistry.gatech.edu
*** at Mon Apr  4 10:22:29 2016

            **************************
            *                        *
            *        CCENERGY        *
            *                        *
            **************************

    Nuclear Rep. energy (wfn)     =  135.092128488419604
    SCF energy          (wfn)     = -208.153697555164996
    Reference energy    (file100) = -208.153697555164740

    Input parameters:
    -----------------
    Wave function   =   CCSD_T
    Reference wfn   =     RHF
    Brueckner       =     No
    Memory (Mbytes) =     250.0
    Maxiter         =     50
    R_Convergence   =     1.0e-10
    E_Convergence   =     1.0e-10
    Restart         =     Yes
    DIIS            =     Yes
    AO Basis        =     NONE
    ABCD            =     NEW
    Cache Level     =     2
    Cache Type      =     LOW
    Print Level     =     1
    Num. of threads =     1
    # Amps to Print =     10
    Print MP2 Amps? =     No
    Analyze T2 Amps =     No
    Print Pair Ener =     No
    Local CC        =     No
    SCS-MP2         =     False
    SCSN-MP2        =     False
    SCS-CCSD        =     False

MP2 correlation energy -0.7033782488743719
                Solving CC Amplitude Equations
                ------------------------------
  Iter             Energy              RMS        T1Diag      D1Diag    New D1Diag    D2Diag
  ----     ---------------------    ---------   ----------  ----------  ----------   --------
     0        -0.703378248874372    0.000e+00    0.000000    0.000000    0.000000    0.164737
     1        -0.704046235180348    9.110e-02    0.011623    0.039146    0.039146    0.159369
     2        -0.725379182470057    3.418e-02    0.011502    0.037926    0.037926    0.171892
     3        -0.731249936440606    1.464e-02    0.013768    0.047460    0.047460    0.177183
     4        -0.731241875084371    4.304e-03    0.014218    0.049385    0.049385    0.178668
     5        -0.731400656990808    2.090e-03    0.014546    0.051114    0.051114    0.179524
     6        -0.731409596712500    7.122e-04    0.014645    0.051663    0.051663    0.179592
     7        -0.731391932675981    3.585e-04    0.014688    0.051896    0.051896    0.179553
     8        -0.731388538731061    1.311e-04    0.014704    0.051984    0.051984    0.179520
     9        -0.731391055327373    4.962e-05    0.014708    0.052005    0.052005    0.179508
    10        -0.731387680619109    1.935e-05    0.014710    0.052012    0.052012    0.179501
    11        -0.731388378403740    5.875e-06    0.014709    0.052010    0.052010    0.179501
    12        -0.731388062966440    2.463e-06    0.014709    0.052010    0.052010    0.179501
    13        -0.731388073307658    8.135e-07    0.014709    0.052010    0.052010    0.179501
    14        -0.731388088080752    2.841e-07    0.014709    0.052010    0.052010    0.179501
    15        -0.731388086150871    1.219e-07    0.014709    0.052009    0.052009    0.179501
    16        -0.731388085716549    4.555e-08    0.014709    0.052009    0.052009    0.179501
    17        -0.731388085458088    2.165e-08    0.014709    0.052009    0.052009    0.179501
    18        -0.731388085218849    8.240e-09    0.014709    0.052009    0.052009    0.179501
    19        -0.731388085071824    3.371e-09    0.014709    0.052009    0.052009    0.179501
    20        -0.731388084993725    1.214e-09    0.014709    0.052009    0.052009    0.179501
    21        -0.731388084978479    3.197e-10    0.014709    0.052009    0.052009    0.179501
    22        -0.731388084963551    1.375e-10    0.014709    0.052009    0.052009    0.179501
    23        -0.731388084961850    4.246e-11    0.014709    0.052009    0.052009    0.179501

    Iterations converged.


    Largest TIA Amplitudes:
             11  58         0.0378366467
             12  57        -0.0310500934
             11  57         0.0188491227
             11  60         0.0147727432
              9  43         0.0118923711
              9  45         0.0113062603
              8  38         0.0109832583
              4   3         0.0108100632
             12  61        -0.0096911408
              9  42         0.0092808004

    Largest TIjAb Amplitudes:
     12  12  58  58        -0.0542254401
      9   9  38  38        -0.0531091179
     11  11  58  58        -0.0461024963
      8   8  38  38        -0.0323997295
      5   5  39  39        -0.0317585498
      9   9  37  38        -0.0313061384
      9   9  38  37        -0.0313061384
      9  12  38  58         0.0243891151
     12   9  58  38         0.0243891151
      5   5  38  39         0.0236892485

    SCF energy       (wfn)                    = -208.153697555164996
    Reference energy (file100)                = -208.153697555164740

    Opposite-spin MP2 correlation energy      =   -0.519297795644590
    Same-spin MP2 correlation energy          =   -0.184080453229782
    MP2 correlation energy                    =   -0.703378248874372
      * MP2 total energy                      = -208.857075804039113

    Opposite-spin CCSD correlation energy     =   -0.570648784145459
    Same-spin CCSD correlation energy         =   -0.160739300819057
    CCSD correlation energy                   =   -0.731388084961850
      * CCSD total energy                     = -208.885085640126590


*** tstop() called on ds1.sherrill.chemistry.gatech.edu at Mon Apr  4 10:22:33 2016
Module time:
	user time   =       2.11 seconds =       0.04 minutes
	system time =       1.30 seconds =       0.02 minutes
	total time  =          4 seconds =       0.07 minutes
Total time:
	user time   =       4.17 seconds =       0.07 minutes
	system time =       1.86 seconds =       0.03 minutes
	total time  =          7 seconds =       0.12 minutes

*** tstart() called on ds1.sherrill.chemistry.gatech.edu
*** at Mon Apr  4 10:22:33 2016

            **************************
            *                        *
            *        CCTRIPLES       *
            *                        *
            **************************


    Wave function   =    CCSD_T
    Reference wfn   =      RHF

    Nuclear Rep. energy (wfn)                =  135.092128488419604
    SCF energy          (wfn)                = -208.153697555164996
    Reference energy    (file100)            = -208.153697555164740
    CCSD energy         (file100)            =   -0.731388084961850
    Total CCSD energy   (file100)            = -208.885085640126590

    Number of ijk index combinations:              455
    Memory available in words        :        31250000
    ~Words needed per explicit thread:           70304
    Number of threads for explicit ijk threading:    1

    (T) energy                                =   -0.030675386529056
      * CCSD(T) total energy                  = -208.915761026655645


*** tstop() called on ds1.sherrill.chemistry.gatech.edu at Mon Apr  4 10:22:36 2016
Module time:
	user time   =      18.42 seconds =       0.31 minutes
	system time =       1.13 seconds =       0.02 minutes
	total time  =          3 seconds =       0.05 minutes
Total time:
	user time   =      22.59 seconds =       0.38 minutes
	system time =       2.99 seconds =       0.05 minutes
	total time  =         10 seconds =       0.17 minutes
	Nuclear repulsion energy..........................................PASSED
	SCF energy........................................................PASSED
	CCSD contribution.................................................PASSED
	(T) contribution..................................................PASSED
	Total energy......................................................PASSED

*** PSI4 exiting successfully. Buy a developer a beer!
