
    -----------------------------------------------------------------------
          Psi4: An Open-Source Ab Initio Electronic Structure Package
                               Psi4 1.1rc3.dev5 

                         Git: Rev {master} 3fbd859 


    R. M. Parrish, L. A. Burns, D. G. A. Smith, A. C. Simmonett,
    A. E. DePrince III, E. G. Hohenstein, U. Bozkaya, A. Yu. Sokolov,
    R. Di Remigio, R. M. Richard, J. F. Gonthier, A. M. James,
    H. R. McAlexander, A. Kumar, M. Saitow, X. Wang, B. P. Pritchard,
    P. Verma, H. F. Schaefer III, K. Patkowski, R. A. King, E. F. Valeev,
    F. A. Evangelista, J. M. Turney, T. D. Crawford, and C. D. Sherrill,
    J. Chem. Theory Comput. in press (2017).
    (doi: 10.1021/acs.jctc.7b00174)

    -----------------------------------------------------------------------


    Psi4 started on: Monday, 15 May 2017 03:34PM

    Process ID:  12645
    PSIDATADIR: /home/psilocaluser/gits/hrw-direct/objdir4/stage/usr/local/psi4/share/psi4
    Memory:     500.0 MiB
    Threads:    1
    
  ==> Input File <==

--------------------------------------------------------------------------
#! Single-point gradient, analytic and via finite-differences of 2-1A1 state of H2O with EOM-CCSD

molecule h2o {
  0 1
  H -0.107055195862289   0.000000000000000  -1.832806614599657
  O -0.107055195862289   0.000000000000000   0.094714436481352
  H  1.806098405595803   0.000000000000000   0.329620161376194
  units bohr
}

set {
  basis DZ
  roots_per_irrep [1, 0, 0, 0]
}

analytic_grad = gradient('eom-ccsd')
findif_grad = gradient('eom-ccsd', dertype=0)

compare_matrices(analytic_grad, findif_grad, 5, "RHF-EOM-CCSD finite-diff. (3-pt.) vs. analytic gradient to 10^-5") #TEST

# Use 5-pt. formula
set findif points 5
findif_grad = gradient('eom-ccsd', dertype=0)

compare_matrices(analytic_grad, findif_grad, 7, "RHF-EOM-CCSD finite-diff. (5-pt.) vs. analytic gradient to 10^-7") #TEST
--------------------------------------------------------------------------
gradient() will perform analytic gradient computation.

*** tstart() called on psinet
*** at Mon May 15 15:34:22 2017

   => Loading Basis Set <=

    Name: DZ
    Role: ORBITAL
    Keyword: BASIS
    atoms 1, 3 entry H          line    11 file /home/psilocaluser/gits/hrw-direct/objdir4/stage/usr/local/psi4/share/psi4/basis/dz.gbs 
    atoms 2    entry O          line   106 file /home/psilocaluser/gits/hrw-direct/objdir4/stage/usr/local/psi4/share/psi4/basis/dz.gbs 


         ---------------------------------------------------------
                                   SCF
            by Justin Turney, Rob Parrish, and Andy Simmonett
                              RHF Reference
                        1 Threads,    500 MiB Core
         ---------------------------------------------------------

  ==> Geometry <==

    Molecular point group: c2v
    Full point group: C2v

    Geometry (in Bohr), charge = 0, multiplicity = 1:

       Center              X                  Y                   Z               Mass       
    ------------   -----------------  -----------------  -----------------  -----------------
           H          0.000000000000    -1.443627918148     1.134274838578     1.007825032070
           O          0.000000000000     0.000000000000    -0.142939253226    15.994914619560
           H         -0.000000000000     1.443627918148     1.134274838578     1.007825032070

  Running in c2v symmetry.

  Rotational constants: A =     20.61565  B =     14.33074  C =      8.45402 [cm^-1]
  Rotational constants: A = 618041.72688  B = 429624.71072  C = 253445.16976 [MHz]
  Nuclear repulsion =    8.647166888151858

  Charge       = 0
  Multiplicity = 1
  Electrons    = 10
  Nalpha       = 5
  Nbeta        = 5

  ==> Algorithm <==

  SCF Algorithm Type is PK.
  DIIS enabled.
  MOM disabled.
  Fractional occupation disabled.
  Guess Type is SAD.
  Energy threshold   = 1.00e-10
  Density threshold  = 1.00e-10
  Integral threshold = 0.00e+00

  ==> Primary Basis <==

  Basis Set: DZ
    Blend: DZ
    Number of shells: 10
    Number of basis function: 14
    Number of Cartesian functions: 14
    Spherical Harmonics?: false
    Max angular momentum: 1

  ==> Pre-Iterations <==

   -------------------------------------------------------
    Irrep   Nso     Nmo     Nalpha   Nbeta   Ndocc  Nsocc
   -------------------------------------------------------
     A1         8       8       0       0       0       0
     A2         0       0       0       0       0       0
     B1         2       2       0       0       0       0
     B2         4       4       0       0       0       0
   -------------------------------------------------------
    Total      14      14       5       5       5       0
   -------------------------------------------------------

  ==> Integral Setup <==

  Using in-core PK algorithm.
   Calculation information:
      Number of atoms:                   3
      Number of AO shells:              10
      Number of primitives:             22
      Number of atomic orbitals:        14
      Number of basis functions:        14

      Integral cutoff                 1.00e-12
      Number of threads:                 1

  Performing in-core PK
  Using 11130 doubles for integral storage.
  We computed 1540 shell quartets total.
  Whereas there are 1540 unique shell quartets.
  ==> DiskJK: Disk-Based J/K Matrices <==

    J tasked:                  Yes
    K tasked:                  Yes
    wK tasked:                  No
    Memory (MB):               375
    Schwarz Cutoff:          1E-12

    OpenMP threads:              1
  Minimum eigenvalue in the overlap matrix is 6.0756533921E-02.
  Using Symmetric Orthogonalization.

  SCF Guess: Superposition of Atomic Densities via on-the-fly atomic UHF.

  ==> Iterations <==

                        Total Energy        Delta E     RMS |[F,P]|

   @RHF iter   0:   -75.82166704027043   -7.58217e+01   1.62433e-01 
   @RHF iter   1:   -75.97853683350145   -1.56870e-01   2.19638e-02 
   @RHF iter   2:   -75.99295124881307   -1.44144e-02   1.25336e-02 DIIS
   @RHF iter   3:   -75.99803976960368   -5.08852e-03   1.65649e-03 DIIS
   @RHF iter   4:   -75.99821851514429   -1.78746e-04   3.53513e-04 DIIS
   @RHF iter   5:   -75.99823650299587   -1.79879e-05   7.78669e-05 DIIS
   @RHF iter   6:   -75.99823736318382   -8.60188e-07   1.13500e-05 DIIS
   @RHF iter   7:   -75.99823737603958   -1.28558e-08   1.50460e-06 DIIS
   @RHF iter   8:   -75.99823737629512   -2.55540e-10   1.35290e-07 DIIS
   @RHF iter   9:   -75.99823737629595   -8.24230e-13   1.33449e-08 DIIS
   @RHF iter  10:   -75.99823737629600   -5.68434e-14   1.61354e-09 DIIS
   @RHF iter  11:   -75.99823737629600    0.00000e+00   2.22654e-10 DIIS
   @RHF iter  12:   -75.99823737629600    0.00000e+00   2.32050e-11 DIIS

  ==> Post-Iterations <==

    Orbital Energies (a.u.)
    -----------------------

    Doubly Occupied:                                                      

       1A1   -20.575249     2A1    -1.337913     1B2    -0.670935  
       3A1    -0.571230     1B1    -0.506342  

    Virtual:                                                              

       4A1     0.198874     2B2     0.286140     2B1     0.863657  
       5A1     0.905736     3B2     0.920725     4B2     1.159000  
       6A1     1.179815     7A1     1.683365     8A1    43.310472  

    Final Occupation by Irrep:
             A1    A2    B1    B2 
    DOCC [     3,    0,    1,    1 ]

  Energy converged.

  @RHF Final Energy:   -75.99823737629600

   => Energetics <=

    Nuclear Repulsion Energy =              8.6471668881518582
    One-Electron Energy =                -121.9674700717249323
    Two-Electron Energy =                  37.3220658072770703
    DFT Exchange-Correlation Energy =       0.0000000000000000
    Empirical Dispersion Energy =           0.0000000000000000
    PCM Polarization Energy =               0.0000000000000000
    EFP Energy =                            0.0000000000000000
    Total Energy =                        -75.9982373762960037



Properties will be evaluated at   0.000000,   0.000000,   0.000000 Bohr

Properties computed using the SCF density matrix

  Nuclear Dipole Moment: (a.u.)
     X:     0.0000      Y:     0.0000      Z:     1.1250

  Electronic Dipole Moment: (a.u.)
     X:     0.0000      Y:     0.0000      Z:    -0.0134

  Dipole Moment: (a.u.)
     X:     0.0000      Y:     0.0000      Z:     1.1116     Total:     1.1116

  Dipole Moment: (Debye)
     X:     0.0000      Y:     0.0000      Z:     2.8254     Total:     2.8254


*** tstop() called on psinet at Mon May 15 15:34:23 2017
Module time:
	user time   =       0.34 seconds =       0.01 minutes
	system time =       0.02 seconds =       0.00 minutes
	total time  =          1 seconds =       0.02 minutes
Total time:
	user time   =       0.34 seconds =       0.01 minutes
	system time =       0.02 seconds =       0.00 minutes
	total time  =          1 seconds =       0.02 minutes
 MINTS: Wrapper to libmints.
   by Justin Turney

   Calculation information:
      Number of threads:                 1
      Number of atoms:                   3
      Number of AO shells:              10
      Number of SO shells:               8
      Number of primitives:             22
      Number of atomic orbitals:        14
      Number of basis functions:        14

      Number of irreps:                  4
      Integral cutoff                 0.00e+00
      Number of functions per irrep: [   8    0    2    4 ]

 OEINTS: Overlap, kinetic, potential, dipole, and quadrupole integrals
         stored in file 35.

      Computing two-electron integrals...done
      Computed 1709 non-zero two-electron integrals.
        Stored in file 33.


*** tstart() called on psinet
*** at Mon May 15 15:34:23 2017


	Wfn Parameters:
	--------------------
	Wavefunction         = CCSD
	Number of irreps     = 4
	Number of MOs        = 14
	Number of active MOs = 14
	AO-Basis             = NONE
	Semicanonical        = false
	Reference            = RHF
	Print Level          = 1

	IRREP	# MOs	# FZDC	# DOCC	# SOCC	# VIRT	# FZVR
	-----	-----	------	------	------	------	------
	 A1	   8	    0	    3	    0	    5	    0
	 A2	   0	    0	    0	    0	    0	    0
	 B1	   2	    0	    1	    0	    1	    0
	 B2	   4	    0	    1	    0	    3	    0
	Transforming integrals...
	IWL integrals will be deleted.
	(OO|OO)...
	Presorting SO-basis two-electron integrals.
	Sorting File: SO Ints (nn|nn) nbuckets = 1
	Transforming the one-electron integrals and constructing Fock matrices
	Starting first half-transformation.
	Sorting half-transformed integrals.
	First half integral transformation complete.
	Starting second half-transformation.
	Two-electron integral transformation complete.
	(OO|OV)...
	Starting second half-transformation.
	Two-electron integral transformation complete.
	(OO|VV)...
	Starting second half-transformation.
	Two-electron integral transformation complete.
	(OV|OO)...
	Starting first half-transformation.
	Sorting half-transformed integrals.
	First half integral transformation complete.
	Starting second half-transformation.
	Two-electron integral transformation complete.
	(OV|OV)...
	Starting second half-transformation.
	Two-electron integral transformation complete.
	(OV|VV)...
	Starting second half-transformation.
	Two-electron integral transformation complete.
	(VV|OO)...
	Starting first half-transformation.
	Sorting half-transformed integrals.
	First half integral transformation complete.
	Starting second half-transformation.
	Two-electron integral transformation complete.
	(VV|OV)...
	Starting second half-transformation.
	Two-electron integral transformation complete.
	(VV|VV)...
	Starting second half-transformation.
	Two-electron integral transformation complete.
	Frozen core energy     =      0.00000000000000

	Size of irrep 0 of <ab|cd> integrals:      0.001 (MW) /      0.010 (MB)
	Size of irrep 1 of <ab|cd> integrals:      0.000 (MW) /      0.000 (MB)
	Size of irrep 2 of <ab|cd> integrals:      0.000 (MW) /      0.001 (MB)
	Size of irrep 3 of <ab|cd> integrals:      0.001 (MW) /      0.007 (MB)
	Total:                                     0.002 (MW) /      0.018 (MB)

	Size of irrep 0 of <ia|bc> integrals:      0.001 (MW) /      0.005 (MB)
	Size of irrep 1 of <ia|bc> integrals:      0.000 (MW) /      0.000 (MB)
	Size of irrep 2 of <ia|bc> integrals:      0.000 (MW) /      0.001 (MB)
	Size of irrep 3 of <ia|bc> integrals:      0.000 (MW) /      0.003 (MB)
	Total:                                     0.001 (MW) /      0.010 (MB)

	Size of irrep 0 of tijab amplitudes:       0.000 (MW) /      0.003 (MB)
	Size of irrep 1 of tijab amplitudes:       0.000 (MW) /      0.000 (MB)
	Size of irrep 2 of tijab amplitudes:       0.000 (MW) /      0.000 (MB)
	Size of irrep 3 of tijab amplitudes:       0.000 (MW) /      0.001 (MB)
	Total:                                     0.001 (MW) /      0.005 (MB)

	Nuclear Rep. energy          =      8.64716688815186
	SCF energy                   =    -75.99823737629600
	One-electron energy          =   -121.96747007192718
	Two-electron energy          =     37.32206580747933
	Reference energy             =    -75.99823737629599

*** tstop() called on psinet at Mon May 15 15:34:23 2017
Module time:
	user time   =       0.01 seconds =       0.00 minutes
	system time =       0.04 seconds =       0.00 minutes
	total time  =          0 seconds =       0.00 minutes
Total time:
	user time   =       0.38 seconds =       0.01 minutes
	system time =       0.06 seconds =       0.00 minutes
	total time  =          1 seconds =       0.02 minutes

*** tstart() called on psinet
*** at Mon May 15 15:34:23 2017

            **************************
            *                        *
            *        CCENERGY        *
            *                        *
            **************************

    Nuclear Rep. energy (wfn)     =    8.647166888151858
    SCF energy          (wfn)     =  -75.998237376296004
    Reference energy    (file100) =  -75.998237376295990

    Input parameters:
    -----------------
    Wave function   =     CCSD
    Reference wfn   =     RHF
    Brueckner       =     No
    Memory (Mbytes) =     524.3
    Maxiter         =     50
    R_Convergence   =     1.0e-07
    E_Convergence   =     1.0e-08
    Restart         =     Yes
    DIIS            =     Yes
    AO Basis        =     NONE
    ABCD            =     NEW
    Cache Level     =     2
    Cache Type      =     LOW
    Print Level     =     1
    Num. of threads =     1
    # Amps to Print =     10
    Print MP2 Amps? =     No
    Analyze T2 Amps =     No
    Print Pair Ener =     No
    Local CC        =     No
    SCS-MP2         =     False
    SCSN-MP2        =     False
    SCS-CCSD        =     False

MP2 correlation energy -0.1450408220385427
                Solving CC Amplitude Equations
                ------------------------------
  Iter             Energy              RMS        T1Diag      D1Diag    New D1Diag    D2Diag
  ----     ---------------------    ---------   ----------  ----------  ----------   --------
     0        -0.145040822038543    0.000e+00    0.000000    0.000000    0.000000    0.109609
     1        -0.146520464946370    3.332e-02    0.006269    0.012458    0.012458    0.119531
     2        -0.150956156899876    1.282e-02    0.007074    0.013723    0.013723    0.127818
     3        -0.151851171529094    3.894e-03    0.007755    0.014590    0.014590    0.130651
     4        -0.151900625064931    8.321e-04    0.007763    0.014442    0.014442    0.131013
     5        -0.151921497602616    2.190e-04    0.007783    0.014420    0.014420    0.131079
     6        -0.151918722157452    6.144e-05    0.007791    0.014423    0.014423    0.131065
     7        -0.151917819819017    1.491e-05    0.007794    0.014422    0.014422    0.131061
     8        -0.151917913319645    3.893e-06    0.007794    0.014422    0.014422    0.131061
     9        -0.151917790657532    1.013e-06    0.007794    0.014422    0.014422    0.131061
    10        -0.151917814021535    1.708e-07    0.007794    0.014422    0.014422    0.131061
    11        -0.151917809744716    4.031e-08    0.007794    0.014422    0.014422    0.131061
    12        -0.151917809814129    6.168e-09    0.007794    0.014422    0.014422    0.131061

    Iterations converged.


    Largest TIA Amplitudes:
              3   5        -0.0144215114
              2   0         0.0120585090
              4   6         0.0091639291
              4   7         0.0080250398
              1   1         0.0061025943
              2   3         0.0056314233
              4   8        -0.0046792340
              1   0         0.0027618279
              2   1        -0.0019499648
              1   3         0.0017284735

    Largest TIjAb Amplitudes:
      3   3   5   5        -0.0570727303
      4   4   6   6        -0.0553178085
      2   2   1   1        -0.0464759332
      4   4   6   8        -0.0356413355
      4   4   8   6        -0.0356413355
      2   3   1   5        -0.0351713152
      3   2   5   1        -0.0351713152
      4   4   8   8        -0.0339938917
      2   4   0   6        -0.0300239133
      4   2   6   0        -0.0300239133

    SCF energy       (wfn)                    =  -75.998237376296004
    Reference energy (file100)                =  -75.998237376295990

    Opposite-spin MP2 correlation energy      =   -0.113743071158382
    Same-spin MP2 correlation energy          =   -0.031297750880161
    MP2 correlation energy                    =   -0.145040822038543
      * MP2 total energy                      =  -76.143278198334528

    Opposite-spin CCSD correlation energy     =   -0.127799705521913
    Same-spin CCSD correlation energy         =   -0.024118104292554
    CCSD correlation energy                   =   -0.151917809814129
      * CCSD total energy                     =  -76.150155186110112


*** tstop() called on psinet at Mon May 15 15:34:23 2017
Module time:
	user time   =       0.12 seconds =       0.00 minutes
	system time =       0.23 seconds =       0.00 minutes
	total time  =          0 seconds =       0.00 minutes
Total time:
	user time   =       0.50 seconds =       0.01 minutes
	system time =       0.29 seconds =       0.00 minutes
	total time  =          1 seconds =       0.02 minutes

*** tstart() called on psinet
*** at Mon May 15 15:34:23 2017


			**************************
			*                        *
			*         CCHBAR         *
			*                        *
			**************************


*** tstop() called on psinet at Mon May 15 15:34:23 2017
Module time:
	user time   =       0.00 seconds =       0.00 minutes
	system time =       0.02 seconds =       0.00 minutes
	total time  =          0 seconds =       0.00 minutes
Total time:
	user time   =       0.50 seconds =       0.01 minutes
	system time =       0.31 seconds =       0.01 minutes
	total time  =          1 seconds =       0.02 minutes

*** tstart() called on psinet
*** at Mon May 15 15:34:23 2017


	**********************************************************
	*  CCEOM: An Equation of Motion Coupled Cluster Program  *
	**********************************************************

	Nuclear Rep. energy (wfn)     =    8.647166888151858
	SCF energy          (wfn)     =  -75.998237376296004
	Reference energy    (file100) =  -75.998237376295990
	CCSD energy         (file100) =   -0.151917809814129

	Input parameters:
	-----------------
	Reference wfn   =     RHF
	Reference EOM wfn=     RHF
	Memory (Mbytes) =  524.3
	ABCD            =     NEW
	Cache Level     =    2
	Cache Type      =     LRU
	Num. of threads =     1
	Local CC        =     No


	CCEOM parameters:
	-----------------
	States sought per irrep     = A1 1, A2 0, B1 0, B2 0,
	Max. number of iterations   =    80
	Vectors stored per root     =    12
	Print HbarSS iterations?    =     0
	Excitation range for HBarSS =     2
	Eigenvalue tolerance        = 1.0e-08
	Eigenvalue toleranceSS      = 1.0e-06
	Residual vector tolerance   = 1.0e-06
	Residual vector toleranceSS = 1.0e-06
	Complex tolerance           = 1.0e-12
	Root for properties         =     1
	Sym of state for properties =     A1
	Guess vectors taken from    = SINGLES
	Restart EOM CC3             = NO
	Collapse with last vector   = YES


Symmetry of ground state: A1
Symmetry of excited state: A1
Symmetry of right eigenvector: A1
Seeking states with multiplicity of 1
Obtaining initial guess from singles-singles block of Hbar...Done.

Iter=1    L=1     Root    EOM Energy     Delta E   Res. Norm    Conv?
                     1   0.4930998102   4.93e-01    3.94e-01      N
Iter=2    L=2     Root    EOM Energy     Delta E   Res. Norm    Conv?
                     1   0.4080910250  -8.50e-02    8.41e-02      N
Iter=3    L=3     Root    EOM Energy     Delta E   Res. Norm    Conv?
                     1   0.4043436086  -3.75e-03    3.16e-02      N
Iter=4    L=4     Root    EOM Energy     Delta E   Res. Norm    Conv?
                     1   0.4040780348  -2.66e-04    8.84e-03      N
Iter=5    L=5     Root    EOM Energy     Delta E   Res. Norm    Conv?
                     1   0.4040363649  -4.17e-05    2.53e-03      N
Iter=6    L=6     Root    EOM Energy     Delta E   Res. Norm    Conv?
                     1   0.4040452436   8.88e-06    1.10e-03      N
Iter=7    L=7     Root    EOM Energy     Delta E   Res. Norm    Conv?
                     1   0.4040438865  -1.36e-06    3.18e-04      N
Iter=8    L=8     Root    EOM Energy     Delta E   Res. Norm    Conv?
                     1   0.4040430226  -8.64e-07    9.05e-05      N
Iter=9    L=9     Root    EOM Energy     Delta E   Res. Norm    Conv?
                     1   0.4040428040  -2.19e-07    3.17e-05      N
Iter=10   L=10    Root    EOM Energy     Delta E   Res. Norm    Conv?
                     1   0.4040428275   2.35e-08    8.67e-06      N
Iter=11   L=11    Root    EOM Energy     Delta E   Res. Norm    Conv?
                     1   0.4040428079  -1.97e-08    2.80e-06      N
Iter=12   L=12    Root    EOM Energy     Delta E   Res. Norm    Conv?
                     1   0.4040428159   8.00e-09    1.03e-06      N
Iter=13   L=2     Root    EOM Energy     Delta E   Res. Norm    Conv?
                     1   0.4040428159   8.74e-14    1.03e-06      N
Iter=14   L=3     Root    EOM Energy     Delta E   Res. Norm    Conv?
                     1   0.4040428169   1.01e-09    2.12e-07      Y
Collapsing to only 1 vector(s).

Procedure converged for 1 root(s).
Energy written to CC_INFO:Etot  -75.7461123692
States per irrep written to CC_INFO.
EOM CCSD R0 for root 0 =   0.01704703676

Final Energetic Summary for Converged Roots of Irrep A1
                     Excitation Energy              Total Energy
                (eV)     (cm^-1)     (au)             (au)
EOM State 1     10.995    88677.1   0.4040428169   -75.746112369246

Largest components of excited wave function #1:
 RIA (libdpd indices) : (cscf notation)
         2 >   0      :       3a1 >    4a1 :   -0.6767988429
         0 >   0      :       1b2 >    2b2 :    0.0913345947
         0 >   0      :       1b1 >    2b1 :   -0.0399881710
         1 >   0      :       2a1 >    4a1 :    0.0377016906
         2 >   2      :       3a1 >    6a1 :   -0.0349743671
 RIjAb (libdpd indices)     : (cscf notation)
        2   2 >   0   0     :    3a1    3a1 >    4a1    4a1 :    0.1085387988
        2   0 >   0   0     :    3a1    1b2 >    4a1    2b2 :    0.0665796230
        0   2 >   0   0     :    1b2    3a1 >    2b2    4a1 :    0.0665796230
        2   2 >   0   0     :    3a1    3a1 >    2b2    2b2 :    0.0566952225
        2   2 >   0   1     :    3a1    3a1 >    4a1    5a1 :   -0.0549889791

	Putting into environment energy for root of R irrep 1 and root 1.
	Putting into environment CURRENT ENERGY:              -75.7461123692

	Total # of sigma evaluations: 13

*** tstop() called on psinet at Mon May 15 15:34:24 2017
Module time:
	user time   =       0.04 seconds =       0.00 minutes
	system time =       0.04 seconds =       0.00 minutes
	total time  =          1 seconds =       0.02 minutes
Total time:
	user time   =       0.55 seconds =       0.01 minutes
	system time =       0.35 seconds =       0.01 minutes
	total time  =          2 seconds =       0.03 minutes

*** tstart() called on psinet
*** at Mon May 15 15:34:24 2017


			**************************
			*        CCLAMBDA        *
			**************************


	Nuclear Rep. energy (wfn)     =    8.647166888151858
	Reference           (wfn)     =                    0
	SCF energy          (wfn)     =  -75.998237376296004
	Reference energy    (CC_INFO) =  -75.998237376295990
	CCSD energy         (CC_INFO) =   -0.151917809814129
	Total CCSD energy   (CC_INFO) =  -76.150155186110112

	Input parameters:
	-----------------
	Maxiter           =     50
	Convergence       = 1.0e-07
	Restart           =     No
	Cache Level       =     2
	Model III         =     No
	DIIS              =     Yes
	AO Basis          =     No
	ABCD              =     NEW
	Local CC          =     No
	Paramaters for left-handed eigenvectors:
	    Irr   Root  Ground-State?    EOM energy        R0
	  1   0     1         No       0.4040428169   0.0170470368
	Labels for eigenvector 1:
	LIA 0 0, Lia 0 0, LIJAB 0 0, Lijab 0 0, LIjAb 0 0, 2LIjAb - LIjbA 0 0
	Deleting old CC_LAMBDA data.
	Symmetry of left-hand state: A1
	Symmetry of left-hand eigenvector: A1
	Initial overlap of initial guess <L|R> =    0.9993310833
	Checking overlap of initial guess <L|R> =    1.0000000000

	          Solving Lambda Equations
	          ------------------------
	Iter     PseudoEnergy or Norm         RMS  
	----     ---------------------     --------
	   0         0.005560994001339    0.000e+00
	   1         0.007897677712332    3.424e-02
	   2         0.007727042543315    7.759e-03
	   3         0.007870517281862    2.603e-03
	   4         0.007863160651867    7.955e-04
	   5         0.007859632895716    2.183e-04
	   6         0.007851985155333    7.715e-05
	   7         0.007850703804077    2.314e-05
	   8         0.007850206228818    7.411e-06
	   9         0.007850152058907    1.888e-06
	  10         0.007850124151204    5.587e-07
	  11         0.007850115014019    2.331e-07
	  12         0.007850114052364    6.288e-08

	Initial  <L|R>  =        0.9858192374
	Normalizing L...
	L0 * R0 =        0.0000000000
	L1 * R1 =        0.9391357482
	L2 * R2 =        0.0608642518
	 <L|R>  =        1.0000000000
	Pseudoenergy or Norm of normalized L =    0.007963035974946

	Largest LIA Amplitudes:
	          2   0        -0.6735918613
	          4   6         0.0919881723
	          3   5        -0.0373785081
	          1   0         0.0354444972
	          2   2        -0.0326422604
	          4   8         0.0265972442
	          2   3         0.0192351361
	          1   2         0.0103561822
	          1   3        -0.0063070253
	          1   1         0.0044117830

	Largest LIjAb Amplitudes:
	  2   2   0   0         0.1111729820
	  2   4   0   6         0.0754258145
	  4   2   6   0         0.0754258145
	  2   2   0   1        -0.0595658013
	  2   2   1   0        -0.0595658013
	  2   2   6   6         0.0544053882
	  2   3   0   5        -0.0419852165
	  3   2   5   0        -0.0419852165
	  2   4   0   8         0.0361400851
	  4   2   8   0         0.0361400851

	Iterations converged.


*** tstop() called on psinet at Mon May 15 15:34:24 2017
Module time:
	user time   =       0.02 seconds =       0.00 minutes
	system time =       0.04 seconds =       0.00 minutes
	total time  =          0 seconds =       0.00 minutes
Total time:
	user time   =       0.57 seconds =       0.01 minutes
	system time =       0.39 seconds =       0.01 minutes
	total time  =          2 seconds =       0.03 minutes

*** tstart() called on psinet
*** at Mon May 15 15:34:24 2017


			**************************
			*                        *
			*        CCDENSITY       *
			*                        *
			**************************


	Input parameters:
	-----------------
	Wave function    = EOM_CCSD
	Reference wfn    =   RHF
	Dertype          = 1
	Tolerance        = 1.0e-14
	Cache Level      = 2
	AO Basis         = No
	OPDM Only        = No
	Relax OPDM       = Yes
	Compute Xi       = Yes
	Use Zeta         = No
	Xi connected     = Yes
	Compute NO       = No

	Nuclear Rep. energy (wfn)     =    8.647166888151858
	SCF energy          (wfn)     =  -75.998237376296004
	Reference energy    (file100) =  -75.998237376295990
	CCSD energy         (CC_INFO) =   -0.151917809814129
	Total CCSD energy   (CC_INFO) =  -76.150155186110112
	Number of States = 1

	Ground?  State     EOM Energy       R0
	   No     1 A1    0.4040428169   0.01704704
XI_IA amplitudes: Norm=   0.2214531186, Dot=   0.0490414837
XI amplitudes   : Norm=   1.2743863058, Dot=   1.6240604563

*** tstop() called on psinet at Mon May 15 15:34:24 2017
Module time:
	user time   =       0.02 seconds =       0.00 minutes
	system time =       0.02 seconds =       0.00 minutes
	total time  =          0 seconds =       0.00 minutes
Total time:
	user time   =       0.59 seconds =       0.01 minutes
	system time =       0.41 seconds =       0.01 minutes
	total time  =          2 seconds =       0.03 minutes

*** tstart() called on psinet
*** at Mon May 15 15:34:24 2017


			**************************
			*        CCLAMBDA        *
			**************************


	Nuclear Rep. energy (wfn)     =    8.647166888151858
	Reference           (wfn)     =                    0
	SCF energy          (wfn)     =  -75.998237376296004
	Reference energy    (CC_INFO) =  -75.998237376295990
	CCSD energy         (CC_INFO) =   -0.151917809814129
	Total CCSD energy   (CC_INFO) =  -76.150155186110112
	Irrep of Zeta       (CC_INFO) = 0

	Input parameters:
	-----------------
	Maxiter           =     50
	Convergence       = 1.0e-07
	Restart           =     No
	Cache Level       =     2
	Model III         =     No
	DIIS              =     Yes
	AO Basis          =     No
	ABCD              =     NEW
	Local CC          =     No
	Paramaters for left-handed eigenvectors:
	    Irr   Root  Ground-State?    EOM energy        R0
	  1   0     1         No       0.0000000000   0.0000000000
	Labels for eigenvector 1:
	ZIA, Zia, ZIJAB, Zijab, ZIjAb, 2ZIjAb - ZIjbA
	Deleting old CC_LAMBDA data.
	Symmetry of left-hand state: A1
	Symmetry of left-hand eigenvector: A1

	          Solving Lambda Equations
	          ------------------------
	Iter     PseudoEnergy or Norm         RMS  
	----     ---------------------     --------
	   0         0.159259725891560    6.288e-08
	   1         0.209424241246420    3.277e-02
	   2         0.224660649738887    1.736e-02
	   3         0.231079689889663    6.372e-03
	   4         0.232534885654773    1.770e-03
	   5         0.232640361538934    3.336e-04
	   6         0.232643766665045    7.482e-05
	   7         0.232644995089082    1.565e-05
	   8         0.232645118673472    2.896e-06
	   9         0.232645142765978    5.008e-07
	  10         0.232645144175076    1.527e-07
	  11         0.232645142618725    2.517e-08

	Largest LIA Amplitudes:
	          2   0        -0.0920330383
	          4   6        -0.0631332833
	          2   1         0.0437026852
	          4   8        -0.0348995236
	          3   5         0.0270728848
	          1   2        -0.0111939532
	          1   3         0.0111772133
	          2   2        -0.0100877739
	          2   3        -0.0100822083
	          1   0        -0.0095633622

	Largest LIjAb Amplitudes:
	  3   3   5   5        -0.0532297449
	  4   4   6   6        -0.0380526100
	  4   4   8   8        -0.0307940015
	  4   4   6   8        -0.0285385267
	  4   4   8   6        -0.0285385267
	  3   4   5   8         0.0212718505
	  4   3   8   5         0.0212718505
	  3   4   5   6         0.0210558775
	  4   3   6   5         0.0210558775
	  1   3   3   5        -0.0188799036

	Iterations converged.

Norm of Zeta:    0.232645142618725

*** tstop() called on psinet at Mon May 15 15:34:24 2017
Module time:
	user time   =       0.02 seconds =       0.00 minutes
	system time =       0.03 seconds =       0.00 minutes
	total time  =          0 seconds =       0.00 minutes
Total time:
	user time   =       0.61 seconds =       0.01 minutes
	system time =       0.44 seconds =       0.01 minutes
	total time  =          2 seconds =       0.03 minutes

*** tstart() called on psinet
*** at Mon May 15 15:34:24 2017


			**************************
			*                        *
			*        CCDENSITY       *
			*                        *
			**************************


	Input parameters:
	-----------------
	Wave function    = EOM_CCSD
	Reference wfn    =  ROHF
	Dertype          = 1
	Tolerance        = 1.0e-14
	Cache Level      = 2
	AO Basis         = No
	OPDM Only        = No
	Relax OPDM       = Yes
	Compute Xi       = No
	Use Zeta         = Yes
	Xi connected     = Yes
	Compute NO       = No

	Nuclear Rep. energy (wfn)     =    8.647166888151858
	SCF energy          (wfn)     =  -75.998237376296004
	Reference energy    (file100) =  -75.998237376295990
	CCSD energy         (CC_INFO) =   -0.151917809814129
	Total CCSD energy   (CC_INFO) =  -76.150155186110112
	Number of States = 1

	Ground?  State     EOM Energy       R0
	   No     1 A1    0.4040428169   0.01704704

	Energies re-computed from CC density:
	-------------------------------------
	One-electron energy        =    0.953764872652020
	IJKL energy                =    0.055629056946050
	IJKA energy                =   -0.137915047430602
	IJAB energy                =   -0.185298333444750
	IBJA energy                =   -0.452958696200684
	CIAB energy                =   -0.023039077004714
	ABCD energy                =    0.041942230929059
	Total two-electron energy  =   -0.701639866205641
	Total EOM CCSD correlation energy        =    0.252125006446380
	CCSD correlation + EOM excitation energy =    0.252125007049957
	Total EOM CCSD energy                    =  -75.746112369849612

	Virial Theorem Data:
	--------------------
	Kinetic energy (ref)   =   75.854506586594511
	Kinetic energy (corr)  =    0.286949436315017
	Kinetic energy (total) =   76.141456022909523
	-V/T (ref)             =    2.001894822024020
	-V/T (corr)            =    1.529423621684174
	-V/T (total)           =    2.000114250024296

	Energies re-computed from Fock-adjusted CC density:
	---------------------------------------------------
	One-electron energy        =    1.575292065930584
	IJKL energy                =   -6.796913431210580
	IJKA energy                =    1.271804382296265
	IJAB energy                =   -0.185298333444750
	IBJA energy                =    4.368337168973483
	CIAB energy                =   -0.023039077004714
	ABCD energy                =    0.041942230929059
	Total two-electron energy  =   -1.323167059461237
	Total EOM CCSD correlation energy        =    0.252125006469346
	CCSD correlation + EOM excitation energy =    0.252125007049957
	Total EOM CCSD energy                    =  -75.746112369826648

	Energies re-computed from Mulliken density:
	-------------------------------------------
	One-electron energy        =    1.575292065930584
	IJKL energy                =   -6.796913431210580
	IJKA energy                =    1.271804382296265
	IJAB energy                =   -0.282000923694529
	IBJA energy                =    4.465039759223261
	CIAB energy                =   -0.023039077004714
	ABCD energy                =    0.041942230929059
	Total two-electron energy  =   -1.323167059461237
	Total EOM CCSD correlation energy        =    0.252125006469346
	CCSD correlation + EOM excitation energy =    0.252125007049957
	Total EOM CCSD energy                    =  -75.746112369826648


Properties will be evaluated at   0.000000,   0.000000,   0.000000 Bohr

Properties computed using the CC density matrix

  Nuclear Dipole Moment: (a.u.)
     X:     0.0000      Y:     0.0000      Z:     1.1250

  Electronic Dipole Moment: (a.u.)
     X:     0.0000      Y:     0.0000      Z:    -1.0328

  Dipole Moment: (a.u.)
     X:     0.0000      Y:     0.0000      Z:     0.0922     Total:     0.0922

  Dipole Moment: (Debye)
     X:     0.0000      Y:     0.0000      Z:     0.2344     Total:     0.2344

  Quadrupole Moment: (Debye Ang)
    XX:    -8.4079     YY:    -8.4366     ZZ:    -7.6529
    XY:    -0.0000     XZ:     0.0000     YZ:     0.0000

  Traceless Quadrupole Moment: (Debye Ang)
    XX:    -0.2421     YY:    -0.2708     ZZ:     0.5129
    XY:    -0.0000     XZ:     0.0000     YZ:     0.0000

  Mulliken Charges: (a.u.)
   Center  Symbol    Alpha    Beta     Spin     Total
       1     H     0.47678  0.47678  0.00000  0.04643
       2     O     4.04643  4.04643  0.00000 -0.09286
       3     H     0.47678  0.47678  0.00000  0.04643

   Total alpha =  5.00000, Total beta =  5.00000, Total charge = -0.00000

  Natural Orbital Occupations:

  Total Occupations:
  HONO-2 :    1 B1    1.977
  HONO-1 :    1 B2    1.942
  HONO-0 :    3 A1    1.170
  LUNO+0 :    4 A1    0.820
  LUNO+1 :    2 B2    0.057
  LUNO+2 :    2 B1    0.022
  LUNO+3 :    5 A1    0.012


*** tstop() called on psinet at Mon May 15 15:34:24 2017
Module time:
	user time   =       0.06 seconds =       0.00 minutes
	system time =       0.07 seconds =       0.00 minutes
	total time  =          0 seconds =       0.00 minutes
Total time:
	user time   =       0.67 seconds =       0.01 minutes
	system time =       0.51 seconds =       0.01 minutes
	total time  =          2 seconds =       0.03 minutes
  Cartesian Displacement SALCs
  By SALC:
  Number of SALCs: 3, nirreps: 1
  Project out translations: False
  Project out rotations: False
	irrep = 0, ncomponent = 2
		0: atom 0, direction y, coef 0.707107
		1: atom 2, direction y, coef -0.707107
	irrep = 0, ncomponent = 2
		0: atom 0, direction z, coef 0.707107
		1: atom 2, direction z, coef 0.707107
	irrep = 0, ncomponent = 1
		0: atom 1, direction z, coef 1.000000

  By Atomic Center:
  Number of atomic centers: 3
   Atomic Center 0:
	x component, size = 0
	y component, size = 1
		0: salc 0, irrep 0, coef 0.707107
	z component, size = 1
		0: salc 1, irrep 0, coef 0.707107
   Atomic Center 1:
	x component, size = 0
	y component, size = 0
	z component, size = 1
		0: salc 2, irrep 0, coef 1.000000
   Atomic Center 2:
	x component, size = 0
	y component, size = 1
		0: salc 0, irrep 0, coef -0.707107
	z component, size = 1
		0: salc 1, irrep 0, coef 0.707107

    Molecular point group: c2v
    Full point group: C2v

    Geometry (in Bohr), charge = 0, multiplicity = 1:

       Center              X                  Y                   Z       
    ------------   -----------------  -----------------  -----------------
           H          0.000000000000    -1.443627918148     1.134274838578
           O          0.000000000000     0.000000000000    -0.142939253226
           H         -0.000000000000     1.443627918148     1.134274838578

	Presorting MO-basis TPDM.
	Sorting File: MO TPDM (AA|AA) nbuckets = 1
	Starting first half-transformation.
	Sorting half-transformed TPDM.
	First half integral transformation complete.


  -Nuclear Repulsion Energy 1st Derivatives:
     Atom            X                  Y                   Z
    ------   -----------------  -----------------  -----------------
       1       -0.000000000000     1.732636842258    -1.426777654799
       2        0.000000000000     0.000000000000     2.853555309597
       3        0.000000000000    -1.732636842258    -1.426777654799


  -One-electron contribution to gradient:
     Atom            X                  Y                   Z
    ------   -----------------  -----------------  -----------------
       1        0.000000000000    -2.365213547362     2.994321527602
       2        0.000000000000     0.000000000000    -5.988643055204
       3       -0.000000000000     2.365213547362     2.994321527602


  -Lagrangian contribution to gradient:
     Atom            X                  Y                   Z
    ------   -----------------  -----------------  -----------------
       1       -0.000000000000     0.139029535562    -0.217315393936
       2        0.000000000000     0.000000000000     0.434630787873
       3        0.000000000000    -0.139029535562    -0.217315393936


  -Two-electron contribution to gradient:
     Atom            X                  Y                   Z
    ------   -----------------  -----------------  -----------------
       1       -0.000000000000     0.589252470389    -1.342040766632
       2        0.000000000000     0.000000000000     2.684081533263
       3        0.000000000000    -0.589252470389    -1.342040766632


  -Total gradient:
     Atom            X                  Y                   Z
    ------   -----------------  -----------------  -----------------
       1       -0.000000000000     0.095705300846     0.008187712235
       2        0.000000000000     0.000000000000    -0.016375424470
       3        0.000000000000    -0.095705300846     0.008187712235

gradient() will perform gradient computation by finite difference of analytic energies.

-------------------------------------------------------------

  Using finite-differences of energies to determine gradients (fd_geoms_1_0).
	Generating geometries for use with 3-point formula.
	Displacement size will be 5.00e-03.
	Number of atoms is 3.
	Number of symmetric SALC's is 2.
	Number of displacements (including reference) is 5.

-------------------------------------------------------------

  //>>>>>>>>>>>>>>>>>>>>>>>>>>>>>>>>>>>//
  //    Loading displacement 1 of 5    //
  //<<<<<<<<<<<<<<<<<<<<<<<<<<<<<<<<<<<//

*** tstart() called on psinet
*** at Mon May 15 15:34:24 2017

   => Loading Basis Set <=

    Name: DZ
    Role: ORBITAL
    Keyword: BASIS
    atoms 1, 3 entry H          line    11 file /home/psilocaluser/gits/hrw-direct/objdir4/stage/usr/local/psi4/share/psi4/basis/dz.gbs 
    atoms 2    entry O          line   106 file /home/psilocaluser/gits/hrw-direct/objdir4/stage/usr/local/psi4/share/psi4/basis/dz.gbs 


         ---------------------------------------------------------
                                   SCF
            by Justin Turney, Rob Parrish, and Andy Simmonett
                              RHF Reference
                        1 Threads,    500 MiB Core
         ---------------------------------------------------------

  ==> Geometry <==

    Molecular point group: c2v
    Full point group: C2v

    Geometry (in Bohr), charge = 0, multiplicity = 1:

       Center              X                  Y                   Z               Mass       
    ------------   -----------------  -----------------  -----------------  -----------------
           H          0.000000000000    -1.447149699877     1.134274838578     1.007825032070
           O          0.000000000000     0.000000000000    -0.142939253226    15.994914619560
           H         -0.000000000000     1.447149699877     1.134274838578     1.007825032070

  Running in c2v symmetry.

  Rotational constants: A =     20.61565  B =     14.26107  C =      8.42973 [cm^-1]
  Rotational constants: A = 618041.72688  B = 427536.18680  C = 252716.89439 [MHz]
  Nuclear repulsion =    8.634974470989285

  Charge       = 0
  Multiplicity = 1
  Electrons    = 10
  Nalpha       = 5
  Nbeta        = 5

  ==> Algorithm <==

  SCF Algorithm Type is PK.
  DIIS enabled.
  MOM disabled.
  Fractional occupation disabled.
  Guess Type is SAD.
  Energy threshold   = 1.00e-10
  Density threshold  = 1.00e-10
  Integral threshold = 0.00e+00

  ==> Primary Basis <==

  Basis Set: DZ
    Blend: DZ
    Number of shells: 10
    Number of basis function: 14
    Number of Cartesian functions: 14
    Spherical Harmonics?: false
    Max angular momentum: 1

  ==> Pre-Iterations <==

   -------------------------------------------------------
    Irrep   Nso     Nmo     Nalpha   Nbeta   Ndocc  Nsocc
   -------------------------------------------------------
     A1         8       8       0       0       0       0
     A2         0       0       0       0       0       0
     B1         2       2       0       0       0       0
     B2         4       4       0       0       0       0
   -------------------------------------------------------
    Total      14      14       5       5       5       0
   -------------------------------------------------------

  ==> Integral Setup <==

  Using in-core PK algorithm.
   Calculation information:
      Number of atoms:                   3
      Number of AO shells:              10
      Number of primitives:             22
      Number of atomic orbitals:        14
      Number of basis functions:        14

      Integral cutoff                 1.00e-12
      Number of threads:                 1

  Performing in-core PK
  Using 11130 doubles for integral storage.
  We computed 1540 shell quartets total.
  Whereas there are 1540 unique shell quartets.
  ==> DiskJK: Disk-Based J/K Matrices <==

    J tasked:                  Yes
    K tasked:                  Yes
    wK tasked:                  No
    Memory (MB):               375
    Schwarz Cutoff:          1E-12

    OpenMP threads:              1
  Minimum eigenvalue in the overlap matrix is 6.0948076218E-02.
  Using Symmetric Orthogonalization.

  SCF Guess: Superposition of Atomic Densities via on-the-fly atomic UHF.

  ==> Iterations <==

                        Total Energy        Delta E     RMS |[F,P]|

   @RHF iter   0:   -75.81902265714899   -7.58190e+01   1.61916e-01 
   @RHF iter   1:   -75.97842932802345   -1.59407e-01   2.19262e-02 
   @RHF iter   2:   -75.99277705929596   -1.43477e-02   1.25331e-02 DIIS
   @RHF iter   3:   -75.99786661175855   -5.08955e-03   1.65254e-03 DIIS
   @RHF iter   4:   -75.99804462422478   -1.78012e-04   3.52928e-04 DIIS
   @RHF iter   5:   -75.99806257923709   -1.79550e-05   7.79931e-05 DIIS
   @RHF iter   6:   -75.99806344435841   -8.65121e-07   1.13791e-05 DIIS
   @RHF iter   7:   -75.99806345730909   -1.29507e-08   1.50794e-06 DIIS
   @RHF iter   8:   -75.99806345756575   -2.56662e-10   1.35779e-07 DIIS
   @RHF iter   9:   -75.99806345756664   -8.95284e-13   1.34208e-08 DIIS
   @RHF iter  10:   -75.99806345756659    5.68434e-14   1.65084e-09 DIIS
   @RHF iter  11:   -75.99806345756667   -8.52651e-14   2.26944e-10 DIIS
   @RHF iter  12:   -75.99806345756670   -2.84217e-14   2.33469e-11 DIIS

  ==> Post-Iterations <==

    Orbital Energies (a.u.)
    -----------------------

    Doubly Occupied:                                                      

       1A1   -20.575411     2A1    -1.337119     1B2    -0.670501  
       3A1    -0.570750     1B1    -0.506224  

    Virtual:                                                              

       4A1     0.198515     2B2     0.285662     2B1     0.863696  
       5A1     0.905849     3B2     0.921659     4B2     1.158005  
       6A1     1.177857     7A1     1.682559     8A1    43.309996  

    Final Occupation by Irrep:
             A1    A2    B1    B2 
    DOCC [     3,    0,    1,    1 ]

  Energy converged.

  @RHF Final Energy:   -75.99806345756670

   => Energetics <=

    Nuclear Repulsion Energy =              8.6349744709892846
    One-Electron Energy =                -121.9460677580164116
    Two-Electron Energy =                  37.3130298294604188
    DFT Exchange-Correlation Energy =       0.0000000000000000
    Empirical Dispersion Energy =           0.0000000000000000
    PCM Polarization Energy =               0.0000000000000000
    EFP Energy =                            0.0000000000000000
    Total Energy =                        -75.9980634575667011



Properties will be evaluated at   0.000000,   0.000000,   0.000000 Bohr

Properties computed using the SCF density matrix

  Nuclear Dipole Moment: (a.u.)
     X:     0.0000      Y:     0.0000      Z:     1.1250

  Electronic Dipole Moment: (a.u.)
     X:     0.0000      Y:     0.0000      Z:    -0.0142

  Dipole Moment: (a.u.)
     X:     0.0000      Y:     0.0000      Z:     1.1109     Total:     1.1109

  Dipole Moment: (Debye)
     X:     0.0000      Y:     0.0000      Z:     2.8236     Total:     2.8236


*** tstop() called on psinet at Mon May 15 15:34:24 2017
Module time:
	user time   =       0.31 seconds =       0.01 minutes
	system time =       0.01 seconds =       0.00 minutes
	total time  =          0 seconds =       0.00 minutes
Total time:
	user time   =       1.02 seconds =       0.02 minutes
	system time =       0.53 seconds =       0.01 minutes
	total time  =          2 seconds =       0.03 minutes
 MINTS: Wrapper to libmints.
   by Justin Turney

   Calculation information:
      Number of threads:                 1
      Number of atoms:                   3
      Number of AO shells:              10
      Number of SO shells:               8
      Number of primitives:             22
      Number of atomic orbitals:        14
      Number of basis functions:        14

      Number of irreps:                  4
      Integral cutoff                 0.00e+00
      Number of functions per irrep: [   8    0    2    4 ]

 OEINTS: Overlap, kinetic, potential, dipole, and quadrupole integrals
         stored in file 35.

      Computing two-electron integrals...done
      Computed 1709 non-zero two-electron integrals.
        Stored in file 33.


*** tstart() called on psinet
*** at Mon May 15 15:34:24 2017


	Wfn Parameters:
	--------------------
	Wavefunction         = CCSD
	Number of irreps     = 4
	Number of MOs        = 14
	Number of active MOs = 14
	AO-Basis             = NONE
	Semicanonical        = false
	Reference            = RHF
	Print Level          = 1

	IRREP	# MOs	# FZDC	# DOCC	# SOCC	# VIRT	# FZVR
	-----	-----	------	------	------	------	------
	 A1	   8	    0	    3	    0	    5	    0
	 A2	   0	    0	    0	    0	    0	    0
	 B1	   2	    0	    1	    0	    1	    0
	 B2	   4	    0	    1	    0	    3	    0
	Transforming integrals...
	IWL integrals will be deleted.
	(OO|OO)...
	Presorting SO-basis two-electron integrals.
	Sorting File: SO Ints (nn|nn) nbuckets = 1
	Transforming the one-electron integrals and constructing Fock matrices
	Starting first half-transformation.
	Sorting half-transformed integrals.
	First half integral transformation complete.
	Starting second half-transformation.
	Two-electron integral transformation complete.
	(OO|OV)...
	Starting second half-transformation.
	Two-electron integral transformation complete.
	(OO|VV)...
	Starting second half-transformation.
	Two-electron integral transformation complete.
	(OV|OO)...
	Starting first half-transformation.
	Sorting half-transformed integrals.
	First half integral transformation complete.
	Starting second half-transformation.
	Two-electron integral transformation complete.
	(OV|OV)...
	Starting second half-transformation.
	Two-electron integral transformation complete.
	(OV|VV)...
	Starting second half-transformation.
	Two-electron integral transformation complete.
	(VV|OO)...
	Starting first half-transformation.
	Sorting half-transformed integrals.
	First half integral transformation complete.
	Starting second half-transformation.
	Two-electron integral transformation complete.
	(VV|OV)...
	Starting second half-transformation.
	Two-electron integral transformation complete.
	(VV|VV)...
	Starting second half-transformation.
	Two-electron integral transformation complete.
	Frozen core energy     =      0.00000000000000

	Size of irrep 0 of <ab|cd> integrals:      0.001 (MW) /      0.010 (MB)
	Size of irrep 1 of <ab|cd> integrals:      0.000 (MW) /      0.000 (MB)
	Size of irrep 2 of <ab|cd> integrals:      0.000 (MW) /      0.001 (MB)
	Size of irrep 3 of <ab|cd> integrals:      0.001 (MW) /      0.007 (MB)
	Total:                                     0.002 (MW) /      0.018 (MB)

	Size of irrep 0 of <ia|bc> integrals:      0.001 (MW) /      0.005 (MB)
	Size of irrep 1 of <ia|bc> integrals:      0.000 (MW) /      0.000 (MB)
	Size of irrep 2 of <ia|bc> integrals:      0.000 (MW) /      0.001 (MB)
	Size of irrep 3 of <ia|bc> integrals:      0.000 (MW) /      0.003 (MB)
	Total:                                     0.001 (MW) /      0.010 (MB)

	Size of irrep 0 of tijab amplitudes:       0.000 (MW) /      0.003 (MB)
	Size of irrep 1 of tijab amplitudes:       0.000 (MW) /      0.000 (MB)
	Size of irrep 2 of tijab amplitudes:       0.000 (MW) /      0.000 (MB)
	Size of irrep 3 of tijab amplitudes:       0.000 (MW) /      0.001 (MB)
	Total:                                     0.001 (MW) /      0.005 (MB)

	Nuclear Rep. energy          =      8.63497447098928
	SCF energy                   =    -75.99806345756670
	One-electron energy          =   -121.94606775821930
	Two-electron energy          =     37.31302982966329
	Reference energy             =    -75.99806345756673

*** tstop() called on psinet at Mon May 15 15:34:24 2017
Module time:
	user time   =       0.01 seconds =       0.00 minutes
	system time =       0.03 seconds =       0.00 minutes
	total time  =          0 seconds =       0.00 minutes
Total time:
	user time   =       1.05 seconds =       0.02 minutes
	system time =       0.56 seconds =       0.01 minutes
	total time  =          2 seconds =       0.03 minutes

*** tstart() called on psinet
*** at Mon May 15 15:34:24 2017

            **************************
            *                        *
            *        CCENERGY        *
            *                        *
            **************************

    Nuclear Rep. energy (wfn)     =    8.634974470989285
    SCF energy          (wfn)     =  -75.998063457566701
    Reference energy    (file100) =  -75.998063457566730

    Input parameters:
    -----------------
    Wave function   =     CCSD
    Reference wfn   =     RHF
    Brueckner       =     No
    Memory (Mbytes) =     524.3
    Maxiter         =     50
    R_Convergence   =     1.0e-07
    E_Convergence   =     1.0e-08
    Restart         =     Yes
    DIIS            =     Yes
    AO Basis        =     NONE
    ABCD            =     NEW
    Cache Level     =     2
    Cache Type      =     LOW
    Print Level     =     1
    Num. of threads =     1
    # Amps to Print =     10
    Print MP2 Amps? =     No
    Analyze T2 Amps =     No
    Print Pair Ener =     No
    Local CC        =     No
    SCS-MP2         =     False
    SCSN-MP2        =     False
    SCS-CCSD        =     False

    Using old T1 amplitudes.
    Using old T2 amplitudes.

MP2 correlation energy -0.1451752146190336
                Solving CC Amplitude Equations
                ------------------------------
  Iter             Energy              RMS        T1Diag      D1Diag    New D1Diag    D2Diag
  ----     ---------------------    ---------   ----------  ----------  ----------   --------
     0        -0.151952995492584    0.000e+00    0.007794    0.014422    0.014422    0.131061
     1        -0.152041298574173    4.546e-04    0.007790    0.014424    0.014424    0.131219
     2        -0.152044854090580    1.203e-04    0.007808    0.014436    0.014436    0.131253
     3        -0.152053700362708    4.740e-05    0.007813    0.014433    0.014433    0.131278
     4        -0.152054554394984    1.171e-05    0.007815    0.014432    0.014432    0.131283
     5        -0.152054549081391    3.495e-06    0.007815    0.014431    0.014431    0.131283
     6        -0.152054529258601    9.034e-07    0.007815    0.014431    0.014431    0.131282
     7        -0.152054510771332    1.834e-07    0.007815    0.014431    0.014431    0.131282
     8        -0.152054509357988    3.955e-08    0.007815    0.014431    0.014431    0.131282
     9        -0.152054509026302    8.425e-09    0.007815    0.014431    0.014431    0.131282

    Iterations converged.


    Largest TIA Amplitudes:
              3   5        -0.0144309472
              2   0         0.0121342057
              4   6         0.0091562934
              4   7         0.0080767569
              1   1         0.0061140275
              2   3         0.0056618405
              4   8        -0.0046895335
              1   0         0.0027576505
              2   1        -0.0019178611
              1   3         0.0017340870

    Largest TIjAb Amplitudes:
      3   3   5   5        -0.0570699557
      4   4   6   6        -0.0554720883
      2   2   1   1        -0.0465051592
      4   4   6   8        -0.0356667298
      4   4   8   6        -0.0356667298
      2   3   1   5        -0.0351816313
      3   2   5   1        -0.0351816313
      4   4   8   8        -0.0339615007
      2   4   0   6        -0.0301637534
      4   2   6   0        -0.0301637534

    SCF energy       (wfn)                    =  -75.998063457566701
    Reference energy (file100)                =  -75.998063457566730

    Opposite-spin MP2 correlation energy      =   -0.113843616279718
    Same-spin MP2 correlation energy          =   -0.031331598339316
    MP2 correlation energy                    =   -0.145175214619034
      * MP2 total energy                      =  -76.143238672185760

    Opposite-spin CCSD correlation energy     =   -0.127921691923698
    Same-spin CCSD correlation energy         =   -0.024132817102933
    CCSD correlation energy                   =   -0.152054509026302
      * CCSD total energy                     =  -76.150117966593029


*** tstop() called on psinet at Mon May 15 15:34:25 2017
Module time:
	user time   =       0.05 seconds =       0.00 minutes
	system time =       0.11 seconds =       0.00 minutes
	total time  =          1 seconds =       0.02 minutes
Total time:
	user time   =       1.10 seconds =       0.02 minutes
	system time =       0.67 seconds =       0.01 minutes
	total time  =          3 seconds =       0.05 minutes

*** tstart() called on psinet
*** at Mon May 15 15:34:25 2017


			**************************
			*                        *
			*         CCHBAR         *
			*                        *
			**************************


*** tstop() called on psinet at Mon May 15 15:34:25 2017
Module time:
	user time   =       0.01 seconds =       0.00 minutes
	system time =       0.02 seconds =       0.00 minutes
	total time  =          0 seconds =       0.00 minutes
Total time:
	user time   =       1.11 seconds =       0.02 minutes
	system time =       0.69 seconds =       0.01 minutes
	total time  =          3 seconds =       0.05 minutes

*** tstart() called on psinet
*** at Mon May 15 15:34:25 2017


	**********************************************************
	*  CCEOM: An Equation of Motion Coupled Cluster Program  *
	**********************************************************

	Nuclear Rep. energy (wfn)     =    8.634974470989285
	SCF energy          (wfn)     =  -75.998063457566701
	Reference energy    (file100) =  -75.998063457566730
	CCSD energy         (file100) =   -0.152054509026302

	Input parameters:
	-----------------
	Reference wfn   =     RHF
	Reference EOM wfn=     RHF
	Memory (Mbytes) =  524.3
	ABCD            =     NEW
	Cache Level     =    2
	Cache Type      =     LRU
	Num. of threads =     1
	Local CC        =     No


	CCEOM parameters:
	-----------------
	States sought per irrep     = A1 1, A2 0, B1 0, B2 0,
	Max. number of iterations   =    80
	Vectors stored per root     =    12
	Print HbarSS iterations?    =     0
	Excitation range for HBarSS =     2
	Eigenvalue tolerance        = 1.0e-08
	Eigenvalue toleranceSS      = 1.0e-06
	Residual vector tolerance   = 1.0e-06
	Residual vector toleranceSS = 1.0e-06
	Complex tolerance           = 1.0e-12
	Root for properties         =     1
	Sym of state for properties =     A1
	Guess vectors taken from    = SINGLES
	Restart EOM CC3             = NO
	Collapse with last vector   = YES


Symmetry of ground state: A1
Symmetry of excited state: A1
Symmetry of right eigenvector: A1
Seeking states with multiplicity of 1
Obtaining initial guess from singles-singles block of Hbar...Done.

Iter=1    L=1     Root    EOM Energy     Delta E   Res. Norm    Conv?
                     1   0.4923801417   4.92e-01    3.94e-01      N
Iter=2    L=2     Root    EOM Energy     Delta E   Res. Norm    Conv?
                     1   0.4073958520  -8.50e-02    8.42e-02      N
Iter=3    L=3     Root    EOM Energy     Delta E   Res. Norm    Conv?
                     1   0.4036374572  -3.76e-03    3.17e-02      N
Iter=4    L=4     Root    EOM Energy     Delta E   Res. Norm    Conv?
                     1   0.4033698866  -2.68e-04    8.87e-03      N
Iter=5    L=5     Root    EOM Energy     Delta E   Res. Norm    Conv?
                     1   0.4033280602  -4.18e-05    2.54e-03      N
Iter=6    L=6     Root    EOM Energy     Delta E   Res. Norm    Conv?
                     1   0.4033370044   8.94e-06    1.10e-03      N
Iter=7    L=7     Root    EOM Energy     Delta E   Res. Norm    Conv?
                     1   0.4033356632  -1.34e-06    3.19e-04      N
Iter=8    L=8     Root    EOM Energy     Delta E   Res. Norm    Conv?
                     1   0.4033347953  -8.68e-07    9.06e-05      N
Iter=9    L=9     Root    EOM Energy     Delta E   Res. Norm    Conv?
                     1   0.4033345738  -2.22e-07    3.16e-05      N
Iter=10   L=10    Root    EOM Energy     Delta E   Res. Norm    Conv?
                     1   0.4033345972   2.34e-08    8.66e-06      N
Iter=11   L=11    Root    EOM Energy     Delta E   Res. Norm    Conv?
                     1   0.4033345772  -2.00e-08    2.81e-06      N
Iter=12   L=12    Root    EOM Energy     Delta E   Res. Norm    Conv?
                     1   0.4033345853   8.04e-09    1.04e-06      N
Iter=13   L=2     Root    EOM Energy     Delta E   Res. Norm    Conv?
                     1   0.4033345853   6.49e-14    1.04e-06      N
Iter=14   L=3     Root    EOM Energy     Delta E   Res. Norm    Conv?
                     1   0.4033345863   1.01e-09    2.15e-07      Y
Collapsing to only 1 vector(s).

Procedure converged for 1 root(s).
Energy written to CC_INFO:Etot  -75.7467833803
States per irrep written to CC_INFO.
EOM CCSD R0 for root 0 =   0.01719910481

Final Energetic Summary for Converged Roots of Irrep A1
                     Excitation Energy              Total Energy
                (eV)     (cm^-1)     (au)             (au)
EOM State 1     10.975    88521.7   0.4033345863   -75.746783380315

Largest components of excited wave function #1:
 RIA (libdpd indices) : (cscf notation)
         2 >   0      :       3a1 >    4a1 :   -0.6767163720
         0 >   0      :       1b2 >    2b2 :    0.0915479959
         0 >   0      :       1b1 >    2b1 :   -0.0400039653
         1 >   0      :       2a1 >    4a1 :    0.0378564477
         2 >   2      :       3a1 >    6a1 :   -0.0349971536
 RIjAb (libdpd indices)     : (cscf notation)
        2   2 >   0   0     :    3a1    3a1 >    4a1    4a1 :    0.1088456136
        2   0 >   0   0     :    3a1    1b2 >    4a1    2b2 :    0.0666234731
        0   2 >   0   0     :    1b2    3a1 >    2b2    4a1 :    0.0666234731
        2   2 >   0   0     :    3a1    3a1 >    2b2    2b2 :    0.0569221707
        2   2 >   0   1     :    3a1    3a1 >    4a1    5a1 :   -0.0549043806

	Putting into environment energy for root of R irrep 1 and root 1.
	Putting into environment CURRENT ENERGY:              -75.7467833803

	Total # of sigma evaluations: 13

*** tstop() called on psinet at Mon May 15 15:34:25 2017
Module time:
	user time   =       0.04 seconds =       0.00 minutes
	system time =       0.03 seconds =       0.00 minutes
	total time  =          0 seconds =       0.00 minutes
Total time:
	user time   =       1.15 seconds =       0.02 minutes
	system time =       0.72 seconds =       0.01 minutes
	total time  =          3 seconds =       0.05 minutes

  //>>>>>>>>>>>>>>>>>>>>>>>>>>>>>>>>>>>//
  //    Loading displacement 2 of 5    //
  //<<<<<<<<<<<<<<<<<<<<<<<<<<<<<<<<<<<//

*** tstart() called on psinet
*** at Mon May 15 15:34:25 2017

   => Loading Basis Set <=

    Name: DZ
    Role: ORBITAL
    Keyword: BASIS
    atoms 1, 3 entry H          line    11 file /home/psilocaluser/gits/hrw-direct/objdir4/stage/usr/local/psi4/share/psi4/basis/dz.gbs 
    atoms 2    entry O          line   106 file /home/psilocaluser/gits/hrw-direct/objdir4/stage/usr/local/psi4/share/psi4/basis/dz.gbs 


         ---------------------------------------------------------
                                   SCF
            by Justin Turney, Rob Parrish, and Andy Simmonett
                              RHF Reference
                        1 Threads,    500 MiB Core
         ---------------------------------------------------------

  ==> Geometry <==

    Molecular point group: c2v
    Full point group: C2v

    Geometry (in Bohr), charge = 0, multiplicity = 1:

       Center              X                  Y                   Z               Mass       
    ------------   -----------------  -----------------  -----------------  -----------------
           H          0.000000000000    -1.440106136420     1.134274838578     1.007825032070
           O         -0.000000000000     0.000000000000    -0.142939253226    15.994914619560
           H         -0.000000000000     1.440106136420     1.134274838578     1.007825032070

  Running in c2v symmetry.

  Rotational constants: A =     20.61565  B =     14.40092  C =      8.47839 [cm^-1]
  Rotational constants: A = 618041.72688  B = 431728.57584  C = 254175.86482 [MHz]
  Nuclear repulsion =    8.659382348734434

  Charge       = 0
  Multiplicity = 1
  Electrons    = 10
  Nalpha       = 5
  Nbeta        = 5

  ==> Algorithm <==

  SCF Algorithm Type is PK.
  DIIS enabled.
  MOM disabled.
  Fractional occupation disabled.
  Guess Type is SAD.
  Energy threshold   = 1.00e-10
  Density threshold  = 1.00e-10
  Integral threshold = 0.00e+00

  ==> Primary Basis <==

  Basis Set: DZ
    Blend: DZ
    Number of shells: 10
    Number of basis function: 14
    Number of Cartesian functions: 14
    Spherical Harmonics?: false
    Max angular momentum: 1

  ==> Pre-Iterations <==

   -------------------------------------------------------
    Irrep   Nso     Nmo     Nalpha   Nbeta   Ndocc  Nsocc
   -------------------------------------------------------
     A1         8       8       0       0       0       0
     A2         0       0       0       0       0       0
     B1         2       2       0       0       0       0
     B2         4       4       0       0       0       0
   -------------------------------------------------------
    Total      14      14       5       5       5       0
   -------------------------------------------------------

  ==> Integral Setup <==

  Using in-core PK algorithm.
   Calculation information:
      Number of atoms:                   3
      Number of AO shells:              10
      Number of primitives:             22
      Number of atomic orbitals:        14
      Number of basis functions:        14

      Integral cutoff                 1.00e-12
      Number of threads:                 1

  Performing in-core PK
  Using 11130 doubles for integral storage.
  We computed 1540 shell quartets total.
  Whereas there are 1540 unique shell quartets.
  ==> DiskJK: Disk-Based J/K Matrices <==

    J tasked:                  Yes
    K tasked:                  Yes
    wK tasked:                  No
    Memory (MB):               375
    Schwarz Cutoff:          1E-12

    OpenMP threads:              1
  Minimum eigenvalue in the overlap matrix is 6.0565460892E-02.
  Using Symmetric Orthogonalization.

  SCF Guess: Superposition of Atomic Densities via on-the-fly atomic UHF.

  ==> Iterations <==

                        Total Energy        Delta E     RMS |[F,P]|

   @RHF iter   0:   -75.82431472640268   -7.58243e+01   1.62952e-01 
   @RHF iter   1:   -75.97863578053889   -1.54321e-01   2.20016e-02 
   @RHF iter   2:   -75.99311724942120   -1.44815e-02   1.25343e-02 DIIS
   @RHF iter   3:   -75.99820487938852   -5.08763e-03   1.66042e-03 DIIS
   @RHF iter   4:   -75.99838435684225   -1.79477e-04   3.54099e-04 DIIS
   @RHF iter   5:   -75.99840237747233   -1.80206e-05   7.77411e-05 DIIS
   @RHF iter   6:   -75.99840323276320   -8.55291e-07   1.13210e-05 DIIS
   @RHF iter   7:   -75.99840324552508   -1.27619e-08   1.50129e-06 DIIS
   @RHF iter   8:   -75.99840324577937   -2.54289e-10   1.34816e-07 DIIS
   @RHF iter   9:   -75.99840324578017   -7.95808e-13   1.32726e-08 DIIS
   @RHF iter  10:   -75.99840324578022   -5.68434e-14   1.57626e-09 DIIS
   @RHF iter  11:   -75.99840324578020    2.84217e-14   2.18219e-10 DIIS
   @RHF iter  12:   -75.99840324578024   -4.26326e-14   2.30526e-11 DIIS

  ==> Post-Iterations <==

    Orbital Energies (a.u.)
    -----------------------

    Doubly Occupied:                                                      

       1A1   -20.575087     2A1    -1.338711     1B2    -0.671367  
       3A1    -0.571712     1B1    -0.506460  

    Virtual:                                                              

       4A1     0.199229     2B2     0.286618     2B1     0.863617  
       5A1     0.905621     3B2     0.919795     4B2     1.159997  
       6A1     1.181784     7A1     1.684169     8A1    43.310947  

    Final Occupation by Irrep:
             A1    A2    B1    B2 
    DOCC [     3,    0,    1,    1 ]

  Energy converged.

  @RHF Final Energy:   -75.99840324578024

   => Energetics <=

    Nuclear Repulsion Energy =              8.6593823487344341
    One-Electron Energy =                -121.9888987625787848
    Two-Electron Energy =                  37.3311131680641068
    DFT Exchange-Correlation Energy =       0.0000000000000000
    Empirical Dispersion Energy =           0.0000000000000000
    PCM Polarization Energy =               0.0000000000000000
    EFP Energy =                            0.0000000000000000
    Total Energy =                        -75.9984032457802385



Properties will be evaluated at   0.000000,   0.000000,   0.000000 Bohr

Properties computed using the SCF density matrix

  Nuclear Dipole Moment: (a.u.)
     X:     0.0000      Y:     0.0000      Z:     1.1250

  Electronic Dipole Moment: (a.u.)
     X:     0.0000      Y:     0.0000      Z:    -0.0127

  Dipole Moment: (a.u.)
     X:     0.0000      Y:     0.0000      Z:     1.1123     Total:     1.1123

  Dipole Moment: (Debye)
     X:     0.0000      Y:     0.0000      Z:     2.8272     Total:     2.8272


*** tstop() called on psinet at Mon May 15 15:34:25 2017
Module time:
	user time   =       0.31 seconds =       0.01 minutes
	system time =       0.02 seconds =       0.00 minutes
	total time  =          0 seconds =       0.00 minutes
Total time:
	user time   =       1.46 seconds =       0.02 minutes
	system time =       0.74 seconds =       0.01 minutes
	total time  =          3 seconds =       0.05 minutes
 MINTS: Wrapper to libmints.
   by Justin Turney

   Calculation information:
      Number of threads:                 1
      Number of atoms:                   3
      Number of AO shells:              10
      Number of SO shells:               8
      Number of primitives:             22
      Number of atomic orbitals:        14
      Number of basis functions:        14

      Number of irreps:                  4
      Integral cutoff                 0.00e+00
      Number of functions per irrep: [   8    0    2    4 ]

 OEINTS: Overlap, kinetic, potential, dipole, and quadrupole integrals
         stored in file 35.

      Computing two-electron integrals...done
      Computed 1709 non-zero two-electron integrals.
        Stored in file 33.


*** tstart() called on psinet
*** at Mon May 15 15:34:25 2017


	Wfn Parameters:
	--------------------
	Wavefunction         = CCSD
	Number of irreps     = 4
	Number of MOs        = 14
	Number of active MOs = 14
	AO-Basis             = NONE
	Semicanonical        = false
	Reference            = RHF
	Print Level          = 1

	IRREP	# MOs	# FZDC	# DOCC	# SOCC	# VIRT	# FZVR
	-----	-----	------	------	------	------	------
	 A1	   8	    0	    3	    0	    5	    0
	 A2	   0	    0	    0	    0	    0	    0
	 B1	   2	    0	    1	    0	    1	    0
	 B2	   4	    0	    1	    0	    3	    0
	Transforming integrals...
	IWL integrals will be deleted.
	(OO|OO)...
	Presorting SO-basis two-electron integrals.
	Sorting File: SO Ints (nn|nn) nbuckets = 1
	Transforming the one-electron integrals and constructing Fock matrices
	Starting first half-transformation.
	Sorting half-transformed integrals.
	First half integral transformation complete.
	Starting second half-transformation.
	Two-electron integral transformation complete.
	(OO|OV)...
	Starting second half-transformation.
	Two-electron integral transformation complete.
	(OO|VV)...
	Starting second half-transformation.
	Two-electron integral transformation complete.
	(OV|OO)...
	Starting first half-transformation.
	Sorting half-transformed integrals.
	First half integral transformation complete.
	Starting second half-transformation.
	Two-electron integral transformation complete.
	(OV|OV)...
	Starting second half-transformation.
	Two-electron integral transformation complete.
	(OV|VV)...
	Starting second half-transformation.
	Two-electron integral transformation complete.
	(VV|OO)...
	Starting first half-transformation.
	Sorting half-transformed integrals.
	First half integral transformation complete.
	Starting second half-transformation.
	Two-electron integral transformation complete.
	(VV|OV)...
	Starting second half-transformation.
	Two-electron integral transformation complete.
	(VV|VV)...
	Starting second half-transformation.
	Two-electron integral transformation complete.
	Frozen core energy     =      0.00000000000000

	Size of irrep 0 of <ab|cd> integrals:      0.001 (MW) /      0.010 (MB)
	Size of irrep 1 of <ab|cd> integrals:      0.000 (MW) /      0.000 (MB)
	Size of irrep 2 of <ab|cd> integrals:      0.000 (MW) /      0.001 (MB)
	Size of irrep 3 of <ab|cd> integrals:      0.001 (MW) /      0.007 (MB)
	Total:                                     0.002 (MW) /      0.018 (MB)

	Size of irrep 0 of <ia|bc> integrals:      0.001 (MW) /      0.005 (MB)
	Size of irrep 1 of <ia|bc> integrals:      0.000 (MW) /      0.000 (MB)
	Size of irrep 2 of <ia|bc> integrals:      0.000 (MW) /      0.001 (MB)
	Size of irrep 3 of <ia|bc> integrals:      0.000 (MW) /      0.003 (MB)
	Total:                                     0.001 (MW) /      0.010 (MB)

	Size of irrep 0 of tijab amplitudes:       0.000 (MW) /      0.003 (MB)
	Size of irrep 1 of tijab amplitudes:       0.000 (MW) /      0.000 (MB)
	Size of irrep 2 of tijab amplitudes:       0.000 (MW) /      0.000 (MB)
	Size of irrep 3 of tijab amplitudes:       0.000 (MW) /      0.001 (MB)
	Total:                                     0.001 (MW) /      0.005 (MB)

	Nuclear Rep. energy          =      8.65938234873443
	SCF energy                   =    -75.99840324578024
	One-electron energy          =   -121.98889876278007
	Two-electron energy          =     37.33111316826550
	Reference energy             =    -75.99840324578012

*** tstop() called on psinet at Mon May 15 15:34:25 2017
Module time:
	user time   =       0.01 seconds =       0.00 minutes
	system time =       0.03 seconds =       0.00 minutes
	total time  =          0 seconds =       0.00 minutes
Total time:
	user time   =       1.49 seconds =       0.02 minutes
	system time =       0.77 seconds =       0.01 minutes
	total time  =          3 seconds =       0.05 minutes

*** tstart() called on psinet
*** at Mon May 15 15:34:25 2017

            **************************
            *                        *
            *        CCENERGY        *
            *                        *
            **************************

    Nuclear Rep. energy (wfn)     =    8.659382348734434
    SCF energy          (wfn)     =  -75.998403245780239
    Reference energy    (file100) =  -75.998403245780125

    Input parameters:
    -----------------
    Wave function   =     CCSD
    Reference wfn   =     RHF
    Brueckner       =     No
    Memory (Mbytes) =     524.3
    Maxiter         =     50
    R_Convergence   =     1.0e-07
    E_Convergence   =     1.0e-08
    Restart         =     Yes
    DIIS            =     Yes
    AO Basis        =     NONE
    ABCD            =     NEW
    Cache Level     =     2
    Cache Type      =     LOW
    Print Level     =     1
    Num. of threads =     1
    # Amps to Print =     10
    Print MP2 Amps? =     No
    Analyze T2 Amps =     No
    Print Pair Ener =     No
    Local CC        =     No
    SCS-MP2         =     False
    SCSN-MP2        =     False
    SCS-CCSD        =     False

    Using old T1 amplitudes.
    Using old T2 amplitudes.

MP2 correlation energy -0.1449065484926528
                Solving CC Amplitude Equations
                ------------------------------
  Iter             Energy              RMS        T1Diag      D1Diag    New D1Diag    D2Diag
  ----     ---------------------    ---------   ----------  ----------  ----------   --------
     0        -0.151982127764239    0.000e+00    0.007815    0.014431    0.014431    0.131282
     1        -0.151807404123710    9.081e-04    0.007824    0.014426    0.014426    0.130966
     2        -0.151800403411344    2.400e-04    0.007788    0.014402    0.014402    0.130898
     3        -0.151782887493100    9.439e-05    0.007779    0.014409    0.014409    0.130848
     4        -0.151781202478023    2.329e-05    0.007775    0.014411    0.014411    0.130839
     5        -0.151781216227120    6.928e-06    0.007774    0.014412    0.014412    0.130839
     6        -0.151781256563802    1.786e-06    0.007773    0.014412    0.014412    0.130840
     7        -0.151781293083828    3.626e-07    0.007773    0.014412    0.014412    0.130840
     8        -0.151781295877954    7.806e-08    0.007773    0.014412    0.014412    0.130840
     9        -0.151781296529420    1.655e-08    0.007773    0.014412    0.014412    0.130840

    Iterations converged.


    Largest TIA Amplitudes:
              3   5        -0.0144120860
              2   0         0.0119835029
              4   6         0.0091715520
              4   7         0.0079735886
              1   1         0.0060910847
              2   3         0.0056010464
              4   8        -0.0046687395
              1   0         0.0027659589
              2   1        -0.0019820110
              1   3         0.0017227964

    Largest TIjAb Amplitudes:
      3   3   5   5        -0.0570754806
      4   4   6   6        -0.0551640326
      2   2   1   1        -0.0464463648
      4   4   6   8        -0.0356157175
      4   4   8   6        -0.0356157175
      2   3   1   5        -0.0351608457
      3   2   5   1        -0.0351608457
      4   4   8   8        -0.0340260062
      2   4   0   6        -0.0298847135
      4   2   6   0        -0.0298847135

    SCF energy       (wfn)                    =  -75.998403245780239
    Reference energy (file100)                =  -75.998403245780125

    Opposite-spin MP2 correlation energy      =   -0.113642656090828
    Same-spin MP2 correlation energy          =   -0.031263892401825
    MP2 correlation energy                    =   -0.144906548492653
      * MP2 total energy                      =  -76.143309794272781

    Opposite-spin CCSD correlation energy     =   -0.127677965995274
    Same-spin CCSD correlation energy         =   -0.024103330534492
    CCSD correlation energy                   =   -0.151781296529420
      * CCSD total energy                     =  -76.150184542309546


*** tstop() called on psinet at Mon May 15 15:34:25 2017
Module time:
	user time   =       0.05 seconds =       0.00 minutes
	system time =       0.13 seconds =       0.00 minutes
	total time  =          0 seconds =       0.00 minutes
Total time:
	user time   =       1.54 seconds =       0.03 minutes
	system time =       0.90 seconds =       0.01 minutes
	total time  =          3 seconds =       0.05 minutes

*** tstart() called on psinet
*** at Mon May 15 15:34:25 2017


			**************************
[...]

  Performing in-core PK
  Using 11130 doubles for integral storage.
  We computed 1540 shell quartets total.
  Whereas there are 1540 unique shell quartets.
  ==> DiskJK: Disk-Based J/K Matrices <==

    J tasked:                  Yes
    K tasked:                  Yes
    wK tasked:                  No
    Memory (MB):               375
    Schwarz Cutoff:          1E-12

    OpenMP threads:              1
  Minimum eigenvalue in the overlap matrix is 6.0756533921E-02.
  Using Symmetric Orthogonalization.

  SCF Guess: Superposition of Atomic Densities via on-the-fly atomic UHF.

  ==> Iterations <==

                        Total Energy        Delta E     RMS |[F,P]|

   @RHF iter   0:   -75.82166704027043   -7.58217e+01   1.62433e-01 
   @RHF iter   1:   -75.97853683350145   -1.56870e-01   2.19638e-02 
   @RHF iter   2:   -75.99295124881307   -1.44144e-02   1.25336e-02 DIIS
   @RHF iter   3:   -75.99803976960368   -5.08852e-03   1.65649e-03 DIIS
   @RHF iter   4:   -75.99821851514429   -1.78746e-04   3.53513e-04 DIIS
   @RHF iter   5:   -75.99823650299575   -1.79879e-05   7.78669e-05 DIIS
   @RHF iter   6:   -75.99823736318378   -8.60188e-07   1.13500e-05 DIIS
   @RHF iter   7:   -75.99823737603967   -1.28559e-08   1.50460e-06 DIIS
   @RHF iter   8:   -75.99823737629514   -2.55469e-10   1.35290e-07 DIIS
   @RHF iter   9:   -75.99823737629605   -9.09495e-13   1.33449e-08 DIIS
   @RHF iter  10:   -75.99823737629603    1.42109e-14   1.61354e-09 DIIS
   @RHF iter  11:   -75.99823737629602    1.42109e-14   2.22654e-10 DIIS
   @RHF iter  12:   -75.99823737629603   -1.42109e-14   2.32049e-11 DIIS

  ==> Post-Iterations <==

    Orbital Energies (a.u.)
    -----------------------

    Doubly Occupied:                                                      

       1A1   -20.575249     2A1    -1.337913     1B2    -0.670935  
       3A1    -0.571230     1B1    -0.506342  

    Virtual:                                                              

       4A1     0.198874     2B2     0.286140     2B1     0.863657  
       5A1     0.905736     3B2     0.920725     4B2     1.159000  
       6A1     1.179815     7A1     1.683365     8A1    43.310472  

    Final Occupation by Irrep:
             A1    A2    B1    B2 
    DOCC [     3,    0,    1,    1 ]

  Energy converged.

  @RHF Final Energy:   -75.99823737629603

   => Energetics <=

    Nuclear Repulsion Energy =              8.6471668881518582
    One-Electron Energy =                -121.9674700717249465
    Two-Electron Energy =                  37.3220658072770561
    DFT Exchange-Correlation Energy =       0.0000000000000000
    Empirical Dispersion Energy =           0.0000000000000000
    PCM Polarization Energy =               0.0000000000000000
    EFP Energy =                            0.0000000000000000
    Total Energy =                        -75.9982373762960322



Properties will be evaluated at   0.000000,   0.000000,   0.000000 Bohr

Properties computed using the SCF density matrix

  Nuclear Dipole Moment: (a.u.)
     X:     0.0000      Y:     0.0000      Z:     1.1250

  Electronic Dipole Moment: (a.u.)
     X:     0.0000      Y:     0.0000      Z:    -0.0134

  Dipole Moment: (a.u.)
     X:     0.0000      Y:     0.0000      Z:     1.1116     Total:     1.1116

  Dipole Moment: (Debye)
     X:     0.0000      Y:     0.0000      Z:     2.8254     Total:     2.8254


*** tstop() called on psinet at Mon May 15 15:34:34 2017
Module time:
	user time   =       0.31 seconds =       0.01 minutes
	system time =       0.01 seconds =       0.00 minutes
	total time  =          0 seconds =       0.00 minutes
Total time:
	user time   =       6.95 seconds =       0.12 minutes
	system time =       3.28 seconds =       0.05 minutes
	total time  =         12 seconds =       0.20 minutes
 MINTS: Wrapper to libmints.
   by Justin Turney

   Calculation information:
      Number of threads:                 1
      Number of atoms:                   3
      Number of AO shells:              10
      Number of SO shells:               8
      Number of primitives:             22
      Number of atomic orbitals:        14
      Number of basis functions:        14

      Number of irreps:                  4
      Integral cutoff                 0.00e+00
      Number of functions per irrep: [   8    0    2    4 ]

 OEINTS: Overlap, kinetic, potential, dipole, and quadrupole integrals
         stored in file 35.

      Computing two-electron integrals...done
      Computed 1709 non-zero two-electron integrals.
        Stored in file 33.


*** tstart() called on psinet
*** at Mon May 15 15:34:34 2017


	Wfn Parameters:
	--------------------
	Wavefunction         = CCSD
	Number of irreps     = 4
	Number of MOs        = 14
	Number of active MOs = 14
	AO-Basis             = NONE
	Semicanonical        = false
	Reference            = RHF
	Print Level          = 1

	IRREP	# MOs	# FZDC	# DOCC	# SOCC	# VIRT	# FZVR
	-----	-----	------	------	------	------	------
	 A1	   8	    0	    3	    0	    5	    0
	 A2	   0	    0	    0	    0	    0	    0
	 B1	   2	    0	    1	    0	    1	    0
	 B2	   4	    0	    1	    0	    3	    0
	Transforming integrals...
	IWL integrals will be deleted.
	(OO|OO)...
	Presorting SO-basis two-electron integrals.
	Sorting File: SO Ints (nn|nn) nbuckets = 1
	Transforming the one-electron integrals and constructing Fock matrices
	Starting first half-transformation.
	Sorting half-transformed integrals.
	First half integral transformation complete.
	Starting second half-transformation.
	Two-electron integral transformation complete.
	(OO|OV)...
	Starting second half-transformation.
	Two-electron integral transformation complete.
	(OO|VV)...
	Starting second half-transformation.
	Two-electron integral transformation complete.
	(OV|OO)...
	Starting first half-transformation.
	Sorting half-transformed integrals.
	First half integral transformation complete.
	Starting second half-transformation.
	Two-electron integral transformation complete.
	(OV|OV)...
	Starting second half-transformation.
	Two-electron integral transformation complete.
	(OV|VV)...
	Starting second half-transformation.
	Two-electron integral transformation complete.
	(VV|OO)...
	Starting first half-transformation.
	Sorting half-transformed integrals.
	First half integral transformation complete.
	Starting second half-transformation.
	Two-electron integral transformation complete.
	(VV|OV)...
	Starting second half-transformation.
	Two-electron integral transformation complete.
	(VV|VV)...
	Starting second half-transformation.
	Two-electron integral transformation complete.
	Frozen core energy     =      0.00000000000000

	Size of irrep 0 of <ab|cd> integrals:      0.001 (MW) /      0.010 (MB)
	Size of irrep 1 of <ab|cd> integrals:      0.000 (MW) /      0.000 (MB)
	Size of irrep 2 of <ab|cd> integrals:      0.000 (MW) /      0.001 (MB)
	Size of irrep 3 of <ab|cd> integrals:      0.001 (MW) /      0.007 (MB)
	Total:                                     0.002 (MW) /      0.018 (MB)

	Size of irrep 0 of <ia|bc> integrals:      0.001 (MW) /      0.005 (MB)
	Size of irrep 1 of <ia|bc> integrals:      0.000 (MW) /      0.000 (MB)
	Size of irrep 2 of <ia|bc> integrals:      0.000 (MW) /      0.001 (MB)
	Size of irrep 3 of <ia|bc> integrals:      0.000 (MW) /      0.003 (MB)
	Total:                                     0.001 (MW) /      0.010 (MB)

	Size of irrep 0 of tijab amplitudes:       0.000 (MW) /      0.003 (MB)
	Size of irrep 1 of tijab amplitudes:       0.000 (MW) /      0.000 (MB)
	Size of irrep 2 of tijab amplitudes:       0.000 (MW) /      0.000 (MB)
	Size of irrep 3 of tijab amplitudes:       0.000 (MW) /      0.001 (MB)
	Total:                                     0.001 (MW) /      0.005 (MB)

	Nuclear Rep. energy          =      8.64716688815186
	SCF energy                   =    -75.99823737629603
	One-electron energy          =   -121.96747007192707
	Two-electron energy          =     37.32206580747923
	Reference energy             =    -75.99823737629599

*** tstop() called on psinet at Mon May 15 15:34:34 2017
Module time:
	user time   =       0.01 seconds =       0.00 minutes
	system time =       0.02 seconds =       0.00 minutes
	total time  =          0 seconds =       0.00 minutes
Total time:
	user time   =       6.98 seconds =       0.12 minutes
	system time =       3.31 seconds =       0.06 minutes
	total time  =         12 seconds =       0.20 minutes

*** tstart() called on psinet
*** at Mon May 15 15:34:34 2017

            **************************
            *                        *
            *        CCENERGY        *
            *                        *
            **************************

    Nuclear Rep. energy (wfn)     =    8.647166888151858
    SCF energy          (wfn)     =  -75.998237376296032
    Reference energy    (file100) =  -75.998237376295990

    Input parameters:
    -----------------
    Wave function   =     CCSD
    Reference wfn   =     RHF
    Brueckner       =     No
    Memory (Mbytes) =     524.3
    Maxiter         =     50
    R_Convergence   =     1.0e-07
    E_Convergence   =     1.0e-08
    Restart         =     Yes
    DIIS            =     Yes
    AO Basis        =     NONE
    ABCD            =     NEW
    Cache Level     =     2
    Cache Type      =     LOW
    Print Level     =     1
    Num. of threads =     1
    # Amps to Print =     10
    Print MP2 Amps? =     No
    Analyze T2 Amps =     No
    Print Pair Ener =     No
    Local CC        =     No
    SCS-MP2         =     False
    SCSN-MP2        =     False
    SCS-CCSD        =     False

    Using old T1 amplitudes.
    Using old T2 amplitudes.

MP2 correlation energy -0.1450408220385428
                Solving CC Amplitude Equations
                ------------------------------
  Iter             Energy              RMS        T1Diag      D1Diag    New D1Diag    D2Diag
  ----     ---------------------    ---------   ----------  ----------  ----------   --------
     0        -0.152126111368619    0.000e+00    0.007840    0.014458    0.014458    0.131633
     1        -0.151944072858785    1.135e-03    0.007871    0.014443    0.014443    0.131229
     2        -0.151940135900812    3.190e-04    0.007820    0.014409    0.014409    0.131140
     3        -0.151919902448226    1.275e-04    0.007802    0.014416    0.014416    0.131069
     4        -0.151917547072599    3.468e-05    0.007796    0.014420    0.014420    0.131059
     5        -0.151917615600802    9.017e-06    0.007795    0.014422    0.014422    0.131060
     6        -0.151917755789471    2.187e-06    0.007794    0.014422    0.014422    0.131060
     7        -0.151917798787660    3.992e-07    0.007794    0.014422    0.014422    0.131061
     8        -0.151917807887178    7.974e-08    0.007794    0.014422    0.014422    0.131061
     9        -0.151917808890337    1.868e-08    0.007794    0.014422    0.014422    0.131061

    Iterations converged.


    Largest TIA Amplitudes:
              3   5        -0.0144215110
              2   0         0.0120585153
              4   6         0.0091639273
              4   7         0.0080250398
              1   1         0.0061025939
              2   3         0.0056314222
              4   8        -0.0046792345
              1   0         0.0027618280
              2   1        -0.0019499649
              1   3         0.0017284734

    Largest TIjAb Amplitudes:
      3   3   5   5        -0.0570727298
      4   4   6   6        -0.0553178040
      2   2   1   1        -0.0464759321
      4   4   6   8        -0.0356413332
      4   4   8   6        -0.0356413332
      2   3   1   5        -0.0351713150
      3   2   5   1        -0.0351713150
      4   4   8   8        -0.0339938907
      2   4   0   6        -0.0300239155
      4   2   6   0        -0.0300239155

    SCF energy       (wfn)                    =  -75.998237376296032
    Reference energy (file100)                =  -75.998237376295990

    Opposite-spin MP2 correlation energy      =   -0.113743071158382
    Same-spin MP2 correlation energy          =   -0.031297750880161
    MP2 correlation energy                    =   -0.145040822038543
      * MP2 total energy                      =  -76.143278198334528

    Opposite-spin CCSD correlation energy     =   -0.127799703662567
    Same-spin CCSD correlation energy         =   -0.024118105228107
    CCSD correlation energy                   =   -0.151917808890337
      * CCSD total energy                     =  -76.150155185186321


*** tstop() called on psinet at Mon May 15 15:34:35 2017
Module time:
	user time   =       0.05 seconds =       0.00 minutes
	system time =       0.12 seconds =       0.00 minutes
	total time  =          1 seconds =       0.02 minutes
Total time:
	user time   =       7.03 seconds =       0.12 minutes
	system time =       3.43 seconds =       0.06 minutes
	total time  =         13 seconds =       0.22 minutes

*** tstart() called on psinet
*** at Mon May 15 15:34:35 2017


			**************************
			*                        *
			*         CCHBAR         *
			*                        *
			**************************


*** tstop() called on psinet at Mon May 15 15:34:35 2017
Module time:
	user time   =       0.01 seconds =       0.00 minutes
	system time =       0.02 seconds =       0.00 minutes
	total time  =          0 seconds =       0.00 minutes
Total time:
	user time   =       7.04 seconds =       0.12 minutes
	system time =       3.45 seconds =       0.06 minutes
	total time  =         13 seconds =       0.22 minutes

*** tstart() called on psinet
*** at Mon May 15 15:34:35 2017


	**********************************************************
	*  CCEOM: An Equation of Motion Coupled Cluster Program  *
	**********************************************************

	Nuclear Rep. energy (wfn)     =    8.647166888151858
	SCF energy          (wfn)     =  -75.998237376296032
	Reference energy    (file100) =  -75.998237376295990
	CCSD energy         (file100) =   -0.151917808890337

	Input parameters:
	-----------------
	Reference wfn   =     RHF
	Reference EOM wfn=     RHF
	Memory (Mbytes) =  524.3
	ABCD            =     NEW
	Cache Level     =    2
	Cache Type      =     LRU
	Num. of threads =     1
	Local CC        =     No


	CCEOM parameters:
	-----------------
	States sought per irrep     = A1 1, A2 0, B1 0, B2 0,
	Max. number of iterations   =    80
	Vectors stored per root     =    12
	Print HbarSS iterations?    =     0
	Excitation range for HBarSS =     2
	Eigenvalue tolerance        = 1.0e-08
	Eigenvalue toleranceSS      = 1.0e-06
	Residual vector tolerance   = 1.0e-06
	Residual vector toleranceSS = 1.0e-06
	Complex tolerance           = 1.0e-12
	Root for properties         =     1
	Sym of state for properties =     A1
	Guess vectors taken from    = SINGLES
	Restart EOM CC3             = NO
	Collapse with last vector   = YES


Symmetry of ground state: A1
Symmetry of excited state: A1
Symmetry of right eigenvector: A1
Seeking states with multiplicity of 1
Obtaining initial guess from singles-singles block of Hbar...Done.

Iter=1    L=1     Root    EOM Energy     Delta E   Res. Norm    Conv?
                     1   0.4930998097   4.93e-01    3.94e-01      N
Iter=2    L=2     Root    EOM Energy     Delta E   Res. Norm    Conv?
                     1   0.4080910249  -8.50e-02    8.41e-02      N
Iter=3    L=3     Root    EOM Energy     Delta E   Res. Norm    Conv?
                     1   0.4043436085  -3.75e-03    3.16e-02      N
Iter=4    L=4     Root    EOM Energy     Delta E   Res. Norm    Conv?
                     1   0.4040780348  -2.66e-04    8.84e-03      N
Iter=5    L=5     Root    EOM Energy     Delta E   Res. Norm    Conv?
                     1   0.4040363648  -4.17e-05    2.53e-03      N
Iter=6    L=6     Root    EOM Energy     Delta E   Res. Norm    Conv?
                     1   0.4040452436   8.88e-06    1.10e-03      N
Iter=7    L=7     Root    EOM Energy     Delta E   Res. Norm    Conv?
                     1   0.4040438864  -1.36e-06    3.18e-04      N
Iter=8    L=8     Root    EOM Energy     Delta E   Res. Norm    Conv?
                     1   0.4040430226  -8.64e-07    9.05e-05      N
Iter=9    L=9     Root    EOM Energy     Delta E   Res. Norm    Conv?
                     1   0.4040428040  -2.19e-07    3.17e-05      N
Iter=10   L=10    Root    EOM Energy     Delta E   Res. Norm    Conv?
                     1   0.4040428275   2.35e-08    8.67e-06      N
Iter=11   L=11    Root    EOM Energy     Delta E   Res. Norm    Conv?
                     1   0.4040428078  -1.97e-08    2.80e-06      N
Iter=12   L=12    Root    EOM Energy     Delta E   Res. Norm    Conv?
                     1   0.4040428158   8.00e-09    1.03e-06      N
Iter=13   L=2     Root    EOM Energy     Delta E   Res. Norm    Conv?
                     1   0.4040428158   1.79e-13    1.03e-06      N
Iter=14   L=3     Root    EOM Energy     Delta E   Res. Norm    Conv?
                     1   0.4040428168   1.01e-09    2.12e-07      Y
Collapsing to only 1 vector(s).

Procedure converged for 1 root(s).
Energy written to CC_INFO:Etot  -75.7461123684
States per irrep written to CC_INFO.
EOM CCSD R0 for root 0 =   0.01704703657

Final Energetic Summary for Converged Roots of Irrep A1
                     Excitation Energy              Total Energy
                (eV)     (cm^-1)     (au)             (au)
EOM State 1     10.995    88677.1   0.4040428168   -75.746112368395

Largest components of excited wave function #1:
 RIA (libdpd indices) : (cscf notation)
         2 >   0      :       3a1 >    4a1 :   -0.6767988430
         0 >   0      :       1b2 >    2b2 :    0.0913345951
         0 >   0      :       1b1 >    2b1 :   -0.0399881710
         1 >   0      :       2a1 >    4a1 :    0.0377016903
         2 >   2      :       3a1 >    6a1 :   -0.0349743674
 RIjAb (libdpd indices)     : (cscf notation)
        2   2 >   0   0     :    3a1    3a1 >    4a1    4a1 :    0.1085387981
        2   0 >   0   0     :    3a1    1b2 >    4a1    2b2 :    0.0665796224
        0   2 >   0   0     :    1b2    3a1 >    2b2    4a1 :    0.0665796224
        2   2 >   0   0     :    3a1    3a1 >    2b2    2b2 :    0.0566952246
        2   2 >   0   1     :    3a1    3a1 >    4a1    5a1 :   -0.0549889788

	Putting into environment energy for root of R irrep 1 and root 1.
	Putting into environment CURRENT ENERGY:              -75.7461123684

	Total # of sigma evaluations: 13

*** tstop() called on psinet at Mon May 15 15:34:35 2017
Module time:
	user time   =       0.03 seconds =       0.00 minutes
	system time =       0.04 seconds =       0.00 minutes
	total time  =          0 seconds =       0.00 minutes
Total time:
	user time   =       7.07 seconds =       0.12 minutes
	system time =       3.49 seconds =       0.06 minutes
	total time  =         13 seconds =       0.22 minutes

-------------------------------------------------------------

  Computing gradient from energies (fd_1_0).
	Using 5-point formula.
	Energy without displacement:  -75.7461123684
	Check energies below for precision!
	Forces are for mass-weighted, symmetry-adapted cartesians (in au).

	 Coord      Energy(-2)        Energy(-1)        Energy(+1)        Energy(+2)            Force
	    0    -75.7474482334    -75.7467833798    -75.7454351504    -75.7447516753      0.1348212826
	    1    -75.7462279484    -75.7461718695    -75.7460494899    -75.7459832694      0.0122392889

	Gradient written.

-------------------------------------------------------------
  Irrep: 1 Size: 3 x 3

                 1                   2                   3

    1     0.00000000000000     0.09570530838604     0.00818768369190
    2     0.00000000000000     0.00000000000000    -0.01637536738379
    3     0.00000000000000    -0.09570530838604     0.00818768369190



	RHF-EOM-CCSD finite-diff. (5-pt.) vs. analytic gradient to 10^-7..PASSED

*** Psi4 exiting successfully. Buy a developer a beer!
