[Molden Format]
[Atoms] (AU)
O    1    8         0.000000000000       0.000000000000      -0.149544924691
H    2    1         0.000000000000      -1.336238163149       1.186693238458
H    3    1         0.000000000000       1.336238163149       1.186693238458
[GTO]
  1 0
 s    6  1.00
     5484.6717000000         0.0018311000
      825.2349500000         0.0139501000
      188.0469600000         0.0684451000
       52.9645000000         0.2327143000
       16.8975700000         0.4701930000
        5.7996353000         0.3585209000
 s    3  1.00
       15.5396160000        -0.1107775000
        3.5999336000        -0.1480263000
        1.0137618000         1.1307670000
 p    3  1.00
       15.5396160000         0.0708743000
        3.5999336000         0.3397528000
        1.0137618000         0.7271586000
 s    1  1.00
        0.2700058000         1.0000000000
 p    1  1.00
        0.2700058000         1.0000000000

  2 0
 s    3  1.00
       18.7311370000         0.0334946000
        2.8253937000         0.2347269500
        0.6401217000         0.8137573300
 s    1  1.00
        0.1612778000         1.0000000000

  3 0
 s    3  1.00
       18.7311370000         0.0334946000
        2.8253937000         0.2347269500
        0.6401217000         0.8137573300
 s    1  1.00
        0.1612778000         1.0000000000

[MO]
 Sym= A1
 Ene=         0.0000000000
 Spin= Alpha
 Occup=  0.0000
  1      -0.223503524562
  2       1.585716681021
  3       0.000000000000
  4       0.000000000000
  5      -2.837327550888
  6      -1.498886157060
  7       0.000000000000
  8       0.000000000000
  9       1.106645388553
 10       1.886802346404
 11       0.043362943688
 12       1.886802346404
 13       0.043362943688
 Sym= A1
 Ene=         0.0000000000
 Spin= Alpha
 Occup=  0.0000
  1       0.114358552902
  2      -0.078836297988
  3       0.000000000000
  4       0.000000000000
  5       0.942020991325
  6      -1.231489345128
  7       0.000000000000
  8       0.000000000000
  9      -1.626994764218
 10       0.530593211376
 11       1.254678053555
 12       0.530593211376
 13       1.254678053555
 Sym= A1
 Ene=         0.0000000000
 Spin= Alpha
 Occup=  0.0000
  1       0.008938728365
  2       1.473731258049
  3       0.000000000000
  4       0.000000000000
  5      -0.429427981773
  6      -3.181189684788
  7       0.000000000000
  8       0.000000000000
  9      -2.118539744982
 10       2.093133293941
 11       0.206541940903
 12       2.093133293941
 13       0.206541940903
 Sym= B1
 Ene=         0.0000000000
 Spin= Alpha
 Occup=  0.0000
  1       0.000000000000
  2       0.000000000000
  3      -0.377654428949
  4       0.000000000000
  5       0.000000000000
  6       0.000000000000
  7       1.565207567265
  8       0.000000000000
  9       0.000000000000
 10       0.000000000000
 11       0.000000000000
 12       0.000000000000
 13       0.000000000000
 Sym= B2
 Ene=         0.0000000000
 Spin= Alpha
 Occup=  0.0000
  1       0.000000000000
  2       0.000000000000
  3       0.000000000000
  4      -2.287079331211
  5       0.000000000000
  6       0.000000000000
  7       0.000000000000
  8       3.213510600091
  9       0.000000000000
 10      -0.901364496877
 11       1.825549691565
 12       0.901364496877
 13      -1.825549691565
 Sym= B2
 Ene=         0.0000000000
 Spin= Alpha
 Occup=  0.0000
  1       0.000000000000
  2       0.000000000000
  3       0.000000000000
  4      -1.059527445032
  5       0.000000000000
  6       0.000000000000
  7       0.000000000000
  8       2.944560941485
  9       0.000000000000
 10       1.254972703353
 11       0.875911161328
 12      -1.254972703353
 13      -0.875911161328
 Sym= A1
 Ene=         0.0138147184
 Spin= Alpha
 Occup=  0.0276
  1      -0.025781573281
  2      -0.502839396719
  3       0.000000000000
  4       0.000000000000
  5       0.052620433480
  6       1.752253960531
  7       0.000000000000
  8       0.000000000000
  9      -0.488625272332
 10       0.000575259158
 11      -0.540958850934
 12       0.000575259158
 13      -0.540958850934
 Sym= B2
 Ene=         0.0159770356
 Spin= Alpha
 Occup=  0.0320
  1       0.000000000000
  2       0.000000000000
  3       0.000000000000
  4      -0.711760704826
  5       0.000000000000
  6       0.000000000000
  7       0.000000000000
  8       0.415647062460
  9       0.000000000000
 10      -0.314712836762
 11       1.455997287519
 12       0.314712836762
 13      -1.455997287519
 Sym= B2
 Ene=         0.9845161171
 Spin= Alpha
 Occup=  1.9690
  1       0.000000000000
  2       0.000000000000
  3       0.000000000000
  4      -0.387562187087
  5       0.000000000000
  6       0.000000000000
  7       0.000000000000
  8      -0.438727815391
  9       0.000000000000
 10       0.286350695930
 11      -0.708944663613
 12      -0.286350695930
 13       0.708944663613
 Sym= A1
 Ene=         0.9866967080
 Spin= Alpha
 Occup=  1.9734
  1       0.039147848639
  2      -0.551727035384
  3       0.000000000000
  4       0.000000000000
  5       0.323127267476
  6       0.575498540153
  7       0.000000000000
  8       0.000000000000
  9       0.205793451946
 10       0.322134455562
 11      -0.438904328263
 12       0.322134455562
 13      -0.438904328263
 Sym= A1
 Ene=         0.9993103969
 Spin= Alpha
 Occup=  1.9986
  1      -0.076727970734
  2      -0.331298549777
  3       0.000000000000
  4       0.000000000000
  5      -0.533803440767
  6      -0.658593558086
  7       0.000000000000
  8       0.000000000000
  9      -0.254493076086
 10       0.171267009293
 11       0.294935478769
 12       0.171267009293
 13       0.294935478769
 Sym= B1
 Ene=         0.9996850239
 Spin= Alpha
 Occup=  1.9994
  1       0.000000000000
  2       0.000000000000
  3       0.901661580920
  4       0.000000000000
  5       0.000000000000
  6       0.000000000000
  7      -0.199232972582
  8       0.000000000000
  9       0.000000000000
 10       0.000000000000
 11       0.000000000000
 12       0.000000000000
 13       0.000000000000
 Sym= A1
 Ene=         1.0000000000
 Spin= Alpha
 Occup=  2.0000
  1       0.995964576210
  2       0.009868123715
  3       0.000000000000
  4       0.000000000000
  5       0.007507126931
  6      -0.011699642985
  7       0.000000000000
  8       0.000000000000
  9      -0.002431936920
 10      -0.008238490540
 11       0.001038926648
 12      -0.008238490540
 13       0.001038926648
