
    -----------------------------------------------------------------------
          Psi4: An Open-Source Ab Initio Electronic Structure Package
                               Psi4 1.4a2.dev406 

                         Git: Rev {choleskyfix} 67a47dc dirty


    R. M. Parrish, L. A. Burns, D. G. A. Smith, A. C. Simmonett,
    A. E. DePrince III, E. G. Hohenstein, U. Bozkaya, A. Yu. Sokolov,
    R. Di Remigio, R. M. Richard, J. F. Gonthier, A. M. James,
    H. R. McAlexander, A. Kumar, M. Saitow, X. Wang, B. P. Pritchard,
    P. Verma, H. F. Schaefer III, K. Patkowski, R. A. King, E. F. Valeev,
    F. A. Evangelista, J. M. Turney, T. D. Crawford, and C. D. Sherrill,
    J. Chem. Theory Comput. 13(7) pp 3185--3197 (2017).
    (doi: 10.1021/acs.jctc.7b00174)


                         Additional Contributions by
    P. Kraus, H. Kruse, M. H. Lechner, M. C. Schieber, R. A. Shaw,
    A. Alenaizan, R. Galvelis, Z. L. Glick, S. Lehtola, and J. P. Misiewicz

    -----------------------------------------------------------------------


    Psi4 started on: Monday, 24 February 2020 12:22AM

    Process ID: 1053589
    Host:       dx7-lehtola.chem.helsinki.fi
    PSIDATADIR: /home/work/psi4/install.susi/share/psi4
    Memory:     500.0 MiB
    Threads:    4
    
  ==> Input File <==

--------------------------------------------------------------------------
# Reference HF energy
reference_energy = -40.2170789282755266

molecule {
0 1
C    0.000000000000   0.000000000000   0.000000000000
H    0.627600000000   0.627600000000   0.627600000000
H    0.627600000000  -0.627600000000  -0.627600000000
H   -0.627600000000   0.627600000000  -0.627600000000
H   -0.627600000000  -0.627600000000   0.627600000000
}

basis {
assign complete

[complete]
spherical
****
H 0
S 1 1.0
  7.7717777442e+04 1.0
S 1 1.0
  4.0227250055e+04 1.0
S 1 1.0
  2.0821898159e+04 1.0
S 1 1.0
  1.0777556068e+04 1.0
S 1 1.0
  5.5785363042e+03 1.0
S 1 1.0
  2.8874883230e+03 1.0
S 1 1.0
  1.4945835898e+03 1.0
S 1 1.0
  7.7360662870e+02 1.0
S 1 1.0
  4.0042405125e+02 1.0
S 1 1.0
  2.0726221166e+02 1.0
S 1 1.0
  1.0728033006e+02 1.0
S 1 1.0
  5.5529028305e+01 1.0
S 1 1.0
  2.8742202627e+01 1.0
S 1 1.0
  1.4877159516e+01 1.0
S 1 1.0
  7.7005189246e+00 1.0
S 1 1.0
  3.9858409560e+00 1.0
S 1 1.0
  2.0630983811e+00 1.0
S 1 1.0
  1.0678737503e+00 1.0
S 1 1.0
  5.5273871431e-01 1.0
S 1 1.0
  2.8610131694e-01 1.0
S 1 1.0
  1.4808798703e-01 1.0
S 1 1.0
  7.6651349030e-02 1.0
S 1 1.0
  3.9675259458e-02 1.0
S 1 1.0
  2.0536184072e-02 1.0
S 1 1.0
  1.0629668514e-02 1.0
P 1 1.0
  4.9729544510e+01 1.0
P 1 1.0
  2.6899149919e+01 1.0
P 1 1.0
  1.4549987809e+01 1.0
P 1 1.0
  7.8702169357e+00 1.0
P 1 1.0
  4.2570698634e+00 1.0
P 1 1.0
  2.3026866946e+00 1.0
P 1 1.0
  1.2455435743e+00 1.0
P 1 1.0
  6.7372552203e-01 1.0
P 1 1.0
  3.6442408633e-01 1.0
P 1 1.0
  1.9712020749e-01 1.0
P 1 1.0
  1.0662406153e-01 1.0
P 1 1.0
  5.7673896760e-02 1.0
P 1 1.0
  3.1196320229e-02 1.0
P 1 1.0
  1.6874365190e-02 1.0
P 1 1.0
  9.1274931936e-03 1.0
P 1 1.0
  4.9371416976e-03 1.0
P 1 1.0
  2.6705435573e-03 1.0
P 1 1.0
  1.4445206008e-03 1.0
D 1 1.0
  1.9872405072e+00 1.0
D 1 1.0
  1.1203405838e+00 1.0
D 1 1.0
  6.3161103001e-01 1.0
D 1 1.0
  3.5608144434e-01 1.0
D 1 1.0
  2.0074696131e-01 1.0
D 1 1.0
  1.1317450858e-01 1.0
D 1 1.0
  6.3804051168e-02 1.0
D 1 1.0
  3.5970617383e-02 1.0
D 1 1.0
  2.0279046412e-02 1.0
D 1 1.0
  1.1432656798e-02 1.0
D 1 1.0
  6.4453544224e-03 1.0
D 1 1.0
  3.6336780123e-03 1.0
D 1 1.0
  2.0485476875e-03 1.0
D 1 1.0
  1.1549035478e-03 1.0
D 1 1.0
  6.5109648792e-04 1.0
F 1 1.0
  3.3471211201e-01 1.0
F 1 1.0
  1.9811182333e-01 1.0
F 1 1.0
  1.1725985746e-01 1.0
F 1 1.0
  6.9404611699e-02 1.0
F 1 1.0
  4.1079703058e-02 1.0
F 1 1.0
  2.4314551469e-02 1.0
F 1 1.0
  1.4391472410e-02 1.0
F 1 1.0
  8.5181286760e-03 1.0
F 1 1.0
  5.0417715488e-03 1.0
F 1 1.0
  2.9841601739e-03 1.0
F 1 1.0
  1.7662862859e-03 1.0
F 1 1.0
  1.0454422893e-03 1.0
F 1 1.0
  6.1878393606e-04 1.0
F 1 1.0
  3.6625030713e-04 1.0
****
C 0
S 1 1.0
  2.6417532443e+06 1.0
S 1 1.0
  1.3716828821e+06 1.0
S 1 1.0
  7.1222167816e+05 1.0
S 1 1.0
  3.6980830297e+05 1.0
S 1 1.0
  1.9201631338e+05 1.0
S 1 1.0
  9.9701018898e+04 1.0
S 1 1.0
  5.1767961766e+04 1.0
S 1 1.0
  2.6879583529e+04 1.0
S 1 1.0
  1.3956740541e+04 1.0
S 1 1.0
  7.2467866293e+03 1.0
S 1 1.0
  3.7627636838e+03 1.0
S 1 1.0
  1.9537474007e+03 1.0
S 1 1.0
  1.0144482158e+03 1.0
S 1 1.0
  5.2673399961e+02 1.0
S 1 1.0
  2.7349716035e+02 1.0
S 1 1.0
  1.4200848393e+02 1.0
S 1 1.0
  7.3735352434e+01 1.0
S 1 1.0
  3.8285756232e+01 1.0
S 1 1.0
  1.9879190671e+01 1.0
S 1 1.0
  1.0321912393e+01 1.0
S 1 1.0
  5.3594674561e+00 1.0
S 1 1.0
  2.7828071309e+00 1.0
S 1 1.0
  1.4449225770e+00 1.0
S 1 1.0
  7.5025007313e-01 1.0
S 1 1.0
  3.8955386344e-01 1.0
S 1 1.0
  2.0226884069e-01 1.0
S 1 1.0
  1.0502445940e-01 1.0
S 1 1.0
  5.4532062547e-02 1.0
S 1 1.0
  2.8314793170e-02 1.0
S 1 1.0
  1.4701947346e-02 1.0
S 1 1.0
  7.6337218668e-03 1.0
P 1 1.0
  1.7917107054e+03 1.0
P 1 1.0
  9.6908403369e+02 1.0
P 1 1.0
  5.2414927339e+02 1.0
P 1 1.0
  2.8349704592e+02 1.0
P 1 1.0
  1.5333527894e+02 1.0
P 1 1.0
  8.2934577652e+01 1.0
P 1 1.0
  4.4856892802e+01 1.0
P 1 1.0
  2.4261784274e+01 1.0
P 1 1.0
  1.3122491091e+01 1.0
P 1 1.0
  7.0975724820e+00 1.0
P 1 1.0
  3.8388698296e+00 1.0
P 1 1.0
  2.0763326625e+00 1.0
P 1 1.0
  1.1230277443e+00 1.0
P 1 1.0
  6.0741293395e-01 1.0
P 1 1.0
  3.2853193006e-01 1.0
P 1 1.0
  1.7769333354e-01 1.0
P 1 1.0
  9.6109138551e-02 1.0
P 1 1.0
  5.1982628324e-02 1.0
P 1 1.0
  2.8115886670e-02 1.0
P 1 1.0
  1.5207062604e-02 1.0
P 1 1.0
  8.2250563802e-03 1.0
P 1 1.0
  4.4486929672e-03 1.0
P 1 1.0
  2.4061682013e-03 1.0
D 1 1.0
  7.1539173779e+01 1.0
D 1 1.0
  4.0331561774e+01 1.0
D 1 1.0
  2.2737680479e+01 1.0
D 1 1.0
  1.2818797260e+01 1.0
D 1 1.0
  7.2268393141e+00 1.0
D 1 1.0
  4.0742672976e+00 1.0
D 1 1.0
  2.2969452192e+00 1.0
D 1 1.0
  1.2949462945e+00 1.0
D 1 1.0
  7.3005045646e-01 1.0
D 1 1.0
  4.1157974753e-01 1.0
D 1 1.0
  2.3203586421e-01 1.0
D 1 1.0
  1.3081460543e-01 1.0
D 1 1.0
  7.3749207061e-02 1.0
D 1 1.0
  4.1577509820e-02 1.0
D 1 1.0
  2.3440107247e-02 1.0
D 1 1.0
  1.3214803631e-02 1.0
D 1 1.0
  7.4500953927e-03 1.0
D 1 1.0
  4.2001321329e-03 1.0
D 1 1.0
  2.3679038998e-03 1.0
D 1 1.0
  1.3349505923e-03 1.0
D 1 1.0
  7.5260363565e-04 1.0
F 1 1.0
  1.2050618108e+01 1.0
F 1 1.0
  7.1325092428e+00 1.0
F 1 1.0
  4.2215832950e+00 1.0
F 1 1.0
  2.4986670062e+00 1.0
F 1 1.0
  1.4789088291e+00 1.0
F 1 1.0
  8.7533525654e-01 1.0
F 1 1.0
  5.1809266146e-01 1.0
F 1 1.0
  3.0664822861e-01 1.0
F 1 1.0
  1.8149868374e-01 1.0
F 1 1.0
  1.0742528124e-01 1.0
F 1 1.0
  6.3582780940e-02 1.0
F 1 1.0
  3.7633320438e-02 1.0
F 1 1.0
  2.2274376589e-02 1.0
F 1 1.0
  1.3183738417e-02 1.0
F 1 1.0
  7.8031794942e-03 1.0
F 1 1.0
  4.6185390133e-03 1.0
F 1 1.0
  2.7336168075e-03 1.0
F 1 1.0
  1.6179707108e-03 1.0
F 1 1.0
  9.5764308071e-04 1.0
F 1 1.0
  5.6680894401e-04 1.0
F 1 1.0
  3.3548237907e-04 1.0
G 1 1.0
  3.2140956223e+00 1.0
G 1 1.0
  1.9568491258e+00 1.0
G 1 1.0
  1.1913953258e+00 1.0
G 1 1.0
  7.2536140043e-01 1.0
G 1 1.0
  4.4162432893e-01 1.0
G 1 1.0
  2.6887569118e-01 1.0
G 1 1.0
  1.6370053137e-01 1.0
G 1 1.0
  9.9666369436e-02 1.0
G 1 1.0
  6.0680225736e-02 1.0
G 1 1.0
  3.6944154947e-02 1.0
G 1 1.0
  2.2492839606e-02 1.0
G 1 1.0
  1.3694394533e-02 1.0
G 1 1.0
  8.3376063189e-03 1.0
G 1 1.0
  5.0762141372e-03 1.0
G 1 1.0
  3.0905692810e-03 1.0
G 1 1.0
  1.8816421496e-03 1.0
G 1 1.0
  1.1456067983e-03 1.0
G 1 1.0
  6.9748381046e-04 1.0
G 1 1.0
  4.2465151791e-04 1.0
G 1 1.0
  2.5854207505e-04 1.0
****
}

e_test = energy('hf')
compare_values(e_test, reference_energy, 8, "HF energy with auto Cholesky")                                        #TEST
--------------------------------------------------------------------------

Scratch directory: /home/work/scratch//

*** tstart() called on dx7-lehtola.chem.helsinki.fi
*** at Mon Feb 24 00:22:47 2020

   => Loading Basis Set <=

    Name: ANONYMOUS1FF35BA2
    Role: ORBITAL
    Keyword: BASIS
    atoms 1   entry C          line   151 inputblock complete 
    atoms 2-5 entry H          line     5 inputblock complete 


         ---------------------------------------------------------
                                   SCF
               by Justin Turney, Rob Parrish, Andy Simmonett
                          and Daniel G. A. Smith
                              RHF Reference
                        4 Threads,    500 MiB Core
         ---------------------------------------------------------

  ==> Geometry <==

    Molecular point group: c2v
    Full point group: Td

    Geometry (in Angstrom), charge = 0, multiplicity = 1:

       Center              X                  Y                   Z               Mass       
    ------------   -----------------  -----------------  -----------------  -----------------
         C           -0.000000000000     0.000000000000    -0.000000000000    12.000000000000
         H            0.887560431745     0.000000000000     0.627600000000     1.007825032230
         H            0.000000000000    -0.887560431745    -0.627600000000     1.007825032230
         H           -0.000000000000     0.887560431745    -0.627600000000     1.007825032230
         H           -0.887560431745    -0.000000000000     0.627600000000     1.007825032230

  Running in c2v symmetry.

  Rotational constants: A =      5.30830  B =      5.30830  C =      5.30830 [cm^-1]
  Rotational constants: A = 159138.84489  B = 159138.84489  C = 159138.84489 [MHz]
  Nuclear repulsion =   13.472034581017477

  Charge       = 0
  Multiplicity = 1
  Electrons    = 10
  Nalpha       = 5
  Nbeta        = 5

  ==> Algorithm <==

  SCF Algorithm Type is DF.
  DIIS enabled.
  MOM disabled.
  Fractional occupation disabled.
  Guess Type is SAD.
  Energy threshold   = 1.00e-06
  Density threshold  = 1.00e-06
  Integral threshold = 0.00e+00

  ==> Primary Basis <==

  Basis Set: ANONYMOUS1FF35BA2
    Blend: COMPLETE
    Number of shells: 404
    Number of basis function: 1540
    Number of Cartesian functions: 1972
    Spherical Harmonics?: true
    Max angular momentum: 4

   => Loading Basis Set <=

    Name: (ANONYMOUS1FF35BA2 AUX)
    Role: JKFIT
    Keyword: DF_BASIS_SCF
    atoms 1   entry C          line   198 file /home/work/psi4/install.susi/share/psi4/basis/def2-universal-jkfit.gbs 
    atoms 2-5 entry H          line    18 file /home/work/psi4/install.susi/share/psi4/basis/def2-universal-jkfit.gbs 

  ==> Pre-Iterations <==

   -------------------------------------------------------
    Irrep   Nso     Nmo     Nalpha   Nbeta   Ndocc  Nsocc
   -------------------------------------------------------
     A1       522     522       0       0       0       0
     A2       262     262       0       0       0       0
     B1       378     378       0       0       0       0
     B2       378     378       0       0       0       0
   -------------------------------------------------------
    Total    1540    1540       5       5       5       0
   -------------------------------------------------------

  ==> Integral Setup <==

  ==> DiskDFJK: Density-Fitted J/K Matrices <==

    J tasked:                  Yes
    K tasked:                  Yes
    wK tasked:                  No
    OpenMP threads:              4
    Integrals threads:           4
    Memory [MiB]:              375
    Algorithm:                Disk
    Integral Cache:           NONE
    Schwarz Cutoff:          1E-12
    Fitting Condition:       1E-10

   => Auxiliary Basis Set <=

  Basis Set: (ANONYMOUS1FF35BA2 AUX)
    Blend: DEF2-UNIVERSAL-JKFIT
    Number of shells: 49
    Number of basis function: 147
    Number of Cartesian functions: 169
    Spherical Harmonics?: true
    Max angular momentum: 4

  Minimum eigenvalue in the overlap matrix is 2.8324960773E-16.
  Reciprocal condition number of the overlap matrix is 1.1749750574E-17.
    Using partial Cholesky orthogonalization (doi:10.1063/1.5139948).
  Cholesky: irrep 0, 45 of 522 possible MOs eliminated.
  Cholesky: irrep 1, 35 of 262 possible MOs eliminated.
  Cholesky: irrep 2, 40 of 378 possible MOs eliminated.
  Cholesky: irrep 3, 40 of 378 possible MOs eliminated.
  Cholesky: overall, 160 of 1540 possible MOs eliminated.

    Proceeding with canonical orthogonalization in reduced basis.
  Minimum eigenvalue in the overlap matrix is 1.3946705009E-09.
  Reciprocal condition number of the overlap matrix is 7.9665371131E-11.
  Overall, 106 of 1380 possible MOs eliminated.

  SCF Guess: Superposition of Atomic Densities via on-the-fly atomic UHF.

  ==> Iterations <==

                           Total Energy        Delta E     RMS |[F,P]|

   @DF-RHF iter SAD:   -39.63383294719504   -3.96338e+01   0.00000e+00 
   @DF-RHF iter   1:   -40.14005292261817   -5.06220e-01   5.62745e-04 DIIS
   @DF-RHF iter   2:   -40.20466886770244   -6.46159e-02   2.35221e-04 DIIS
   @DF-RHF iter   3:   -40.21630982276879   -1.16410e-02   3.63632e-05 DIIS
   @DF-RHF iter   4:   -40.21706792122037   -7.58098e-04   4.48425e-06 DIIS
   @DF-RHF iter   5:   -40.21707882046714   -1.08992e-05   4.31008e-07 DIIS
   @DF-RHF iter   6:   -40.21707892827531   -1.07808e-07   3.85784e-08 DIIS
  Energy and wave function converged.


  ==> Post-Iterations <==

    Orbital Energies [Eh]
    ---------------------

    Doubly Occupied:                                                      

       1A1   -11.204645     2A1    -0.943431     3A1    -0.545494  
       1B1    -0.545494     1B2    -0.545494  

    Virtual:                                                              

       4A1     0.000350     5A1     0.000645     1A2     0.000647  
       6A1     0.000649     2B2     0.000650     2B1     0.000652  
       3B1     0.000763     3B2     0.000766     7A1     0.000770  
       4B1     0.000790     8A1     0.000796     4B2     0.000796  
       9A1     0.000798     5B1     0.000798     5B2     0.000801  
       2A2     0.000813     3A2     0.000845    10A1     0.000900  
       6B2     0.000913     6B1     0.000915     4A2     0.000918  
       7B2     0.000948    11A1     0.000948     7B1     0.000961  
      12A1     0.000965    13A1     0.001501     5A2     0.001710  
      14A1     0.001720     8B2     0.001724     8B1     0.001730  
      15A1     0.001757     6A2     0.001796     9B1     0.001825  
      16A1     0.001837     9B2     0.001840    10B1     0.001845  
      17A1     0.001851    10B2     0.001853     7A2     0.001884  
      18A1     0.001915    11B1     0.001924    11B2     0.001930  
       8A2     0.001939     9A2     0.001960    12B2     0.001977  
      12B1     0.001980    19A1     0.002010    13B2     0.002041  
      20A1     0.002044    13B1     0.002088    21A1     0.002114  
      14B1     0.002361    14B2     0.002365    15B1     0.002395  
      15B2     0.002415    22A1     0.002475    10A2     0.002873  
      16B1     0.002886    16B2     0.002887    23A1     0.002887  
      11A2     0.003104    24A1     0.003309    17B1     0.003330  
      25A1     0.003359    17B2     0.003361    26A1     0.003372  
      18B1     0.003373    18B2     0.003388    12A2     0.003410  
      27A1     0.003429    19B2     0.003451    13A2     0.003455  
      19B1     0.003469    28A1     0.003493    20B2     0.003542  
      29A1     0.003583    20B1     0.003592    14A2     0.003652  
      21B2     0.003776    30A1     0.003782    31A1     0.003797  
      21B1     0.003806    32A1     0.003926    15A2     0.004305  
      22B1     0.004310    22B2     0.004319    33A1     0.004462  
      16A2     0.004816    23B1     0.005196    23B2     0.005227  
      34A1     0.005358    24B2     0.005415    24B1     0.005428  
      17A2     0.005429    35A1     0.005433    25B1     0.005470  
      36A1     0.005529    25B2     0.005529    37A1     0.005543  
      26B1     0.005544    26B2     0.005585    18A2     0.005694  
      19A2     0.005792    38A1     0.005837    27B2     0.005848  
      27B1     0.005877    39A1     0.005950    28B2     0.005964  
      40A1     0.006008    28B1     0.006026    29B2     0.006130  
      29B1     0.006158    41A1     0.006496    20A2     0.006779  
      21A2     0.007063    30B1     0.007110    42A1     0.007140  
      30B2     0.007149    43A1     0.007376    44A1     0.007881  
      31B2     0.008100    31B1     0.008110    22A2     0.008126  
      32B2     0.008211    45A1     0.008222    46A1     0.008239  
      23A2     0.008241    32B1     0.008260    33B1     0.008449  
      33B2     0.008518    47A1     0.008519    24A2     0.008570  
      48A1     0.008596    34B1     0.008596    34B2     0.008664  
      25A2     0.008877    35B2     0.008989    35B1     0.009034  
      26A2     0.009103    49A1     0.009210    36B1     0.009631  
      50A1     0.009657    36B2     0.009700    51A1     0.009711  
      37B2     0.009865    37B1     0.009882    52A1     0.010125  
      27A2     0.010599    38B2     0.010639    38B1     0.010746  
      53A1     0.010787    54A1     0.011091    28A2     0.011363  
      39B1     0.012324    39B2     0.012394    40B1     0.012607  
      40B2     0.012725    55A1     0.012739    41B1     0.012853  
      56A1     0.012862    29A2     0.012867    41B2     0.012906  
      42B1     0.012929    57A1     0.012933    42B2     0.013083  
      30A2     0.013308    58A1     0.013561    59A1     0.013626  
      43B2     0.013644    43B1     0.013736    31A2     0.014124  
      60A1     0.014132    44B2     0.014298    44B1     0.014351  
      32A2     0.014437    33A2     0.014448    45B2     0.014467  
      45B1     0.014587    61A1     0.014652    62A1     0.015091  
      34A2     0.015144    63A1     0.015639    64A1     0.015763  
      46B1     0.016093    46B2     0.016242    47B1     0.016386  
      47B2     0.016506    65A1     0.016746    66A1     0.016911  
      67A1     0.018210    48B2     0.018393    68A1     0.018462  
      48B1     0.018473    35A2     0.018540    49B2     0.018625  
      49B1     0.018653    36A2     0.019007    69A1     0.019032  
      50B1     0.019106    50B2     0.019292    37A2     0.019797  
      70A1     0.020285    51B1     0.020321    51B2     0.020666  
      38A2     0.020696    71A1     0.021168    52B1     0.022275  
      72A1     0.022689    52B2     0.023015    53B1     0.023037  
      54B1     0.023238    53B2     0.023296    73A1     0.023483  
      74A1     0.023638    54B2     0.023656    55B1     0.023681  
      39A2     0.023951    75A1     0.024482    40A2     0.024686  
      56B1     0.024812    55B2     0.024831    41A2     0.024960  
      57B1     0.025020    42A2     0.025043    76A1     0.025171  
      77A1     0.025451    43A2     0.025633    78A1     0.025761  
      56B2     0.025812    79A1     0.026134    58B1     0.026138  
      57B2     0.026310    58B2     0.026534    59B1     0.026716  
      59B2     0.026806    60B1     0.027168    80A1     0.027536  
      81A1     0.027641    82A1     0.027826    83A1     0.027905  
      61B1     0.028052    60B2     0.028174    44A2     0.028612  
      62B1     0.029599    45A2     0.029869    61B2     0.030168  
      84A1     0.030340    85A1     0.030978    62B2     0.032500  
      46A2     0.032597    47A2     0.032808    63B1     0.032844  
      86A1     0.032896    63B2     0.033864    87A1     0.036677  
      88A1     0.037309    64B1     0.037490    89A1     0.038559  
      65B1     0.038805    64B2     0.039040    90A1     0.039253  
      48A2     0.039511    65B2     0.039791    66B1     0.039829  
      49A2     0.039918    91A1     0.040107    92A1     0.040347  
      67B1     0.040351    66B2     0.040487    67B2     0.040968  
      68B1     0.041096    50A2     0.041322    68B2     0.041990  
      51A2     0.042304    93A1     0.042402    69B2     0.042404  
      69B1     0.042517    52A2     0.042611    94A1     0.042810  
      70B1     0.042828    71B1     0.043113    95A1     0.043166  
      70B2     0.043173    71B2     0.043663    96A1     0.044081  
      53A2     0.045095    72B1     0.045168    72B2     0.045891  
      97A1     0.046104    98A1     0.048193    99A1     0.048427  
      73B2     0.049571    73B1     0.049913   100A1     0.050219  
      54A2     0.051384    55A2     0.052407    74B1     0.052732  
      74B2     0.055844   101A1     0.056071    75B1     0.056581  
     102A1     0.056961   103A1     0.057625    76B1     0.057735  
      56A2     0.058478    75B2     0.058664    77B1     0.058720  
      76B2     0.058985   104A1     0.058997    57A2     0.059164  
     105A1     0.059563   106A1     0.061459    78B1     0.061716  
      77B2     0.064017    79B1     0.064671    58A2     0.065075  
     107A1     0.066714    78B2     0.066895    79B2     0.069204  
     108A1     0.069682    80B1     0.069699    59A2     0.069868  
      81B1     0.070556    80B2     0.070746    60A2     0.070948  
      81B2     0.071107   109A1     0.071238    61A2     0.071666  
      82B2     0.071700    82B1     0.071718   110A1     0.071894  
      62A2     0.072044    83B1     0.072061   111A1     0.072196  
      83B2     0.072243   112A1     0.072600    84B1     0.072835  
      84B2     0.073896   113A1     0.074186    85B1     0.075909  
      85B2     0.076048    63A2     0.076925    86B1     0.076984  
     114A1     0.077203   115A1     0.078388    64A2     0.079883  
     116A1     0.080267   117A1     0.082372    87B1     0.083553  
      65A2     0.083625    86B2     0.084127   118A1     0.085996  
     119A1     0.089561    87B2     0.089722    88B1     0.090494  
      89B1     0.095120    66A2     0.096229   120A1     0.099411  
     121A1     0.099665    88B2     0.100384   122A1     0.102061  
      89B2     0.102153    90B1     0.102357    67A2     0.103502  
     123A1     0.105849    91B1     0.106468    90B2     0.106484  
      91B2     0.107462   124A1     0.108101    92B1     0.109825  
      68A2     0.110198    93B1     0.111991   125A1     0.113598  
      92B2     0.114798    69A2     0.114838   126A1     0.115754  
      94B1     0.116127    93B2     0.116996    70A2     0.117174  
      94B2     0.117852    95B1     0.118593    96B1     0.120513  
      97B1     0.120621   127A1     0.120649    95B2     0.120803  
      96B2     0.121054    71A2     0.121058   128A1     0.121140  
     129A1     0.121341    98B1     0.122014    97B2     0.122154  
      72A2     0.122423   130A1     0.123420   131A1     0.123912  
      99B1     0.124900    98B2     0.125374    73A2     0.126168  
     132A1     0.126622    74A2     0.129080    75A2     0.131279  
     100B1     0.131719    99B2     0.132241   133A1     0.132473  
     134A1     0.132764   135A1     0.135362   101B1     0.138628  
      76A2     0.140437   100B2     0.141966   136A1     0.142472  
     102B1     0.143827   137A1     0.147547   101B2     0.149667  
     102B2     0.157362   103B1     0.162899   103B2     0.166040  
      77A2     0.167952   138A1     0.168136   139A1     0.169748  
     140A1     0.170315   104B1     0.171629    78A2     0.172610  
     104B2     0.173765   105B1     0.174144   105B2     0.175234  
      79A2     0.175650   141A1     0.176382   106B1     0.176506  
     142A1     0.177095   143A1     0.181581   144A1     0.182651  
     106B2     0.183541   107B1     0.187321    80A2     0.192424  
     108B1     0.194841    81A2     0.195968   107B2     0.199700  
     109B1     0.202329   108B2     0.202432    82A2     0.203046  
     145A1     0.203309   110B1     0.203643   109B2     0.203801  
     146A1     0.203868   111B1     0.204034   147A1     0.204469  
     148A1     0.205593   112B1     0.206946   110B2     0.209949  
     113B1     0.210407   149A1     0.211366   111B2     0.211766  
      83A2     0.212722   150A1     0.214278   112B2     0.216444  
      84A2     0.217580   151A1     0.217945   152A1     0.219974  
      85A2     0.221910   113B2     0.224901   114B1     0.226646  
     153A1     0.229156    86A2     0.232858   115B1     0.234530  
     114B2     0.234915    87A2     0.236276   115B2     0.236729  
     116B1     0.237191   154A1     0.237664    88A2     0.247199  
     116B2     0.250146   155A1     0.251910   156A1     0.258806  
      89A2     0.259368   117B1     0.260435   118B1     0.262856  
     157A1     0.263533   117B2     0.264885   158A1     0.267976  
     119B1     0.276958   118B2     0.291109    90A2     0.295693  
     159A1     0.296825   119B2     0.297213   120B1     0.297360  
     160A1     0.297796   161A1     0.300923    91A2     0.301494  
     120B2     0.304338   121B1     0.306566   162A1     0.307835  
     121B2     0.318632    92A2     0.324697   163A1     0.324909  
     122B1     0.326557    93A2     0.330215   123B1     0.335596  
     122B2     0.336468   164A1     0.337596   124B1     0.338056  
     123B2     0.339504   165A1     0.340013   166A1     0.342956  
     125B1     0.343052   124B2     0.344852   167A1     0.346296  
      94A2     0.352756   125B2     0.354457   168A1     0.355592  
     126B1     0.356520   126B2     0.360855   169A1     0.361879  
     127B1     0.362034    95A2     0.363462   170A1     0.366390  
     127B2     0.367252    96A2     0.370344   128B1     0.371691  
     128B2     0.372297    97A2     0.374151   129B1     0.374510  
      98A2     0.376955   129B2     0.377432   171A1     0.377464  
     130B1     0.382036    99A2     0.386765   172A1     0.387304  
     173A1     0.389215   130B2     0.391962   131B1     0.393399  
     174A1     0.397765   132B1     0.402476   175A1     0.404365  
     131B2     0.421134   100A2     0.424739   176A1     0.427262  
     177A1     0.432255   132B2     0.440364   133B1     0.451134  
     133B2     0.456194   178A1     0.463468   134B1     0.466539  
     179A1     0.472754   101A2     0.475265   134B2     0.481480  
     135B1     0.483422   180A1     0.495075   181A1     0.496567  
     136B1     0.501444   135B2     0.504022   182A1     0.507874  
     102A2     0.512636   103A2     0.518772   104A2     0.522307  
     183A1     0.523716   136B2     0.525319   137B1     0.528824  
     137B2     0.543060   138B1     0.543539   184A1     0.544077  
     105A2     0.545082   139B1     0.546257   140B1     0.553316  
     138B2     0.553442   185A1     0.553857   139B2     0.555816  
     186A1     0.557092   141B1     0.559799   187A1     0.563249  
     140B2     0.564636   106A2     0.579236   142B1     0.579523  
     141B2     0.580227   142B2     0.588703   188A1     0.591191  
     189A1     0.592502   143B1     0.598589   107A2     0.604010  
     108A2     0.609203   143B2     0.610032   190A1     0.610178  
     144B1     0.613142   191A1     0.614072   144B2     0.615451  
     109A2     0.619205   145B2     0.619327   145B1     0.620014  
     192A1     0.621185   146B1     0.624307   146B2     0.626126  
     193A1     0.628741   147B1     0.629138   110A2     0.629585  
     111A2     0.631568   194A1     0.634719   112A2     0.637579  
     195A1     0.643635   147B2     0.656017   148B1     0.659058  
     196A1     0.670238   113A2     0.707994   148B2     0.730563  
     197A1     0.737942   149B1     0.739408   198A1     0.749422  
     150B1     0.757806   199A1     0.761503   149B2     0.769208  
     114A2     0.782317   151B1     0.796488   150B2     0.798241  
     200A1     0.801117   151B2     0.802853   115A2     0.806413  
     152B1     0.806422   116A2     0.834211   201A1     0.836864  
     153B1     0.846337   202A1     0.847664   152B2     0.850390  
     153B2     0.852848   154B1     0.856936   203A1     0.872882  
     204A1     0.881204   154B2     0.884156   155B1     0.887368  
     117A2     0.888151   205A1     0.896006   118A2     0.900539  
     206A1     0.903217   155B2     0.905651   156B1     0.906156  
     207A1     0.906712   156B2     0.917120   208A1     0.918796  
     157B1     0.919733   157B2     0.927875   158B1     0.932483  
     119A2     0.947461   209A1     0.955310   210A1     0.961374  
     159B1     0.965255   158B2     0.968337   211A1     0.978385  
     120A2     1.004743   160B1     1.006430   159B2     1.007022  
     121A2     1.010603   212A1     1.013472   161B1     1.018098  
     160B2     1.022881   213A1     1.027916   214A1     1.031099  
     162B1     1.031776   161B2     1.033533   162B2     1.036972  
     163B1     1.037788   122A2     1.044185   123A2     1.052340  
     215A1     1.053954   124A2     1.055850   216A1     1.056036  
     163B2     1.058647   164B1     1.058806   164B2     1.068149  
     165B1     1.073691   125A2     1.075868   217A1     1.081588  
     218A1     1.093534   165B2     1.110412   126A2     1.112714  
     166B1     1.118087   166B2     1.129637   167B1     1.132179  
     219A1     1.168087   127A2     1.178519   168B1     1.262467  
     220A1     1.263097   167B2     1.264068   221A1     1.285757  
     168B2     1.292570   222A1     1.293372   169B1     1.301692  
     128A2     1.309366   223A1     1.319328   224A1     1.344296  
     169B2     1.351572   129A2     1.358184   170B1     1.362163  
     170B2     1.364376   171B1     1.366136   171B2     1.368026  
     172B1     1.373080   225A1     1.393583   130A2     1.394675  
     226A1     1.411188   131A2     1.415903   227A1     1.423250  
     228A1     1.442790   132A2     1.446057   173B1     1.446682  
     172B2     1.449815   229A1     1.479907   174B1     1.500891  
     173B2     1.504090   174B2     1.511251   175B1     1.511765  
     230A1     1.520090   175B2     1.536366   133A2     1.537573  
     176B1     1.552566   231A1     1.559037   232A1     1.623807  
     233A1     1.624818   177B1     1.630897   176B2     1.634417  
     134A2     1.644590   178B1     1.646762   177B2     1.647145  
     234A1     1.671882   235A1     1.691301   179B1     1.698130  
     135A2     1.703971   178B2     1.704540   236A1     1.729954  
     180B1     1.730648   179B2     1.737301   237A1     1.773460  
     136A2     1.776668   180B2     1.776973   181B1     1.778566  
     137A2     1.778705   238A1     1.795509   182B1     1.803478  
     181B2     1.806143   239A1     1.808007   138A2     1.810373  
     240A1     1.818239   139A2     1.843738   182B2     1.869968  
     140A2     1.875827   183B1     1.876673   183B2     1.909066  
     241A1     1.911590   184B1     1.935667   141A2     1.938961  
     184B2     1.944141   185B1     1.944660   242A1     1.955981  
     185B2     1.961248   243A1     1.964413   186B1     1.975907  
     244A1     2.018909   142A2     2.024193   187B1     2.029407  
     245A1     2.033604   186B2     2.067754   246A1     2.137732  
     187B2     2.158213   188B1     2.168025   247A1     2.169438  
     188B2     2.197668   189B1     2.197824   248A1     2.214804  
     143A2     2.238499   249A1     2.283682   144A2     2.290014  
     190B1     2.359442   189B2     2.362138   250A1     2.363752  
     190B2     2.367705   191B1     2.373892   145A2     2.374297  
     191B2     2.417905   251A1     2.423374   192B1     2.442129  
     252A1     2.473800   192B2     2.481770   253A1     2.486492  
     193B1     2.486641   146A2     2.493849   254A1     2.495953  
     194B1     2.547630   193B2     2.547815   255A1     2.549892  
     147A2     2.553068   194B2     2.568749   195B1     2.569375  
     256A1     2.645474   195B2     2.652124   148A2     2.652265  
     196B1     2.653617   197B1     2.662511   196B2     2.671682  
     257A1     2.717841   149A2     2.731861   198B1     2.775971  
     197B2     2.779814   258A1     2.783993   259A1     2.830307  
     260A1     2.854650   150A2     2.864851   198B2     2.907627  
     261A1     2.908449   199B1     2.915942   262A1     2.933458  
     151A2     2.950591   199B2     2.961051   200B1     2.965857  
     152A2     2.988202   200B2     3.023030   201B1     3.025613  
     263A1     3.031000   153A2     3.058655   154A2     3.086280  
     201B2     3.088167   202B1     3.088866   264A1     3.125828  
     265A1     3.130994   203B1     3.136584   202B2     3.137703  
     155A2     3.228597   266A1     3.228984   204B1     3.232387  
     203B2     3.232794   156A2     3.238621   267A1     3.281782  
     268A1     3.298837   205B1     3.322146   204B2     3.344533  
     269A1     3.403313   270A1     3.435495   206B1     3.451875  
     205B2     3.467666   206B2     3.499533   207B1     3.502270  
     271A1     3.530094   157A2     3.536750   158A2     3.546109  
     272A1     3.559331   208B1     3.578729   207B2     3.579184  
     273A1     3.666613   208B2     3.857878   274A1     3.858284  
     275A1     3.864512   209B1     3.864961   159A2     3.876816  
     276A1     3.930698   277A1     3.978341   210B1     3.989037  
     209B2     3.993402   210B2     3.996620   211B1     4.003433  
     160A2     4.006062   278A1     4.131123   161A2     4.139929  
     279A1     4.182408   211B2     4.184368   212B1     4.190829  
     212B2     4.214726   162A2     4.215005   213B1     4.219888  
     214B1     4.305816   213B2     4.306355   163A2     4.306532  
     280A1     4.349717   214B2     4.350198   215B1     4.355370  
     281A1     4.381694   216B1     4.396836   215B2     4.406031  
     217B1     4.436773   216B2     4.436873   164A2     4.442431  
     282A1     4.548743   217B2     4.555458   218B1     4.573792  
     283A1     4.743547   284A1     4.754238   165A2     4.766320  
     285A1     4.844562   166A2     4.846478   286A1     4.999673  
     218B2     5.011171   287A1     5.018926   219B1     5.021590  
     288A1     5.109097   289A1     5.124093   220B1     5.127274  
     167A2     5.128150   219B2     5.157009   220B2     5.177267  
     221B1     5.183047   168A2     5.202834   290A1     5.220792  
     291A1     5.305190   222B1     5.307323   221B2     5.313917  
     292A1     5.905680   293A1     6.055548   223B1     6.059032  
     222B2     6.066049   294A1     6.131598   295A1     6.171902  
     169A2     6.191576   223B2     6.253735   224B1     6.256070  
     296A1     6.256604   224B2     6.348359   225B1     6.348667  
     170A2     6.353375   297A1     6.353532   225B2     6.357731  
     226B1     6.363347   227B1     6.603741   171A2     6.604383  
     226B2     6.604633   298A1     6.733134   299A1     6.862511  
     172A2     6.869461   227B2     7.021321   228B1     7.025672  
     300A1     7.033825   228B2     7.174341   229B1     7.176887  
     173A2     7.177302   301A1     7.212717   230B1     7.238667  
     229B2     7.241792   302A1     7.440373   230B2     7.455760  
     231B1     7.462406   303A1     7.477533   174A2     7.478156  
     231B2     7.514905   232B1     7.516191   175A2     7.519040  
     304A1     7.597817   232B2     7.611597   233B1     7.621568  
     305A1     7.822941   176A2     7.836281   306A1     7.874791  
     233B2     8.063840   307A1     8.071403   234B1     8.072431  
     308A1     8.176147   177A2     8.187604   309A1     8.201545  
     235B1     8.204185   234B2     8.204207   235B2     8.367368  
     310A1     8.370499   236B1     8.379641   178A2     8.388748  
     311A1     9.266938   312A1     9.448876   237B1     9.475873  
     236B2     9.514145   313A1     9.620763   238B1     9.628574  
     237B2     9.631346   314A1     9.659212   315A1     9.887536  
     179A2     9.898066   238B2     9.945279   239B1     9.946155  
     180A2     9.949082   316A1    10.234662   240B1    10.239361  
     239B2    10.253784   240B2    10.356251   241B1    10.357736  
     317A1    10.360901   318A1    10.414506   241B2    10.775467  
     242B1    10.775572   181A2    10.780193   319A1    10.850074  
     320A1    11.911803   182A2    11.925591   242B2    12.000781  
     243B1    12.001819   321A1    12.014379   322A1    12.526772  
     243B2    12.553089   244B1    12.553353   183A2    12.553576  
     323A1    12.576168   244B2    12.579498   245B1    12.584630  
     324A1    12.948574   245B2    12.962383   246B1    12.964587  
     325A1    13.141454   184A2    13.146353   246B2    13.615867  
     247B1    13.623625   185A2    13.625084   326A1    13.685390  
     247B2    13.695381   248B1    13.696682   248B2    13.706615  
     249B1    13.707748   186A2    13.709889   327A1    13.908787  
     249B2    13.911879   250B1    13.930441   328A1    13.941614  
     187A2    13.960964   329A1    14.156775   188A2    14.157571  
     330A1    14.437329   251B1    14.443680   250B2    14.450315  
     331A1    14.568834   332A1    16.319301   333A1    16.347891  
     189A2    16.352318   251B2    16.393358   334A1    16.396267  
     252B1    16.397176   252B2    16.423591   253B1    16.426073  
     190A2    16.430612   335A1    16.543465   336A1    16.644351  
     254B1    16.658806   253B2    16.684040   254B2    17.165691  
     337A1    17.166042   255B1    17.166387   255B2    17.476843  
     256B1    17.478178   191A2    17.484495   338A1    17.585939  
     339A1    18.016915   257B1    18.030205   256B2    18.052449  
     340A1    18.920014   341A1    21.660535   192A2    21.668158  
     257B2    21.677907   258B1    21.682259   342A1    21.690816  
     258B2    21.955299   259B1    21.955417   193A2    21.955645  
     343A1    22.214795   259B2    22.220224   260B1    22.223530  
     344A1    22.707512   194A2    22.717390   345A1    22.824819  
     346A1    23.095233   261B1    23.105577   260B2    23.126837  
     347A1    27.992541   195A2    27.998644   261B2    28.079917  
     262B1    28.082111   196A2    28.086072   348A1    28.110573  
     263B1    28.144851   349A1    28.146946   262B2    28.147818  
     263B2    29.034347   264B1    29.034952   350A1    29.038561  
     265B1    29.180869   264B2    29.180889   197A2    29.185018  
     351A1    29.446680   352A1    31.023585   266B1    31.047753  
     265B2    31.082003   353A1    31.523680   354A1    31.586923  
     267B1    31.593135   266B2    31.605208   355A1    33.746689  
     268B1    39.467686   267B2    39.470097   356A1    39.473265  
     357A1    39.591137   198A2    39.607152   268B2    39.933172  
     358A1    39.936243   269B1    39.938598   269B2    39.950962  
     199A2    39.951243   270B1    39.952596   359A1    39.982194  
     200A2    39.982249   360A1    40.885910   271B1    40.905545  
     270B2    40.919632   361A1    40.954949   271B2    50.304948  
     272B1    50.306780   362A1    50.310562   273B1    50.412024  
     272B2    50.412120   201A2    50.415371   363A1    50.753038  
     364A1    57.954619   274B1    57.962007   273B2    57.973013  
     365A1    59.940911   275B1    59.961861   274B2    59.989471  
     366A1    60.098483   367A1    66.343325   368A1    71.421285  
     202A2    71.429795   369A1    71.658318   276B1    71.658382  
     275B2    71.676025   370A1    74.044741   203A2    74.050949  
     276B2    74.105631   277B1    74.113106   371A1    74.114351  
     277B2    74.320442   204A2    74.320857   278B1    74.320864  
     372A1    74.708781   279B1    74.726780   278B2    74.727051  
     373A1    75.135328   279B2    91.005688   280B1    91.007182  
     374A1    91.010461   281B1    91.093419   280B2    91.093530  
     205A2    91.096235   375A1    91.408722   376A1   108.968958  
     282B1   108.973057   281B2   108.980302   377A1   115.614140  
     283B1   115.637259   282B2   115.667692   378A1   115.795206  
     379A1   129.529084   206A2   129.536188   380A1   129.751696  
     284B1   129.753303   283B2   129.770143   381A1   132.774898  
     382A1   141.811700   207A2   141.818174   284B2   141.863360  
     285B1   141.870286   383A1   141.872944   285B2   142.084657  
     286B1   142.084983   208A2   142.085038   384A1   142.442290  
     287B1   142.458921   286B2   142.458936   385A1   142.829658  
     386A1   205.488740   288B1   205.492226   287B2   205.498781  
     387A1   224.050049   289B1   224.072900   288B2   224.103475  
     388A1   224.223434   389A1   240.198596   209A2   240.204967  
     390A1   240.398370   290B1   240.400077   289B2   240.415405  
     391A1   265.701043   392A1   285.962248   210A2   285.968316  
     290B2   286.010562   291B1   286.017136   393A1   286.019787  
     291B2   286.221843   292B1   286.222100   211A2   286.222180  
     394A1   286.552364   293B1   286.567924   292B2   286.568171  
     395A1   286.887445   396A1   387.497212   294B1   387.500397  
     293B2   387.506597   397A1   434.728071   295B1   434.750418  
     294B2   434.780737   398A1   434.892774   399A1   463.581579  
     212A2   463.587248   400A1   463.759379   296B1   463.760959  
     295B2   463.774582   401A1   528.642009   402A1   730.477226  
     297B1   730.480172   296B2   730.485997   403A1   843.457455  
     298B1   843.479632   297B2   843.509723   404A1   843.611618  
     405A1  1045.319134   406A1  1379.155118   299B1  1379.157856  
     298B2  1379.163290   407A1  1635.670240   300B1  1635.692000  
     299B2  1635.721603   408A1  1635.817610   409A1  2055.289181  
     410A1  2617.610506   301B1  2617.613057   300B2  2617.618142  
     411A1  3170.402427   302B1  3170.423714   301B2  3170.452757  
     412A1  3170.544651   413A1  4021.622995   414A1  5059.406221  
     303B1  5059.408598   302B2  5059.413349   415A1  6143.767679  
     304B1  6143.788480   303B2  6143.816931   416A1  6143.905675  
     417A1  7838.600738   418A1  10253.592515   305B1  10253.594713  
     304B2  10253.599114   419A1  11910.192555   306B1  11910.212872  
     305B2  11910.240721   420A1  11910.326864   421A1  15232.068585  
     422A1  23122.377997   307B1  23122.397838   306B2  23122.425084  
     423A1  23122.508947   424A1  29531.665334   425A1  45058.571283  
     308B1  45058.590655   307B2  45058.617297   426A1  45058.699057  
     427A1  57160.876641   428A1  88556.662635   309B1  88556.681542  
     308B2  88556.707573   429A1  88556.787321   430A1  110519.622660  
     431A1  177662.296690   310B1  177662.315129   309B2  177662.340532  
     432A1  177662.418277   433A1  213575.988753   434A1  377351.715567  
     311B1  377351.733504   310B2  377351.758225   435A1  377351.833841  
     436A1  412826.053498   437A1  799071.317902   438A1  1552501.474077  
     439A1  3042189.492136   440A1  6085369.585514   441A1  12886998.492619  

    Final Occupation by Irrep:
             A1    A2    B1    B2 
    DOCC [     3,    0,    1,    1 ]

  @DF-RHF Final Energy:   -40.21707892827531

   => Energetics <=

    Nuclear Repulsion Energy =             13.4720345810174766
    One-Electron Energy =                 -79.8091155458470496
    Two-Electron Energy =                  26.1200020365542507
    Total Energy =                        -40.2170789282753134

Computation Completed


Properties will be evaluated at   0.000000,   0.000000,   0.000000 [a0]

Properties computed using the SCF density matrix

  Nuclear Dipole Moment: [e a0]
     X:     0.0000      Y:    -0.0000      Z:     0.0000

  Electronic Dipole Moment: [e a0]
     X:     0.0000      Y:     0.0000      Z:     0.0000

  Dipole Moment: [e a0]
     X:     0.0000      Y:    -0.0000      Z:     0.0000     Total:     0.0000

  Dipole Moment: [D]
     X:     0.0000      Y:    -0.0000      Z:     0.0000     Total:     0.0000


*** tstop() called on dx7-lehtola.chem.helsinki.fi at Mon Feb 24 00:23:12 2020
Module time:
	user time   =      62.20 seconds =       1.04 minutes
	system time =       4.17 seconds =       0.07 minutes
	total time  =         25 seconds =       0.42 minutes
Total time:
	user time   =      62.20 seconds =       1.04 minutes
	system time =       4.17 seconds =       0.07 minutes
	total time  =         25 seconds =       0.42 minutes
    HF energy with auto Cholesky......................................PASSED

    Psi4 stopped on: Monday, 24 February 2020 12:23AM
    Psi4 wall time for execution: 0:00:24.92

*** Psi4 exiting successfully. Buy a developer a beer!
