    -----------------------------------------------------------------------
          PSI4: An Open-Source Ab Initio Electronic Structure Package
                              PSI 4.0.0-beta2+ Driver

               Git: Rev 388170906a4d5c5826725fba82c1a21f40b6511c

    J. M. Turney, A. C. Simmonett, R. M. Parrish, E. G. Hohenstein,
    F. A. Evangelista, J. T. Fermann, B. J. Mintz, L. A. Burns, J. J. Wilke,
    M. L. Abrams, N. J. Russ, M. L. Leininger, C. L. Janssen, E. T. Seidl,
    W. D. Allen, H. F. Schaefer, R. A. King, E. F. Valeev, C. D. Sherrill,
    and T. D. Crawford, WIREs Comput. Mol. Sci., (2011) (doi: 10.1002/wcms.93)

                         Additional Contributions by
    A. E. DePrince, M. Saitow, U. Bozkaya, A. Yu. Sokolov
    -----------------------------------------------------------------------

    Process ID:   2629
    PSI4DATADIR: /home/ugur/psi4/lib

    Using LocalCommunicator (Number of processes = 1)

    Memory level set to 256.000 MB

  ==> Input File <==

--------------------------------------------------------------------------
#! SCS-OMP3 cc-pVDZ geometry optimization for the H2O molecule.

refnuc      =  9.11871568396669 #TEST
refscf      = -76.02615852683365 #TEST
refscsomp3  = -76.22962586987757 #TEST

memory 250 mb

molecule h2o { 
0 1
o
h 1 0.958
h 1 0.958 2 104.4776 
}

set globals {
    basis cc-pvdz
}

thisenergy = optimize('scs-omp3')

compare_values(refnuc, get_variable("NUCLEAR REPULSION ENERGY"), 6, "Nuclear Repulsion Energy (a.u.)"); #TEST
compare_values(refscf, get_variable("SCF TOTAL ENERGY"), 6, "SCF Energy (a.u.)");             #TEST
compare_values(refscsomp3, thisenergy, 6, "SCS-OMP3 Total Energy (a.u.)");                #TEST

--------------------------------------------------------------------------

  Memory set to 250.000 MiB by Python script.

-------------------------------------------------------------

  Using finite-differences of energies to determine gradients (fd_geoms_1_0).
	Generating geometries for use with 3-point formula.
	Displacement size will be 5.00e-03.
	Number of atoms is 3.
	Number of symmetric SALC's is 2.
	Number of displacements (including reference) is 5.

-------------------------------------------------------------

  //>>>>>>>>>>>>>>>>>>>>>>>>>>>>>>>>>>>//
  //    Loading displacement 1 of 5    //
  //<<<<<<<<<<<<<<<<<<<<<<<<<<<<<<<<<<<//

*** tstart() called on ugur
*** at Fri Oct  5 11:27:03 2012


         ---------------------------------------------------------
                                   SCF
            by Justin Turney, Rob Parrish, and Andy Simmonett
                              RHF Reference
                        2 Threads,    250 MiB Core
         ---------------------------------------------------------

  ==> Geometry <==

    Molecular point group: c2v
    Full point group: C2v

    Geometry (in Angstrom), charge = 0, multiplicity = 1:

       Center              X                  Y                   Z       
    ------------   -----------------  -----------------  -----------------
           O          0.000000000000     0.000000000000    -0.065876429814
           H          0.000000000000    -0.757365949175     0.522753373248
           H          0.000000000000     0.757365949175     0.522753373248

  Running in c2v symmetry.

  Nuclear repulsion =    9.176216528241575

  Charge       = 0
  Multiplicity = 1
  Electrons    = 10
  Nalpha       = 5
  Nbeta        = 5

  ==> Algorithm <==

  SCF Algorithm Type is PK.
  DIIS enabled.
  MOM disabled.
  Fractional occupation disabled.
  Guess Type is CORE.
  Energy threshold   = 1.00e-08
  Density threshold  = 1.00e-08
  Integral threshold = 0.00e+00

  ==> Primary Basis <==

  Basis Set: CC-PVDZ
    Number of shells: 12
    Number of basis function: 24
    Number of Cartesian functions: 25
    Spherical Harmonics?: true
    Max angular momentum: 2

  ==> Pre-Iterations <==

   -------------------------------------------------------
    Irrep   Nso     Nmo     Nalpha   Nbeta   Ndocc  Nsocc
   -------------------------------------------------------
     A1        11      11       0       0       0       0
     A2         2       2       0       0       0       0
     B1         4       4       0       0       0       0
     B2         7       7       0       0       0       0
   -------------------------------------------------------
    Total      24      24       5       5       5       0
   -------------------------------------------------------

  ==> Integral Setup <==

 MINTS: Wrapper to libmints.
   by Justin Turney

   Calculation information:
      Number of atoms:                   3
      Number of AO shells:              12
      Number of SO shells:               9
      Number of primitives:             32
      Number of atomic orbitals:        25
      Number of basis functions:        24

      Number of irreps:                  4
      Number of functions per irrep: [  11    2    4    7 ]

      Overlap, kinetic, potential, dipole, and quadrupole integrals
        stored in file 35.

      Computing two-electron integrals...done
      Computed 11412 non-zero two-electron integrals.
        Stored in file 33.

  Minimum eigenvalue in the overlap matrix is 3.4290529808E-02.
  Using Symmetric Orthogonalization.
  SCF Guess: Core (One-Electron) Hamiltonian.

  Initial RHF energy:   -58.56673721379703

  ==> Iterations <==

                        Total Energy        Delta E     Density RMS

   @RHF iter   1:   -68.87530042671622   -1.03086e+01   0.00000e+00 
	Occupation by irrep:
	         A1    A2    B1    B2 
	DOCC [     3,    0,    0,    2 ]

   @RHF iter   2:   -69.94446686337676   -1.06917e+00   5.54912e-01 DIIS
	Occupation by irrep:
	         A1    A2    B1    B2 
	DOCC [     3,    0,    1,    1 ]

   @RHF iter   3:   -75.73783639818231   -5.79337e+00   5.22483e-01 DIIS
   @RHF iter   4:   -76.00168054818428   -2.63844e-01   1.78143e-02 DIIS
   @RHF iter   5:   -76.02641418178970   -2.47336e-02   8.30677e-03 DIIS
   @RHF iter   6:   -76.02665824391690   -2.44062e-04   1.30305e-03 DIIS
   @RHF iter   7:   -76.02669886242924   -4.06185e-05   4.59947e-04 DIIS
   @RHF iter   8:   -76.02670047165802   -1.60923e-06   1.02744e-04 DIIS
   @RHF iter   9:   -76.02670056103463   -8.93766e-08   1.72842e-05 DIIS
   @RHF iter  10:   -76.02670056176768   -7.33053e-10   2.38241e-06 DIIS
   @RHF iter  11:   -76.02670056181557   -4.78906e-11   4.56090e-07 DIIS
   @RHF iter  12:   -76.02670056181699   -1.42109e-12   6.37328e-08 DIIS
   @RHF iter  13:   -76.02670056181699    0.00000e+00   1.34114e-08 DIIS

  ==> Post-Iterations <==

	Orbital Energies (a.u.)
	-----------------------

	Doubly Occupied:                                                      

	   1A1   -20.550896     2A1    -1.335870     1B2    -0.697823  
	   3A1    -0.566665     1B1    -0.493087  

	Virtual:                                                              

	   4A1     0.185194     2B2     0.255990     3B2     0.787146  
	   5A1     0.853489     6A1     1.163816     2B1     1.200307  
	   4B2     1.253651     7A1     1.442872     1A2     1.476480  
	   3B1     1.673065     8A1     1.867229     5B2     1.934052  
	   6B2     2.447662     9A1     2.485889     4B1     3.285102  
	   2A2     3.336145    10A1     3.508943    11A1     3.862022  
	   7B2     4.146561  

	Final Occupation by Irrep:
	         A1    A2    B1    B2 
	DOCC [     3,    0,    1,    1 ]

  Energy converged.

  @RHF Final Energy:   -76.02670056181699

   => Energetics <=

    Nuclear Repulsion Energy =          9.1762165282415751
    One-Electron Energy =            -123.1171522259637783
    Two-Electron Energy =              37.9142351359052299
    DFT Functional Energy =             0.0000000000000000
    Empirical Dispersion Energy =       0.0000000000000000
    Total Energy =                    -76.0267005618169804

  ==> Properties <==

  Nuclear Dipole Moment: (a.u.)
     X:     0.0000      Y:     0.0000      Z:     0.9798

  Electronic Dipole Moment: (a.u.)
     X:     0.0000      Y:     0.0000      Z:    -0.1687

  Dipole Moment: (a.u.)
     X:     0.0000      Y:     0.0000      Z:     0.8111     Total:     0.8111

  Dipole Moment: (Debye)
     X:     0.0000      Y:     0.0000      Z:     2.0616     Total:     2.0616


  Saving occupied orbitals to File 180.

*** tstop() called on ugur at Fri Oct  5 11:27:03 2012
Module time:
	user time   =       0.09 seconds =       0.00 minutes
	system time =       0.01 seconds =       0.00 minutes
	total time  =          0 seconds =       0.00 minutes
Total time:
	user time   =       0.09 seconds =       0.00 minutes
	system time =       0.01 seconds =       0.00 minutes
	total time  =          0 seconds =       0.00 minutes

*** tstart() called on ugur
*** at Fri Oct  5 11:27:03 2012



  Options:
  ----------------------------------------------------------------------------
  BENCH                  => 0            CACHELEVEL             => 2          
  CC_MAXITER             => 50           CUTOFF                 => 14         
  DEBUG                  => 0            DERTYPE                => NONE       
  DIE_IF_NOT_CONVERGED   => TRUE         DIIS_MAX_VECS          => 4          
  DOCC                   => [  ]         DO_LEVEL_SHIFT         => FALSE      
  DO_SCS                 => TRUE      !  DO_SOS                 => FALSE      
  E3_SCALE               => 0.25         E_CONVERGENCE          => 1e-08      
  FREEZE_CORE            => FALSE        FROZEN_DOCC            => [  ]       
  FROZEN_UOCC            => [  ]         HESS_TYPE              => NONE       
  LEVEL_SHIFT            => 0.02         LINEQ_SOLVER           => CDGESV     
  MAT_NUM_COLUMN_PRINT   => 5            MAX_MOGRAD_CONVERGENCE => 0.0001     
  MO_MAXITER             => 50           MO_READ                => FALSE      
  MO_STEP_MAX            => 0.5          MO_WRITE               => FALSE      
  MP2_OS_SCALE           => 1.2          MP2_SS_SCALE           => 0.333333   
  MP3L_ENERGY            => FALSE        NAT_ORBS               => FALSE      
  NUM_FROZEN_DOCC        => 0            NUM_FROZEN_UOCC        => 0          
  OMP3_ORBS_PRINT        => FALSE        OPT_METHOD             => MSD        
  ORTH_TYPE              => MGS          PRINT                  => 1          
  PROPERTIES             => [  ]         PUREAM                 => TRUE       
  RMS_MOGRAD_CONVERGENCE => 1e-05        R_CONVERGENCE          => 1e-05      
  SOCC                   => [  ]         SOS_SCALE              => 1.3        
  SOS_SCALE2             => 1.2          TPDM_ABCD_TYPE         => DIRECT     
  UNITS                  => ANGSTROMS    WFN                    => SCF        


 ============================================================================== 
 ============================================================================== 
 ============================================================================== 

                       OMP3 (OO-MP3)   
              Program Written by Ugur Bozkaya,
              Latest Revision October 05, 2012.

              U. Bozkaya, J. Chem. Phys. 135, 224103 (2011).

 ============================================================================== 
 ============================================================================== 
 ============================================================================== 

	MO spaces per irreps... 

	IRREP   FC    OCC   VIR  FV 
	==============================
	  A1     0     3     8    0
	  A2     0     0     2    0
	  B1     0     1     3    0
	  B2     0     1     6    0
	==============================

	Computing MP2 energy using SCF MOs (Canonical MP2)... 
	============================================================================== 
	Nuclear Repulsion Energy (a.u.)    : 9.17621652824158
	SCF Energy (a.u.)                  : -76.02670056181699
	REF Energy (a.u.)                  : -76.02670056181691
	Alpha-Alpha Contribution (a.u.)    : -0.02577417806099
	Alpha-Beta Contribution (a.u.)     : -0.15257320430621
	Beta-Beta Contribution (a.u.)      : -0.02577417806099
	MP2 Correlation Energy (a.u.)      : -0.20412156042818
	MP2 Total Energy (a.u.)            : -76.23082212224509
	Scaled_SS Correlation Energy (a.u.): -0.01718278537399
	Scaled_OS Correlation Energy (a.u.): -0.18308784516745
	SCS-MP2 Total Energy (a.u.)        : -76.22697119235835
	SOS-MP2 Total Energy (a.u.)        : -76.22504572741498
	SCSN-MP2 Total Energy (a.u.)       : -76.11742566859158
	SCS-MI-MP2 Total Energy (a.u.)     : -76.15422722293673
	SCS-MP2-VDW Total Energy (a.u.)    : -76.24776844138985
	SOS-PI-MP2 Total Energy (a.u.)     : -76.24030304784560
	============================================================================== 


	Computing MP3 energy using SCF MOs (Canonical MP3)... 
	============================================================================== 
	Nuclear Repulsion Energy (a.u.)    : 9.17621652824158
	SCF Energy (a.u.)                  : -76.02670056181699
	REF Energy (a.u.)                  : -76.02670056181691
	Alpha-Alpha Contribution (a.u.)    : -0.02387082826809
	Alpha-Beta Contribution (a.u.)     : -0.16315456662620
	Beta-Beta Contribution (a.u.)      : -0.02387082826809
	3rd Order Energy (a.u.)            : -0.00677466273422
	MP3 Correlation Energy (a.u.)      : -0.21089622316239
	MP3 Total Energy (a.u.)            : -76.23759678497930
	SCS-MP3 Total Energy (a.u.)        : -76.22866485804190
	SOS-MP3 Total Energy (a.u.)        : -76.22673939309854
	SCSN-MP3 Total Energy (a.u.)       : -76.11911933427513
	SCS-MI-MP3 Total Energy (a.u.)     : -76.15592088862027
	SCS-MP3-VDW Total Energy (a.u.)    : -76.24946210707341
	SOS-PI-MP3 Total Energy (a.u.)     : -76.24199671352915
	============================================================================== 


	Number of independent-pairs:  33

  
 ============================================================================== 
 ================ Performing OMP3 iterations... =============================== 
 ============================================================================== 
	            Minimizing MP3-L Functional 
	            --------------------------- 
 Iter       E_total           DE           RMS MO Grad      MAX MO Grad      RMS Korb      MAX Korb      RMS T2    
 ----    ---------------    ----------     -----------      -----------     ----------    -----------   ----------  
   1     -76.2381552813     -5.58e-04       2.87e-04         5.88e-03        3.17e-04      4.91e-03      1.68e-07 
   2     -76.2381765703     -2.13e-05       5.87e-05         9.10e-04        6.38e-05      1.17e-03      3.48e-08 
   3     -76.2381780220     -1.45e-06       2.22e-05         3.35e-04        2.11e-05      5.57e-04      1.06e-08 
   4     -76.2381782215     -1.99e-07       8.77e-06         1.81e-04        7.88e-06      2.00e-04      3.78e-09 
   5     -76.2381782652     -4.37e-08       5.30e-06         6.85e-05        4.18e-06      1.20e-04      1.89e-09 
   6     -76.2381782734     -8.25e-09       2.61e-06         4.29e-05        1.88e-06      3.91e-05      7.91e-10 

 ============================================================================== 
 ======================== OMP3 ITERATIONS ARE CONVERGED ======================= 
 ============================================================================== 

	Computing MP2 energy using optimized MOs... 
	============================================================================== 
	Nuclear Repulsion Energy (a.u.)    : 9.17621652824158
	SCF Energy (a.u.)                  : -76.02670056181699
	REF Energy (a.u.)                  : -76.02610658983701
	Alpha-Alpha Contribution (a.u.)    : -0.02592361714551
	Alpha-Beta Contribution (a.u.)     : -0.15367701192997
	Beta-Beta Contribution (a.u.)      : -0.02592361714551
	MP2 Correlation Energy (a.u.)      : -0.21207168361015
	MP2 Total Energy (a.u.)            : -76.23163083605799
	Scaled_SS Correlation Energy (a.u.): -0.01728241143034
	Scaled_OS Correlation Energy (a.u.): -0.18441241431596
	SCS-MP2 Total Energy (a.u.)        : -76.22780141558330
	SOS-MP2 Total Energy (a.u.)        : -76.22588670534597
	SCSN-MP2 Total Energy (a.u.)       : -76.11735772218921
	SCS-MI-MP2 Total Energy (a.u.)     : -76.15446032684441
	SCS-MP2-VDW Total Energy (a.u.)    : -76.24873678225288
	SOS-PI-MP2 Total Energy (a.u.)     : -76.24125440653897
	============================================================================== 


	Computing MP3 energy using optimized MOs... 
	============================================================================== 
	Nuclear Repulsion Energy (a.u.)    : 9.17621652824158
	SCF Energy (a.u.)                  : -76.02670056181699
	REF Energy (a.u.)                  : -76.02610658983701
	Alpha-Alpha Contribution (a.u.)    : -0.02394343568045
	Alpha-Beta Contribution (a.u.)     : -0.16418481224925
	Beta-Beta Contribution (a.u.)      : -0.02394343568045
	3rd Order Energy (a.u.)            : -0.00654743738917
	MP3 Correlation Energy (a.u.)      : -0.21207168361015
	MP3 Total Energy (a.u.)            : -76.23817827344716
	SCS-MP3 Total Energy (a.u.)        : -76.22943827493060
	SOS-MP3 Total Energy (a.u.)        : -76.22752356469326
	SCSN-MP3 Total Energy (a.u.)       : -76.11899458153650
	SCS-MI-MP3 Total Energy (a.u.)     : -76.15609718619172
	SCS-MP3-VDW Total Energy (a.u.)    : -76.25037364160016
	SOS-PI-MP3 Total Energy (a.u.)     : -76.24289126588627
	============================================================================== 


	============================================================================== 
	================ OMP3 FINAL RESULTS ========================================== 
	============================================================================== 
	Nuclear Repulsion Energy (a.u.)    : 9.17621652824158
	SCF Energy (a.u.)                  : -76.02670056181699
	REF Energy (a.u.)                  : -76.02610658983701
	OMP3 Correlation Energy (a.u.)     : -0.21147771163017
	Eomp3 - Eref (a.u.)                : -0.21207168361015
	OMP3 Total Energy (a.u.)           : -76.23817827344716
	SCS-OMP3 Total Energy (a.u.)       : -76.22943827493060
	SOS-OMP3 Total Energy (a.u.)       : -76.22752356469326
	SCSN-OMP3 Total Energy (a.u.)      : -76.11899458153650
	SCS-MI-OMP3 Total Energy (a.u.)    : -76.15609718619172
	SCS-OMP3-VDW Total Energy (a.u.    : -76.25037364160016
	SOS-PI-OMP3 Total Energy (a.u.)    : -76.24289126588627
	============================================================================== 


*** tstop() called on ugur at Fri Oct  5 11:27:04 2012
Module time:
	user time   =       0.29 seconds =       0.00 minutes
	system time =       0.18 seconds =       0.00 minutes
	total time  =          1 seconds =       0.02 minutes
Total time:
	user time   =       0.39 seconds =       0.01 minutes
	system time =       0.19 seconds =       0.00 minutes
	total time  =          1 seconds =       0.02 minutes

  //>>>>>>>>>>>>>>>>>>>>>>>>>>>>>>>>>>>//
  //    Loading displacement 2 of 5    //
  //<<<<<<<<<<<<<<<<<<<<<<<<<<<<<<<<<<<//

*** tstart() called on ugur
*** at Fri Oct  5 11:27:04 2012


         ---------------------------------------------------------
                                   SCF
            by Justin Turney, Rob Parrish, and Andy Simmonett
                              RHF Reference
                        2 Threads,    250 MiB Core
         ---------------------------------------------------------

  ==> Geometry <==

    Molecular point group: c2v
    Full point group: C2v

    Geometry (in Angstrom), charge = 0, multiplicity = 1:

       Center              X                  Y                   Z       
    ------------   -----------------  -----------------  -----------------
           O          0.000000000000     0.000000000000    -0.065433786334
           H          0.000000000000    -0.757365949175     0.519240836625
           H          0.000000000000     0.757365949175     0.519240836625

  Running in c2v symmetry.

  Nuclear repulsion =    9.198561022178438

  Charge       = 0
  Multiplicity = 1
  Electrons    = 10
  Nalpha       = 5
  Nbeta        = 5

  ==> Algorithm <==

  SCF Algorithm Type is PK.
  DIIS enabled.
  MOM disabled.
  Fractional occupation disabled.
  Guess Type is CORE.
  Energy threshold   = 1.00e-08
  Density threshold  = 1.00e-08
  Integral threshold = 0.00e+00

  ==> Primary Basis <==

  Basis Set: CC-PVDZ
    Number of shells: 12
    Number of basis function: 24
    Number of Cartesian functions: 25
    Spherical Harmonics?: true
    Max angular momentum: 2

  ==> Pre-Iterations <==

   -------------------------------------------------------
    Irrep   Nso     Nmo     Nalpha   Nbeta   Ndocc  Nsocc
   -------------------------------------------------------
     A1        11      11       0       0       0       0
     A2         2       2       0       0       0       0
     B1         4       4       0       0       0       0
     B2         7       7       0       0       0       0
   -------------------------------------------------------
    Total      24      24       5       5       5       0
   -------------------------------------------------------

  ==> Integral Setup <==

 MINTS: Wrapper to libmints.
   by Justin Turney

   Calculation information:
      Number of atoms:                   3
      Number of AO shells:              12
      Number of SO shells:               9
      Number of primitives:             32
      Number of atomic orbitals:        25
      Number of basis functions:        24

      Number of irreps:                  4
      Number of functions per irrep: [  11    2    4    7 ]

      Overlap, kinetic, potential, dipole, and quadrupole integrals
        stored in file 35.

      Computing two-electron integrals...done
      Computed 11412 non-zero two-electron integrals.
        Stored in file 33.

  Minimum eigenvalue in the overlap matrix is 3.4171514487E-02.
  Using Symmetric Orthogonalization.
  SCF Guess: Core (One-Electron) Hamiltonian.

  Initial RHF energy:   -58.55990348127798

  ==> Iterations <==

                        Total Energy        Delta E     Density RMS

   @RHF iter   1:   -68.87298297510885   -1.03131e+01   0.00000e+00 
	Occupation by irrep:
	         A1    A2    B1    B2 
	DOCC [     3,    0,    0,    2 ]

   @RHF iter   2:   -69.95472788586812   -1.08174e+00   5.55593e-01 DIIS
	Occupation by irrep:
	         A1    A2    B1    B2 
	DOCC [     3,    0,    1,    1 ]

   @RHF iter   3:   -75.73599188894883   -5.78126e+00   5.23154e-01 DIIS
   @RHF iter   4:   -76.00162437664063   -2.65632e-01   1.78746e-02 DIIS
   @RHF iter   5:   -76.02653041463013   -2.49060e-02   8.32990e-03 DIIS
   @RHF iter   6:   -76.02677274047417   -2.42326e-04   1.29392e-03 DIIS
   @RHF iter   7:   -76.02681279886795   -4.00584e-05   4.57551e-04 DIIS
   @RHF iter   8:   -76.02681439130158   -1.59243e-06   1.02256e-04 DIIS
   @RHF iter   9:   -76.02681447969044   -8.83889e-08   1.72868e-05 DIIS
   @RHF iter  10:   -76.02681448042227   -7.31831e-10   2.38504e-06 DIIS
   @RHF iter  11:   -76.02681448046970   -4.74216e-11   4.53839e-07 DIIS
   @RHF iter  12:   -76.02681448047100   -1.30740e-12   6.26538e-08 DIIS
   @RHF iter  13:   -76.02681448047107   -7.10543e-14   1.32328e-08 DIIS

  ==> Post-Iterations <==

	Orbital Energies (a.u.)
	-----------------------

	Doubly Occupied:                                                      

	   1A1   -20.550262     2A1    -1.336801     1B2    -0.699832  
	   3A1    -0.566346     1B1    -0.493124  

	Virtual:                                                              

	   4A1     0.185677     2B2     0.256301     3B2     0.790173  
	   5A1     0.854072     6A1     1.163360     2B1     1.200429  
	   4B2     1.253117     7A1     1.445910     1A2     1.475884  
	   3B1     1.675618     8A1     1.867542     5B2     1.934529  
	   6B2     2.454433     9A1     2.491280     4B1     3.285272  
	   2A2     3.339964    10A1     3.510456    11A1     3.867653  
	   7B2     4.147153  

	Final Occupation by Irrep:
	         A1    A2    B1    B2 
	DOCC [     3,    0,    1,    1 ]

  Energy converged.

  @RHF Final Energy:   -76.02681448047107

   => Energetics <=

    Nuclear Repulsion Energy =          9.1985610221784384
    One-Electron Energy =            -123.1580210723227680
    Two-Electron Energy =              37.9326455696732410
    DFT Functional Energy =             0.0000000000000000
    Empirical Dispersion Energy =       0.0000000000000000
    Total Energy =                    -76.0268144804710886

  ==> Properties <==

  Nuclear Dipole Moment: (a.u.)
     X:     0.0000      Y:    -0.0000      Z:     0.9732

  Electronic Dipole Moment: (a.u.)
     X:     0.0000      Y:     0.0000      Z:    -0.1653

  Dipole Moment: (a.u.)
     X:     0.0000      Y:    -0.0000      Z:     0.8079     Total:     0.8079

  Dipole Moment: (Debye)
     X:     0.0000      Y:    -0.0000      Z:     2.0536     Total:     2.0536


  Saving occupied orbitals to File 180.

*** tstop() called on ugur at Fri Oct  5 11:27:04 2012
Module time:
	user time   =       0.11 seconds =       0.00 minutes
	system time =       0.01 seconds =       0.00 minutes
	total time  =          0 seconds =       0.00 minutes
Total time:
	user time   =       0.50 seconds =       0.01 minutes
	system time =       0.20 seconds =       0.00 minutes
	total time  =          1 seconds =       0.02 minutes

*** tstart() called on ugur
*** at Fri Oct  5 11:27:04 2012



  Options:
  ----------------------------------------------------------------------------
  BENCH                  => 0            CACHELEVEL             => 2          
  CC_MAXITER             => 50           CUTOFF                 => 14         
  DEBUG                  => 0            DERTYPE                => NONE       
  DIE_IF_NOT_CONVERGED   => TRUE         DIIS_MAX_VECS          => 4          
  DOCC                   => [  ]         DO_LEVEL_SHIFT         => FALSE      
  DO_SCS                 => TRUE      !  DO_SOS                 => FALSE      
  E3_SCALE               => 0.25         E_CONVERGENCE          => 1e-08      
  FREEZE_CORE            => FALSE        FROZEN_DOCC            => [  ]       
  FROZEN_UOCC            => [  ]         HESS_TYPE              => NONE       
  LEVEL_SHIFT            => 0.02         LINEQ_SOLVER           => CDGESV     
  MAT_NUM_COLUMN_PRINT   => 5            MAX_MOGRAD_CONVERGENCE => 0.0001     
  MO_MAXITER             => 50           MO_READ                => FALSE      
  MO_STEP_MAX            => 0.5          MO_WRITE               => FALSE      
  MP2_OS_SCALE           => 1.2          MP2_SS_SCALE           => 0.333333   
  MP3L_ENERGY            => FALSE        NAT_ORBS               => FALSE      
  NUM_FROZEN_DOCC        => 0            NUM_FROZEN_UOCC        => 0          
  OMP3_ORBS_PRINT        => FALSE        OPT_METHOD             => MSD        
  ORTH_TYPE              => MGS          PRINT                  => 1          
  PROPERTIES             => [  ]         PUREAM                 => TRUE       
  RMS_MOGRAD_CONVERGENCE => 1e-05        R_CONVERGENCE          => 1e-05      
  SOCC                   => [  ]         SOS_SCALE              => 1.3        
  SOS_SCALE2             => 1.2          TPDM_ABCD_TYPE         => DIRECT     
  UNITS                  => ANGSTROMS    WFN                    => SCF        


 ============================================================================== 
 ============================================================================== 
 ============================================================================== 

                       OMP3 (OO-MP3)   
              Program Written by Ugur Bozkaya,
              Latest Revision October 05, 2012.

              U. Bozkaya, J. Chem. Phys. 135, 224103 (2011).

 ============================================================================== 
 ============================================================================== 
 ============================================================================== 

	MO spaces per irreps... 

	IRREP   FC    OCC   VIR  FV 
	==============================
	  A1     0     3     8    0
	  A2     0     0     2    0
	  B1     0     1     3    0
	  B2     0     1     6    0
	==============================

	Computing MP2 energy using SCF MOs (Canonical MP2)... 
	============================================================================== 
	Nuclear Repulsion Energy (a.u.)    : 9.19856102217844
	SCF Energy (a.u.)                  : -76.02681448047107
	REF Energy (a.u.)                  : -76.02681448047107
	Alpha-Alpha Contribution (a.u.)    : -0.02575591387803
	Alpha-Beta Contribution (a.u.)     : -0.15240556206107
	Beta-Beta Contribution (a.u.)      : -0.02575591387803
	MP2 Correlation Energy (a.u.)      : -0.20391738981714
	MP2 Total Energy (a.u.)            : -76.23073187028821
	Scaled_SS Correlation Energy (a.u.): -0.01717060925202
	Scaled_OS Correlation Energy (a.u.): -0.18288667447329
	SCS-MP2 Total Energy (a.u.)        : -76.22687176419637
	SOS-MP2 Total Energy (a.u.)        : -76.22494171115046
	SCSN-MP2 Total Energy (a.u.)       : -76.11747529732176
	SCS-MI-MP2 Total Energy (a.u.)     : -76.15422696310081
	SCS-MP2-VDW Total Energy (a.u.)    : -76.24764951378729
	SOS-PI-MP2 Total Energy (a.u.)     : -76.24018226735657
	============================================================================== 


	Computing MP3 energy using SCF MOs (Canonical MP3)... 
	============================================================================== 
	Nuclear Repulsion Energy (a.u.)    : 9.19856102217844
	SCF Energy (a.u.)                  : -76.02681448047107
	REF Energy (a.u.)                  : -76.02681448047107
	Alpha-Alpha Contribution (a.u.)    : -0.02386567645543
	Alpha-Beta Contribution (a.u.)     : -0.16298616406741
	Beta-Beta Contribution (a.u.)      : -0.02386567645543
	3rd Order Energy (a.u.)            : -0.00680012716114
	MP3 Correlation Energy (a.u.)      : -0.21071751697828
	MP3 Total Energy (a.u.)            : -76.23753199744935
	SCS-MP3 Total Energy (a.u.)        : -76.22857179598665
	SOS-MP3 Total Energy (a.u.)        : -76.22664174294076
	SCSN-MP3 Total Energy (a.u.)       : -76.11917532911204
	SCS-MI-MP3 Total Energy (a.u.)     : -76.15592699489110
	SCS-MP3-VDW Total Energy (a.u.)    : -76.24934954557759
	SOS-PI-MP3 Total Energy (a.u.)     : -76.24188229914685
	============================================================================== 


	Number of independent-pairs:  33

  
 ============================================================================== 
 ================ Performing OMP3 iterations... =============================== 
 ============================================================================== 
	            Minimizing MP3-L Functional 
	            --------------------------- 
 Iter       E_total           DE           RMS MO Grad      MAX MO Grad      RMS Korb      MAX Korb      RMS T2    
 ----    ---------------    ----------     -----------      -----------     ----------    -----------   ----------  
   1     -76.2380842718     -5.52e-04       2.85e-04         5.86e-03        3.15e-04      4.89e-03      1.66e-07 
   2     -76.2381052401     -2.10e-05       5.81e-05         9.04e-04        6.32e-05      1.16e-03      3.42e-08 
   3     -76.2381066581     -1.42e-06       2.20e-05         3.31e-04        2.08e-05      5.49e-04      1.04e-08 
   4     -76.2381068519     -1.94e-07       8.69e-06         1.78e-04        7.77e-06      1.97e-04      3.70e-09 
   5     -76.2381068943     -4.25e-08       5.25e-06         6.78e-05        4.13e-06      1.18e-04      1.85e-09 
   6     -76.2381069023     -8.00e-09       2.58e-06         4.22e-05        1.85e-06      3.85e-05      7.74e-10 

 ============================================================================== 
 ======================== OMP3 ITERATIONS ARE CONVERGED ======================= 
 ============================================================================== 

	Computing MP2 energy using optimized MOs... 
	============================================================================== 
	Nuclear Repulsion Energy (a.u.)    : 9.19856102217844
	SCF Energy (a.u.)                  : -76.02681448047107
	REF Energy (a.u.)                  : -76.02622729799157
	Alpha-Alpha Contribution (a.u.)    : -0.02590380234763
	Alpha-Beta Contribution (a.u.)     : -0.15349630016656
	Beta-Beta Contribution (a.u.)      : -0.02590380234763
	MP2 Correlation Energy (a.u.)      : -0.21187960435671
	MP2 Total Energy (a.u.)            : -76.23153120285339
	Scaled_SS Correlation Energy (a.u.): -0.01726920156509
	Scaled_OS Correlation Energy (a.u.): -0.18419556019987
	SCS-MP2 Total Energy (a.u.)        : -76.22769205975652
	SOS-MP2 Total Energy (a.u.)        : -76.22577248820809
	SCSN-MP2 Total Energy (a.u.)       : -76.11740868225525
	SCS-MI-MP2 Total Energy (a.u.)     : -76.15445762811508
	SCS-MP2-VDW Total Energy (a.u.)    : -76.24860636455240
	SOS-PI-MP2 Total Energy (a.u.)     : -76.24112211822475
	============================================================================== 


	Computing MP3 energy using optimized MOs... 
	============================================================================== 
	Nuclear Repulsion Energy (a.u.)    : 9.19856102217844
	SCF Energy (a.u.)                  : -76.02681448047107
	REF Energy (a.u.)                  : -76.02622729799157
	Alpha-Alpha Contribution (a.u.)    : -0.02393772546760
	Alpha-Beta Contribution (a.u.)     : -0.16400415342151
	Beta-Beta Contribution (a.u.)      : -0.02393772546760
	3rd Order Energy (a.u.)            : -0.00657569949489
	MP3 Correlation Energy (a.u.)      : -0.21187960435671
	MP3 Total Energy (a.u.)            : -76.23810690234828
	SCS-MP3 Total Energy (a.u.)        : -76.22933598463024
	SOS-MP3 Total Energy (a.u.)        : -76.22741641308181
	SCSN-MP3 Total Energy (a.u.)       : -76.11905260712896
	SCS-MI-MP3 Total Energy (a.u.)     : -76.15610155298880
	SCS-MP3-VDW Total Energy (a.u.)    : -76.25025028942612
	SOS-PI-MP3 Total Energy (a.u.)     : -76.24276604309847
	============================================================================== 


	============================================================================== 
	================ OMP3 FINAL RESULTS ========================================== 
	============================================================================== 
	Nuclear Repulsion Energy (a.u.)    : 9.19856102217844
	SCF Energy (a.u.)                  : -76.02681448047107
	REF Energy (a.u.)                  : -76.02622729799157
	OMP3 Correlation Energy (a.u.)     : -0.21129242187720
	Eomp3 - Eref (a.u.)                : -0.21187960435671
	OMP3 Total Energy (a.u.)           : -76.23810690234828
	SCS-OMP3 Total Energy (a.u.)       : -76.22933598463024
	SOS-OMP3 Total Energy (a.u.)       : -76.22741641308181
	SCSN-OMP3 Total Energy (a.u.)      : -76.11905260712896
	SCS-MI-OMP3 Total Energy (a.u.)    : -76.15610155298880
	SCS-OMP3-VDW Total Energy (a.u.    : -76.25025028942612
	SOS-PI-OMP3 Total Energy (a.u.)    : -76.24276604309847
	============================================================================== 


*** tstop() called on ugur at Fri Oct  5 11:27:04 2012
Module time:
	user time   =       0.31 seconds =       0.01 minutes
	system time =       0.16 seconds =       0.00 minutes
	total time  =          0 seconds =       0.00 minutes
Total time:
	user time   =       0.81 seconds =       0.01 minutes
	system time =       0.36 seconds =       0.01 minutes
	total time  =          1 seconds =       0.02 minutes

  //>>>>>>>>>>>>>>>>>>>>>>>>>>>>>>>>>>>//
  //    Loading displacement 3 of 5    //
  //<<<<<<<<<<<<<<<<<<<<<<<<<<<<<<<<<<<//

*** tstart() called on ugur
*** at Fri Oct  5 11:27:04 2012


         ---------------------------------------------------------
                                   SCF
            by Justin Turney, Rob Parrish, and Andy Simmonett
                              RHF Reference
                        2 Threads,    250 MiB Core
         ---------------------------------------------------------

  ==> Geometry <==

    Molecular point group: c2v
    Full point group: C2v

    Geometry (in Angstrom), charge = 0, multiplicity = 1:

       Center              X                  Y                   Z       
    ------------   -----------------  -----------------  -----------------
           O          0.000000000000     0.000000000000    -0.065655108074
           H          0.000000000000    -0.759229595800     0.520997104936
           H          0.000000000000     0.759229595800     0.520997104936

  Running in c2v symmetry.

  Nuclear repulsion =    9.172951177761902

  Charge       = 0
  Multiplicity = 1
  Electrons    = 10
  Nalpha       = 5
  Nbeta        = 5

  ==> Algorithm <==

  SCF Algorithm Type is PK.
  DIIS enabled.
  MOM disabled.
  Fractional occupation disabled.
  Guess Type is CORE.
  Energy threshold   = 1.00e-08
  Density threshold  = 1.00e-08
  Integral threshold = 0.00e+00

  ==> Primary Basis <==

  Basis Set: CC-PVDZ
    Number of shells: 12
    Number of basis function: 24
    Number of Cartesian functions: 25
    Spherical Harmonics?: true
    Max angular momentum: 2

  ==> Pre-Iterations <==

   -------------------------------------------------------
    Irrep   Nso     Nmo     Nalpha   Nbeta   Ndocc  Nsocc
   -------------------------------------------------------
     A1        11      11       0       0       0       0
     A2         2       2       0       0       0       0
     B1         4       4       0       0       0       0
     B2         7       7       0       0       0       0
   -------------------------------------------------------
    Total      24      24       5       5       5       0
   -------------------------------------------------------

  ==> Integral Setup <==

 MINTS: Wrapper to libmints.
   by Justin Turney

   Calculation information:
      Number of atoms:                   3
      Number of AO shells:              12
      Number of SO shells:               9
      Number of primitives:             32
      Number of atomic orbitals:        25
      Number of basis functions:        24

      Number of irreps:                  4
      Number of functions per irrep: [  11    2    4    7 ]

      Overlap, kinetic, potential, dipole, and quadrupole integrals
        stored in file 35.

      Computing two-electron integrals...done
      Computed 11412 non-zero two-electron integrals.
        Stored in file 33.

  Minimum eigenvalue in the overlap matrix is 3.4356020169E-02.
  Using Symmetric Orthogonalization.
  SCF Guess: Core (One-Electron) Hamiltonian.

  Initial RHF energy:   -58.56813689475742

  ==> Iterations <==

                        Total Energy        Delta E     Density RMS

   @RHF iter   1:   -68.87646756129797   -1.03083e+01   0.00000e+00 
	Occupation by irrep:
	         A1    A2    B1    B2 
	DOCC [     3,    0,    0,    2 ]

   @RHF iter   2:   -69.94971359503471   -1.07325e+00   5.53982e-01 DIIS
	Occupation by irrep:
	         A1    A2    B1    B2 
	DOCC [     3,    0,    1,    1 ]

   @RHF iter   3:   -75.73811557981989   -5.78840e+00   5.21510e-01 DIIS
   @RHF iter   4:   -76.00168139123035   -2.63566e-01   1.77987e-02 DIIS
   @RHF iter   5:   -76.02639476968199   -2.47134e-02   8.29701e-03 DIIS
   @RHF iter   6:   -76.02663850414233   -2.43734e-04   1.29909e-03 DIIS
   @RHF iter   7:   -76.02667909594275   -4.05918e-05   4.59627e-04 DIIS
   @RHF iter   8:   -76.02668070805125   -1.61211e-06   1.02883e-04 DIIS
   @RHF iter   9:   -76.02668079746061   -8.94094e-08   1.73348e-05 DIIS
   @RHF iter  10:   -76.02668079821093   -7.50319e-10   2.41411e-06 DIIS
   @RHF iter  11:   -76.02668079825986   -4.89280e-11   4.62250e-07 DIIS
   @RHF iter  12:   -76.02668079826125   -1.39266e-12   6.38316e-08 DIIS
   @RHF iter  13:   -76.02668079826120    5.68434e-14   1.33877e-08 DIIS

  ==> Post-Iterations <==

	Orbital Energies (a.u.)
	-----------------------

	Doubly Occupied:                                                      

	   1A1   -20.550763     2A1    -1.335479     1B2    -0.698296  
	   3A1    -0.565954     1B1    -0.492950  

	Virtual:                                                              

	   4A1     0.185214     2B2     0.255914     3B2     0.788069  
	   5A1     0.851773     6A1     1.163587     2B1     1.200389  
	   4B2     1.253328     7A1     1.445873     1A2     1.475352  
	   3B1     1.674815     8A1     1.868000     5B2     1.931866  
	   6B2     2.447938     9A1     2.484630     4B1     3.283170  
	   2A2     3.337122    10A1     3.507132    11A1     3.864310  
	   7B2     4.144393  

	Final Occupation by Irrep:
	         A1    A2    B1    B2 
	DOCC [     3,    0,    1,    1 ]

  Energy converged.

  @RHF Final Energy:   -76.02668079826120

   => Energetics <=

    Nuclear Repulsion Energy =          9.1729511777619024
    One-Electron Energy =            -123.1123814527808094
    Two-Electron Energy =              37.9127494767576962
    DFT Functional Energy =             0.0000000000000000
    Empirical Dispersion Energy =       0.0000000000000000
    Total Energy =                    -76.0266807982612107

  ==> Properties <==

  Nuclear Dipole Moment: (a.u.)
     X:     0.0000      Y:     0.0000      Z:     0.9765

  Electronic Dipole Moment: (a.u.)
     X:     0.0000      Y:     0.0000      Z:    -0.1673

  Dipole Moment: (a.u.)
     X:     0.0000      Y:     0.0000      Z:     0.8093     Total:     0.8093

  Dipole Moment: (Debye)
     X:     0.0000      Y:     0.0000      Z:     2.0569     Total:     2.0569


  Saving occupied orbitals to File 180.

*** tstop() called on ugur at Fri Oct  5 11:27:04 2012
Module time:
	user time   =       0.08 seconds =       0.00 minutes
	system time =       0.01 seconds =       0.00 minutes
	total time  =          0 seconds =       0.00 minutes
Total time:
	user time   =       0.89 seconds =       0.01 minutes
	system time =       0.37 seconds =       0.01 minutes
	total time  =          1 seconds =       0.02 minutes

*** tstart() called on ugur
*** at Fri Oct  5 11:27:04 2012



  Options:
  ----------------------------------------------------------------------------
  BENCH                  => 0            CACHELEVEL             => 2          
  CC_MAXITER             => 50           CUTOFF                 => 14         
  DEBUG                  => 0            DERTYPE                => NONE       
  DIE_IF_NOT_CONVERGED   => TRUE         DIIS_MAX_VECS          => 4          
  DOCC                   => [  ]         DO_LEVEL_SHIFT         => FALSE      
  DO_SCS                 => TRUE      !  DO_SOS                 => FALSE      
  E3_SCALE               => 0.25         E_CONVERGENCE          => 1e-08      
  FREEZE_CORE            => FALSE        FROZEN_DOCC            => [  ]       
  FROZEN_UOCC            => [  ]         HESS_TYPE              => NONE       
  LEVEL_SHIFT            => 0.02         LINEQ_SOLVER           => CDGESV     
  MAT_NUM_COLUMN_PRINT   => 5            MAX_MOGRAD_CONVERGENCE => 0.0001     
  MO_MAXITER             => 50           MO_READ                => FALSE      
  MO_STEP_MAX            => 0.5          MO_WRITE               => FALSE      
  MP2_OS_SCALE           => 1.2          MP2_SS_SCALE           => 0.333333   
  MP3L_ENERGY            => FALSE        NAT_ORBS               => FALSE      
  NUM_FROZEN_DOCC        => 0            NUM_FROZEN_UOCC        => 0          
  OMP3_ORBS_PRINT        => FALSE        OPT_METHOD             => MSD        
  ORTH_TYPE              => MGS          PRINT                  => 1          
  PROPERTIES             => [  ]         PUREAM                 => TRUE       
  RMS_MOGRAD_CONVERGENCE => 1e-05        R_CONVERGENCE          => 1e-05      
  SOCC                   => [  ]         SOS_SCALE              => 1.3        
  SOS_SCALE2             => 1.2          TPDM_ABCD_TYPE         => DIRECT     
  UNITS                  => ANGSTROMS    WFN                    => SCF        


 ============================================================================== 
 ============================================================================== 
 ============================================================================== 

                       OMP3 (OO-MP3)   
              Program Written by Ugur Bozkaya,
              Latest Revision October 05, 2012.

              U. Bozkaya, J. Chem. Phys. 135, 224103 (2011).

 ============================================================================== 
 ============================================================================== 
 ============================================================================== 

	MO spaces per irreps... 

	IRREP   FC    OCC   VIR  FV 
	==============================
	  A1     0     3     8    0
	  A2     0     0     2    0
	  B1     0     1     3    0
	  B2     0     1     6    0
	==============================

	Computing MP2 energy using SCF MOs (Canonical MP2)... 
	============================================================================== 
	Nuclear Repulsion Energy (a.u.)    : 9.17295117776190
	SCF Energy (a.u.)                  : -76.02668079826120
	REF Energy (a.u.)                  : -76.02668079826128
	Alpha-Alpha Contribution (a.u.)    : -0.02577104924129
	Alpha-Beta Contribution (a.u.)     : -0.15256506510541
	Beta-Beta Contribution (a.u.)      : -0.02577104924129
	MP2 Correlation Energy (a.u.)      : -0.20410716358800
	MP2 Total Energy (a.u.)            : -76.23078796184927
	Scaled_SS Correlation Energy (a.u.): -0.01718069949419
	Scaled_OS Correlation Energy (a.u.): -0.18307807812650
	SCS-MP2 Total Energy (a.u.)        : -76.22693957588197
	SOS-MP2 Total Energy (a.u.)        : -76.22501538289832
	SCSN-MP2 Total Energy (a.u.)       : -76.11739489159064
	SCS-MI-MP2 Total Energy (a.u.)     : -76.15419613134598
	SCS-MP2-VDW Total Energy (a.u.)    : -76.24773513083750
	SOS-PI-MP2 Total Energy (a.u.)     : -76.24027188940886
	============================================================================== 


	Computing MP3 energy using SCF MOs (Canonical MP3)... 
	============================================================================== 
	Nuclear Repulsion Energy (a.u.)    : 9.17295117776190
	SCF Energy (a.u.)                  : -76.02668079826120
	REF Energy (a.u.)                  : -76.02668079826128
	Alpha-Alpha Contribution (a.u.)    : -0.02386765989508
	Alpha-Beta Contribution (a.u.)     : -0.16314831303113
	Beta-Beta Contribution (a.u.)      : -0.02386765989508
	3rd Order Energy (a.u.)            : -0.00677646923330
	MP3 Correlation Energy (a.u.)      : -0.21088363282129
	MP3 Total Energy (a.u.)            : -76.23756443108257
	SCS-MP3 Total Energy (a.u.)        : -76.22863369319029
	SOS-MP3 Total Energy (a.u.)        : -76.22670950020665
	SCSN-MP3 Total Energy (a.u.)       : -76.11908900889895
	SCS-MI-MP3 Total Energy (a.u.)     : -76.15589024865432
	SCS-MP3-VDW Total Energy (a.u.)    : -76.24942924814582
	SOS-PI-MP3 Total Energy (a.u.)     : -76.24196600671718
	============================================================================== 


	Number of independent-pairs:  33

  
 ============================================================================== 
 ================ Performing OMP3 iterations... =============================== 
 ============================================================================== 
	            Minimizing MP3-L Functional 
	            --------------------------- 
 Iter       E_total           DE           RMS MO Grad      MAX MO Grad      RMS Korb      MAX Korb      RMS T2    
 ----    ---------------    ----------     -----------      -----------     ----------    -----------   ----------  
   1     -76.2381227381     -5.58e-04       2.86e-04         5.88e-03        3.17e-04      4.91e-03      1.68e-07 
   2     -76.2381440288     -2.13e-05       5.87e-05         9.11e-04        6.39e-05      1.18e-03      3.48e-08 
   3     -76.2381454827     -1.45e-06       2.21e-05         3.33e-04        2.11e-05      5.58e-04      1.06e-08 
   4     -76.2381456830     -2.00e-07       8.75e-06         1.82e-04        7.90e-06      2.01e-04      3.79e-09 
   5     -76.2381457269     -4.39e-08       5.28e-06         6.81e-05        4.19e-06      1.21e-04      1.90e-09 
   6     -76.2381457352     -8.31e-09       2.59e-06         4.30e-05        1.88e-06      3.95e-05      7.94e-10 

 ============================================================================== 
 ======================== OMP3 ITERATIONS ARE CONVERGED ======================= 
 ============================================================================== 

	Computing MP2 energy using optimized MOs... 
	============================================================================== 
	Nuclear Repulsion Energy (a.u.)    : 9.17295117776190
	SCF Energy (a.u.)                  : -76.02668079826120
	REF Energy (a.u.)                  : -76.02608700775586
	Alpha-Alpha Contribution (a.u.)    : -0.02592022113405
	Alpha-Beta Contribution (a.u.)     : -0.15366841539100
	Beta-Beta Contribution (a.u.)      : -0.02592022113405
	MP2 Correlation Energy (a.u.)      : -0.21205872746319
	MP2 Total Energy (a.u.)            : -76.23159586541495
	Scaled_SS Correlation Energy (a.u.): -0.01728014742270
	Scaled_OS Correlation Energy (a.u.): -0.18440209846920
	SCS-MP2 Total Energy (a.u.)        : -76.22776925364775
	SOS-MP2 Total Energy (a.u.)        : -76.22585594776416
	SCSN-MP2 Total Energy (a.u.)       : -76.11732618614771
	SCS-MI-MP2 Total Energy (a.u.)     : -76.15442854443809
	SCS-MP2-VDW Total Energy (a.u.)    : -76.24870280059038
	SOS-PI-MP2 Total Energy (a.u.)     : -76.24122278930325
	============================================================================== 


	Computing MP3 energy using optimized MOs... 
	============================================================================== 
	Nuclear Repulsion Energy (a.u.)    : 9.17295117776190
	SCF Energy (a.u.)                  : -76.02668079826120
	REF Energy (a.u.)                  : -76.02608700775586
	Alpha-Alpha Contribution (a.u.)    : -0.02394008827346
	Alpha-Beta Contribution (a.u.)     : -0.16417855091628
	Beta-Beta Contribution (a.u.)      : -0.02394008827346
	3rd Order Energy (a.u.)            : -0.00654986980410
	MP3 Correlation Energy (a.u.)      : -0.21205872746319
	MP3 Total Energy (a.u.)            : -76.23814573521905
	SCS-MP3 Total Energy (a.u.)        : -76.22940672109877
	SOS-MP3 Total Energy (a.u.)        : -76.22749341521518
	SCSN-MP3 Total Energy (a.u.)       : -76.11896365359874
	SCS-MI-MP3 Total Energy (a.u.)     : -76.15606601188912
	SCS-MP3-VDW Total Energy (a.u.)    : -76.25034026804141
	SOS-PI-MP3 Total Energy (a.u.)     : -76.24286025675428
	============================================================================== 


	============================================================================== 
	================ OMP3 FINAL RESULTS ========================================== 
	============================================================================== 
	Nuclear Repulsion Energy (a.u.)    : 9.17295117776190
	SCF Energy (a.u.)                  : -76.02668079826120
	REF Energy (a.u.)                  : -76.02608700775586
	OMP3 Correlation Energy (a.u.)     : -0.21146493695785
	Eomp3 - Eref (a.u.)                : -0.21205872746319
	OMP3 Total Energy (a.u.)           : -76.23814573521905
	SCS-OMP3 Total Energy (a.u.)       : -76.22940672109877
	SOS-OMP3 Total Energy (a.u.)       : -76.22749341521518
	SCSN-OMP3 Total Energy (a.u.)      : -76.11896365359874
	SCS-MI-OMP3 Total Energy (a.u.)    : -76.15606601188912
	SCS-OMP3-VDW Total Energy (a.u.    : -76.25034026804141
	SOS-PI-OMP3 Total Energy (a.u.)    : -76.24286025675428
	============================================================================== 


*** tstop() called on ugur at Fri Oct  5 11:27:05 2012
Module time:
	user time   =       0.30 seconds =       0.01 minutes
	system time =       0.17 seconds =       0.00 minutes
	total time  =          1 seconds =       0.02 minutes
Total time:
	user time   =       1.19 seconds =       0.02 minutes
	system time =       0.54 seconds =       0.01 minutes
	total time  =          2 seconds =       0.03 minutes

  //>>>>>>>>>>>>>>>>>>>>>>>>>>>>>>>>>>>//
  //    Loading displacement 4 of 5    //
  //<<<<<<<<<<<<<<<<<<<<<<<<<<<<<<<<<<<//

*** tstart() called on ugur
*** at Fri Oct  5 11:27:05 2012


         ---------------------------------------------------------
                                   SCF
            by Justin Turney, Rob Parrish, and Andy Simmonett
                              RHF Reference
                        2 Threads,    250 MiB Core
         ---------------------------------------------------------

  ==> Geometry <==

    Molecular point group: c2v
    Full point group: C2v

    Geometry (in Angstrom), charge = 0, multiplicity = 1:

       Center              X                  Y                   Z       
    ------------   -----------------  -----------------  -----------------
           O          0.000000000000     0.000000000000    -0.065655108074
           H          0.000000000000    -0.755502302551     0.520997104936
           H          0.000000000000     0.755502302551     0.520997104936

  Running in c2v symmetry.

  Nuclear repulsion =    9.201855161672771

  Charge       = 0
  Multiplicity = 1
  Electrons    = 10
  Nalpha       = 5
  Nbeta        = 5

  ==> Algorithm <==

  SCF Algorithm Type is PK.
  DIIS enabled.
  MOM disabled.
  Fractional occupation disabled.
  Guess Type is CORE.
  Energy threshold   = 1.00e-08
  Density threshold  = 1.00e-08
  Integral threshold = 0.00e+00

  ==> Primary Basis <==

  Basis Set: CC-PVDZ
    Number of shells: 12
    Number of basis function: 24
    Number of Cartesian functions: 25
    Spherical Harmonics?: true
    Max angular momentum: 2

  ==> Pre-Iterations <==

   -------------------------------------------------------
    Irrep   Nso     Nmo     Nalpha   Nbeta   Ndocc  Nsocc
   -------------------------------------------------------
     A1        11      11       0       0       0       0
     A2         2       2       0       0       0       0
     B1         4       4       0       0       0       0
     B2         7       7       0       0       0       0
   -------------------------------------------------------
    Total      24      24       5       5       5       0
   -------------------------------------------------------

  ==> Integral Setup <==

 MINTS: Wrapper to libmints.
   by Justin Turney

   Calculation information:
      Number of atoms:                   3
      Number of AO shells:              12
      Number of SO shells:               9
      Number of primitives:             32
      Number of atomic orbitals:        25
      Number of basis functions:        24

      Number of irreps:                  4
      Number of functions per irrep: [  11    2    4    7 ]

      Overlap, kinetic, potential, dipole, and quadrupole integrals
        stored in file 35.

      Computing two-electron integrals...done
      Computed 11412 non-zero two-electron integrals.
        Stored in file 33.

  Minimum eigenvalue in the overlap matrix is 3.4106682072E-02.
  Using Symmetric Orthogonalization.
  SCF Guess: Core (One-Electron) Hamiltonian.

  Initial RHF energy:   -58.55849566470143

  ==> Iterations <==

                        Total Energy        Delta E     Density RMS

   @RHF iter   1:   -68.87180267479319   -1.03133e+01   0.00000e+00 
	Occupation by irrep:
	         A1    A2    B1    B2 
	DOCC [     3,    0,    0,    2 ]

   @RHF iter   2:   -69.94949125097978   -1.07769e+00   5.56532e-01 DIIS
	Occupation by irrep:
	         A1    A2    B1    B2 
	DOCC [     3,    0,    1,    1 ]

   @RHF iter   3:   -75.73570621055298   -5.78621e+00   5.24136e-01 DIIS
   @RHF iter   4:   -76.00161952093447   -2.65913e-01   1.78902e-02 DIIS
   @RHF iter   5:   -76.02654628238967   -2.49268e-02   8.33976e-03 DIIS
   @RHF iter   6:   -76.02678892818912   -2.42646e-04   1.29790e-03 DIIS
   @RHF iter   7:   -76.02682901343417   -4.00852e-05   4.57883e-04 DIIS
   @RHF iter   8:   -76.02683060306589   -1.58963e-06   1.02120e-04 DIIS
   @RHF iter   9:   -76.02683069142056   -8.83547e-08   1.72358e-05 DIIS
   @RHF iter  10:   -76.02683069213569   -7.15133e-10   2.35364e-06 DIIS
   @RHF iter  11:   -76.02683069218206   -4.63700e-11   4.47762e-07 DIIS
   @RHF iter  12:   -76.02683069218340   -1.33582e-12   6.25466e-08 DIIS
   @RHF iter  13:   -76.02683069218347   -7.10543e-14   1.32561e-08 DIIS

  ==> Post-Iterations <==

	Orbital Energies (a.u.)
	-----------------------

	Doubly Occupied:                                                      

	   1A1   -20.550394     2A1    -1.337195     1B2    -0.699356  
	   3A1    -0.567060     1B1    -0.493261  

	Virtual:                                                              

	   4A1     0.185656     2B2     0.256379     3B2     0.789243  
	   5A1     0.855802     6A1     1.163592     2B1     1.200346  
	   4B2     1.253439     7A1     1.442906     1A2     1.477018  
	   3B1     1.673855     8A1     1.866766     5B2     1.936733  
	   6B2     2.454144     9A1     2.492555     4B1     3.287223  
	   2A2     3.338980    10A1     3.512296    11A1     3.865325  
	   7B2     4.149344  

	Final Occupation by Irrep:
	         A1    A2    B1    B2 
	DOCC [     3,    0,    1,    1 ]

  Energy converged.

  @RHF Final Energy:   -76.02683069218347

   => Energetics <=

    Nuclear Repulsion Energy =          9.2018551616727713
    One-Electron Energy =            -123.1628376915534488
    Two-Electron Energy =              37.9341518376972076
    DFT Functional Energy =             0.0000000000000000
    Empirical Dispersion Energy =       0.0000000000000000
    Total Energy =                    -76.0268306921834665

  ==> Properties <==

  Nuclear Dipole Moment: (a.u.)
     X:     0.0000      Y:     0.0000      Z:     0.9765

  Electronic Dipole Moment: (a.u.)
     X:     0.0000      Y:     0.0000      Z:    -0.1667

  Dipole Moment: (a.u.)
     X:     0.0000      Y:     0.0000      Z:     0.8098     Total:     0.8098

  Dipole Moment: (Debye)
     X:     0.0000      Y:     0.0000      Z:     2.0583     Total:     2.0583


  Saving occupied orbitals to File 180.

*** tstop() called on ugur at Fri Oct  5 11:27:05 2012
Module time:
	user time   =       0.08 seconds =       0.00 minutes
	system time =       0.01 seconds =       0.00 minutes
	total time  =          0 seconds =       0.00 minutes
Total time:
	user time   =       1.27 seconds =       0.02 minutes
	system time =       0.55 seconds =       0.01 minutes
	total time  =          2 seconds =       0.03 minutes

*** tstart() called on ugur
*** at Fri Oct  5 11:27:05 2012



  Options:
  ----------------------------------------------------------------------------
  BENCH                  => 0            CACHELEVEL             => 2          
  CC_MAXITER             => 50           CUTOFF                 => 14         
  DEBUG                  => 0            DERTYPE                => NONE       
  DIE_IF_NOT_CONVERGED   => TRUE         DIIS_MAX_VECS          => 4          
  DOCC                   => [  ]         DO_LEVEL_SHIFT         => FALSE      
  DO_SCS                 => TRUE      !  DO_SOS                 => FALSE      
  E3_SCALE               => 0.25         E_CONVERGENCE          => 1e-08      
  FREEZE_CORE            => FALSE        FROZEN_DOCC            => [  ]       
  FROZEN_UOCC            => [  ]         HESS_TYPE              => NONE       
  LEVEL_SHIFT            => 0.02         LINEQ_SOLVER           => CDGESV     
  MAT_NUM_COLUMN_PRINT   => 5            MAX_MOGRAD_CONVERGENCE => 0.0001     
  MO_MAXITER             => 50           MO_READ                => FALSE      
  MO_STEP_MAX            => 0.5          MO_WRITE               => FALSE      
  MP2_OS_SCALE           => 1.2          MP2_SS_SCALE           => 0.333333   
  MP3L_ENERGY            => FALSE        NAT_ORBS               => FALSE      
  NUM_FROZEN_DOCC        => 0            NUM_FROZEN_UOCC        => 0          
  OMP3_ORBS_PRINT        => FALSE        OPT_METHOD             => MSD        
  ORTH_TYPE              => MGS          PRINT                  => 1          
  PROPERTIES             => [  ]         PUREAM                 => TRUE       
  RMS_MOGRAD_CONVERGENCE => 1e-05        R_CONVERGENCE          => 1e-05      
  SOCC                   => [  ]         SOS_SCALE              => 1.3        
  SOS_SCALE2             => 1.2          TPDM_ABCD_TYPE         => DIRECT     
  UNITS                  => ANGSTROMS    WFN                    => SCF        


 ============================================================================== 
 ============================================================================== 
 ============================================================================== 

                       OMP3 (OO-MP3)   
              Program Written by Ugur Bozkaya,
              Latest Revision October 05, 2012.

              U. Bozkaya, J. Chem. Phys. 135, 224103 (2011).

 ============================================================================== 
 ============================================================================== 
 ============================================================================== 

	MO spaces per irreps... 

	IRREP   FC    OCC   VIR  FV 
	==============================
	  A1     0     3     8    0
	  A2     0     0     2    0
	  B1     0     1     3    0
	  B2     0     1     6    0
	==============================

	Computing MP2 energy using SCF MOs (Canonical MP2)... 
	============================================================================== 
	Nuclear Repulsion Energy (a.u.)    : 9.20185516167277
	SCF Energy (a.u.)                  : -76.02683069218347
	REF Energy (a.u.)                  : -76.02683069218335
	Alpha-Alpha Contribution (a.u.)    : -0.02575900832072
	Alpha-Beta Contribution (a.u.)     : -0.15241352990143
	Beta-Beta Contribution (a.u.)      : -0.02575900832072
	MP2 Correlation Energy (a.u.)      : -0.20393154654287
	MP2 Total Energy (a.u.)            : -76.23076223872623
	Scaled_SS Correlation Energy (a.u.): -0.01717267221381
	Scaled_OS Correlation Energy (a.u.): -0.18289623588172
	SCS-MP2 Total Energy (a.u.)        : -76.22689960027887
	SOS-MP2 Total Energy (a.u.)        : -76.22496828105521
	SCSN-MP2 Total Energy (a.u.)       : -76.11750240147228
	SCS-MI-MP2 Total Energy (a.u.)     : -76.15425434561139
	SCS-MP2-VDW Total Energy (a.u.)    : -76.24767901877792
	SOS-PI-MP2 Total Energy (a.u.)     : -76.24020963404536
	============================================================================== 


	Computing MP3 energy using SCF MOs (Canonical MP3)... 
	============================================================================== 
	Nuclear Repulsion Energy (a.u.)    : 9.20185516167277
	SCF Energy (a.u.)                  : -76.02683069218347
	REF Energy (a.u.)                  : -76.02683069218335
	Alpha-Alpha Contribution (a.u.)    : -0.02386882493456
	Alpha-Beta Contribution (a.u.)     : -0.16299226826912
	Beta-Beta Contribution (a.u.)      : -0.02386882493456
	3rd Order Energy (a.u.)            : -0.00679837159535
	MP3 Correlation Energy (a.u.)      : -0.21072991813823
	MP3 Total Energy (a.u.)            : -76.23756061032158
	SCS-MP3 Total Energy (a.u.)        : -76.22859919317770
	SOS-MP3 Total Energy (a.u.)        : -76.22666787395406
	SCSN-MP3 Total Energy (a.u.)       : -76.11920199437111
	SCS-MI-MP3 Total Energy (a.u.)     : -76.15595393851024
	SCS-MP3-VDW Total Energy (a.u.)    : -76.24937861167675
	SOS-PI-MP3 Total Energy (a.u.)     : -76.24190922694419
	============================================================================== 


	Number of independent-pairs:  33

  
 ============================================================================== 
 ================ Performing OMP3 iterations... =============================== 
 ============================================================================== 
	            Minimizing MP3-L Functional 
	            --------------------------- 
 Iter       E_total           DE           RMS MO Grad      MAX MO Grad      RMS Korb      MAX Korb      RMS T2    
 ----    ---------------    ----------     -----------      -----------     ----------    -----------   ----------  
   1     -76.2381130737     -5.52e-04       2.85e-04         5.86e-03        3.15e-04      4.89e-03      1.66e-07 
   2     -76.2381340411     -2.10e-05       5.82e-05         9.03e-04        6.32e-05      1.15e-03      3.42e-08 
   3     -76.2381354571     -1.42e-06       2.20e-05         3.33e-04        2.08e-05      5.48e-04      1.04e-08 
   4     -76.2381356501     -1.93e-07       8.71e-06         1.78e-04        7.75e-06      1.96e-04      3.68e-09 
   5     -76.2381356924     -4.23e-08       5.27e-06         6.82e-05        4.12e-06      1.18e-04      1.84e-09 
   6     -76.2381357004     -7.94e-09       2.60e-06         4.21e-05        1.85e-06      3.81e-05      7.71e-10 

 ============================================================================== 
 ======================== OMP3 ITERATIONS ARE CONVERGED ======================= 
 ============================================================================== 

	Computing MP2 energy using optimized MOs... 
	============================================================================== 
	Nuclear Repulsion Energy (a.u.)    : 9.20185516167277
	SCF Energy (a.u.)                  : -76.02683069218347
	REF Energy (a.u.)                  : -76.02624332732015
	Alpha-Alpha Contribution (a.u.)    : -0.02590716195466
	Alpha-Beta Contribution (a.u.)     : -0.15350472374903
	Beta-Beta Contribution (a.u.)      : -0.02590716195466
	MP2 Correlation Energy (a.u.)      : -0.21189237303368
	MP2 Total Energy (a.u.)            : -76.23156237497849
	Scaled_SS Correlation Energy (a.u.): -0.01727144130310
	Scaled_OS Correlation Energy (a.u.): -0.18420566849884
	SCS-MP2 Total Energy (a.u.)        : -76.22772043712209
	SOS-MP2 Total Energy (a.u.)        : -76.22579946819388
	SCSN-MP2 Total Energy (a.u.)       : -76.11743653740052
	SCS-MI-MP2 Total Energy (a.u.)     : -76.15448569466277
	SCS-MP2-VDW Total Energy (a.u.)    : -76.24863653567355
	SOS-PI-MP2 Total Energy (a.u.)     : -76.24114994056879
	============================================================================== 


	Computing MP3 energy using optimized MOs... 
	============================================================================== 
	Nuclear Repulsion Energy (a.u.)    : 9.20185516167277
	SCF Energy (a.u.)                  : -76.02683069218347
	REF Energy (a.u.)                  : -76.02624332732015
	Alpha-Alpha Contribution (a.u.)    : -0.02394105199540
	Alpha-Beta Contribution (a.u.)     : -0.16401026904288
	Beta-Beta Contribution (a.u.)      : -0.02394105199540
	3rd Order Energy (a.u.)            : -0.00657332537533
	MP3 Correlation Energy (a.u.)      : -0.21189237303368
	MP3 Total Energy (a.u.)            : -76.23813570035382
	SCS-MP3 Total Energy (a.u.)        : -76.22936376846592
	SOS-MP3 Total Energy (a.u.)        : -76.22744279953771
	SCSN-MP3 Total Energy (a.u.)       : -76.11907986874435
	SCS-MI-MP3 Total Energy (a.u.)     : -76.15612902600660
	SCS-MP3-VDW Total Energy (a.u.)    : -76.25027986701738
	SOS-PI-MP3 Total Energy (a.u.)     : -76.24279327191262
	============================================================================== 


	============================================================================== 
	================ OMP3 FINAL RESULTS ========================================== 
	============================================================================== 
	Nuclear Repulsion Energy (a.u.)    : 9.20185516167277
	SCF Energy (a.u.)                  : -76.02683069218347
	REF Energy (a.u.)                  : -76.02624332732015
	OMP3 Correlation Energy (a.u.)     : -0.21130500817036
	Eomp3 - Eref (a.u.)                : -0.21189237303368
	OMP3 Total Energy (a.u.)           : -76.23813570035382
	SCS-OMP3 Total Energy (a.u.)       : -76.22936376846592
	SOS-OMP3 Total Energy (a.u.)       : -76.22744279953771
	SCSN-OMP3 Total Energy (a.u.)      : -76.11907986874435
	SCS-MI-OMP3 Total Energy (a.u.)    : -76.15612902600660
	SCS-OMP3-VDW Total Energy (a.u.    : -76.25027986701738
	SOS-PI-OMP3 Total Energy (a.u.)    : -76.24279327191262
	============================================================================== 


*** tstop() called on ugur at Fri Oct  5 11:27:05 2012
Module time:
	user time   =       0.30 seconds =       0.00 minutes
	system time =       0.18 seconds =       0.00 minutes
	total time  =          0 seconds =       0.00 minutes
Total time:
	user time   =       1.57 seconds =       0.03 minutes
	system time =       0.73 seconds =       0.01 minutes
	total time  =          2 seconds =       0.03 minutes

  //>>>>>>>>>>>>>>>>>>>>>>>>>>>>>>>>>>>//
  //    Loading displacement 5 of 5    //
  //<<<<<<<<<<<<<<<<<<<<<<<<<<<<<<<<<<<//

*** tstart() called on ugur
*** at Fri Oct  5 11:27:05 2012


         ---------------------------------------------------------
                                   SCF
            by Justin Turney, Rob Parrish, and Andy Simmonett
                              RHF Reference
                        2 Threads,    250 MiB Core
         ---------------------------------------------------------

  ==> Geometry <==

    Molecular point group: c2v
    Full point group: C2v

    Geometry (in Angstrom), charge = 0, multiplicity = 1:

       Center              X                  Y                   Z       
    ------------   -----------------  -----------------  -----------------
           O          0.000000000000     0.000000000000    -0.065655108074
           H          0.000000000000    -0.757365949175     0.520997104936
           H          0.000000000000     0.757365949175     0.520997104936

  Running in c2v symmetry.

  Nuclear repulsion =    9.187386421477592

  Charge       = 0
  Multiplicity = 1
  Electrons    = 10
  Nalpha       = 5
  Nbeta        = 5

  ==> Algorithm <==

  SCF Algorithm Type is PK.
  DIIS enabled.
  MOM disabled.
  Fractional occupation disabled.
  Guess Type is CORE.
  Energy threshold   = 1.00e-08
  Density threshold  = 1.00e-08
  Integral threshold = 0.00e+00

  ==> Primary Basis <==

  Basis Set: CC-PVDZ
    Number of shells: 12
    Number of basis function: 24
    Number of Cartesian functions: 25
    Spherical Harmonics?: true
    Max angular momentum: 2

  ==> Pre-Iterations <==

   -------------------------------------------------------
    Irrep   Nso     Nmo     Nalpha   Nbeta   Ndocc  Nsocc
   -------------------------------------------------------
     A1        11      11       0       0       0       0
     A2         2       2       0       0       0       0
     B1         4       4       0       0       0       0
     B2         7       7       0       0       0       0
   -------------------------------------------------------
    Total      24      24       5       5       5       0
   -------------------------------------------------------

  ==> Integral Setup <==

 MINTS: Wrapper to libmints.
   by Justin Turney

   Calculation information:
      Number of atoms:                   3
      Number of AO shells:              12
      Number of SO shells:               9
      Number of primitives:             32
      Number of atomic orbitals:        25
      Number of basis functions:        24

      Number of irreps:                  4
      Number of functions per irrep: [  11    2    4    7 ]

      Overlap, kinetic, potential, dipole, and quadrupole integrals
        stored in file 35.

      Computing two-electron integrals...done
      Computed 11412 non-zero two-electron integrals.
        Stored in file 33.

  Minimum eigenvalue in the overlap matrix is 3.4230868664E-02.
  Using Symmetric Orthogonalization.
  SCF Guess: Core (One-Electron) Hamiltonian.

  Initial RHF energy:   -58.56332129244273

  ==> Iterations <==

                        Total Energy        Delta E     Density RMS

   @RHF iter   1:   -68.87414405851878   -1.03108e+01   0.00000e+00 
	Occupation by irrep:
	         A1    A2    B1    B2 
	DOCC [     3,    0,    0,    2 ]

   @RHF iter   2:   -69.94961388024056   -1.07547e+00   5.55252e-01 DIIS
	Occupation by irrep:
	         A1    A2    B1    B2 
	DOCC [     3,    0,    1,    1 ]

   @RHF iter   3:   -75.73691793435388   -5.78730e+00   5.22818e-01 DIIS
   @RHF iter   4:   -76.00165601705392   -2.64738e-01   1.78444e-02 DIIS
   @RHF iter   5:   -76.02647588165976   -2.48199e-02   8.31833e-03 DIIS
   @RHF iter   6:   -76.02671906756555   -2.43186e-04   1.29848e-03 DIIS
   @RHF iter   7:   -76.02675940507525   -4.03375e-05   4.58752e-04 DIIS
   @RHF iter   8:   -76.02676100593212   -1.60086e-06   1.02501e-04 DIIS
   @RHF iter   9:   -76.02676109481283   -8.88807e-08   1.72853e-05 DIIS
   @RHF iter  10:   -76.02676109554527   -7.32442e-10   2.38367e-06 DIIS
   @RHF iter  11:   -76.02676109559290   -4.76348e-11   4.54970e-07 DIIS
   @RHF iter  12:   -76.02676109559431   -1.40687e-12   6.31903e-08 DIIS
   @RHF iter  13:   -76.02676109559430    1.42109e-14   1.33221e-08 DIIS

  ==> Post-Iterations <==

	Orbital Energies (a.u.)
	-----------------------

	Doubly Occupied:                                                      

	   1A1   -20.550579     2A1    -1.336336     1B2    -0.698827  
	   3A1    -0.566506     1B1    -0.493105  

	Virtual:                                                              

	   4A1     0.185436     2B2     0.256147     3B2     0.788656  
	   5A1     0.853784     6A1     1.163587     2B1     1.200369  
	   4B2     1.253383     7A1     1.444392     1A2     1.476182  
	   3B1     1.674338     8A1     1.867382     5B2     1.934293  
	   6B2     2.451040     9A1     2.488585     4B1     3.285193  
	   2A2     3.338052    10A1     3.509722    11A1     3.864815  
	   7B2     4.146867  

	Final Occupation by Irrep:
	         A1    A2    B1    B2 
	DOCC [     3,    0,    1,    1 ]

  Energy converged.

  @RHF Final Energy:   -76.02676109559430

   => Energetics <=

    Nuclear Repulsion Energy =          9.1873864214775924
    One-Electron Energy =            -123.1375893643539428
    Two-Electron Energy =              37.9234418472820636
    DFT Functional Energy =             0.0000000000000000
    Empirical Dispersion Energy =       0.0000000000000000
    Total Energy =                    -76.0267610955942814

  ==> Properties <==

  Nuclear Dipole Moment: (a.u.)
     X:     0.0000      Y:     0.0000      Z:     0.9765

  Electronic Dipole Moment: (a.u.)
     X:     0.0000      Y:     0.0000      Z:    -0.1670

  Dipole Moment: (a.u.)
     X:     0.0000      Y:     0.0000      Z:     0.8095     Total:     0.8095

  Dipole Moment: (Debye)
     X:     0.0000      Y:     0.0000      Z:     2.0576     Total:     2.0576


  Saving occupied orbitals to File 180.

*** tstop() called on ugur at Fri Oct  5 11:27:05 2012
Module time:
	user time   =       0.08 seconds =       0.00 minutes
	system time =       0.01 seconds =       0.00 minutes
	total time  =          0 seconds =       0.00 minutes
Total time:
	user time   =       1.65 seconds =       0.03 minutes
	system time =       0.74 seconds =       0.01 minutes
	total time  =          2 seconds =       0.03 minutes

*** tstart() called on ugur
*** at Fri Oct  5 11:27:05 2012



  Options:
  ----------------------------------------------------------------------------
  BENCH                  => 0            CACHELEVEL             => 2          
  CC_MAXITER             => 50           CUTOFF                 => 14         
  DEBUG                  => 0            DERTYPE                => NONE       
  DIE_IF_NOT_CONVERGED   => TRUE         DIIS_MAX_VECS          => 4          
  DOCC                   => [  ]         DO_LEVEL_SHIFT         => FALSE      
  DO_SCS                 => TRUE      !  DO_SOS                 => FALSE      
  E3_SCALE               => 0.25         E_CONVERGENCE          => 1e-08      
  FREEZE_CORE            => FALSE        FROZEN_DOCC            => [  ]       
  FROZEN_UOCC            => [  ]         HESS_TYPE              => NONE       
  LEVEL_SHIFT            => 0.02         LINEQ_SOLVER           => CDGESV     
  MAT_NUM_COLUMN_PRINT   => 5            MAX_MOGRAD_CONVERGENCE => 0.0001     
  MO_MAXITER             => 50           MO_READ                => FALSE      
  MO_STEP_MAX            => 0.5          MO_WRITE               => FALSE      
  MP2_OS_SCALE           => 1.2          MP2_SS_SCALE           => 0.333333   
  MP3L_ENERGY            => FALSE        NAT_ORBS               => FALSE      
  NUM_FROZEN_DOCC        => 0            NUM_FROZEN_UOCC        => 0          
  OMP3_ORBS_PRINT        => FALSE        OPT_METHOD             => MSD        
  ORTH_TYPE              => MGS          PRINT                  => 1          
  PROPERTIES             => [  ]         PUREAM                 => TRUE       
  RMS_MOGRAD_CONVERGENCE => 1e-05        R_CONVERGENCE          => 1e-05      
  SOCC                   => [  ]         SOS_SCALE              => 1.3        
  SOS_SCALE2             => 1.2          TPDM_ABCD_TYPE         => DIRECT     
  UNITS                  => ANGSTROMS    WFN                    => SCF        


 ============================================================================== 
 ============================================================================== 
 ============================================================================== 

                       OMP3 (OO-MP3)   
              Program Written by Ugur Bozkaya,
              Latest Revision October 05, 2012.

              U. Bozkaya, J. Chem. Phys. 135, 224103 (2011).

 ============================================================================== 
 ============================================================================== 
 ============================================================================== 

	MO spaces per irreps... 

	IRREP   FC    OCC   VIR  FV 
	==============================
	  A1     0     3     8    0
	  A2     0     0     2    0
	  B1     0     1     3    0
	  B2     0     1     6    0
	==============================

	Computing MP2 energy using SCF MOs (Canonical MP2)... 
	============================================================================== 
	Nuclear Repulsion Energy (a.u.)    : 9.18738642147759
	SCF Energy (a.u.)                  : -76.02676109559430
	REF Energy (a.u.)                  : -76.02676109559430
	Alpha-Alpha Contribution (a.u.)    : -0.02576501623328
	Alpha-Beta Contribution (a.u.)     : -0.15248920679165
	Beta-Beta Contribution (a.u.)      : -0.02576501623328
	MP2 Correlation Energy (a.u.)      : -0.20401923925821
	MP2 Total Energy (a.u.)            : -76.23078033485251
	Scaled_SS Correlation Energy (a.u.): -0.01717667748885
	Scaled_OS Correlation Energy (a.u.): -0.18298704814998
	SCS-MP2 Total Energy (a.u.)        : -76.22692482123313
	SOS-MP2 Total Energy (a.u.)        : -76.22499706442343
	SCSN-MP2 Total Energy (a.u.)       : -76.11745395273546
	SCS-MI-MP2 Total Energy (a.u.)     : -76.15423052019283
	SCS-MP2-VDW Total Energy (a.u.)    : -76.24771229652090
	SOS-PI-MP2 Total Energy (a.u.)     : -76.24024598510260
	============================================================================== 


	Computing MP3 energy using SCF MOs (Canonical MP3)... 
	============================================================================== 
	Nuclear Repulsion Energy (a.u.)    : 9.18738642147759
	SCF Energy (a.u.)                  : -76.02676109559430
	REF Energy (a.u.)                  : -76.02676109559430
	Alpha-Alpha Contribution (a.u.)    : -0.02386824219943
[...]
  Electrons    = 10
  Nalpha       = 5
  Nbeta        = 5

  ==> Algorithm <==

  SCF Algorithm Type is PK.
  DIIS enabled.
  MOM disabled.
  Fractional occupation disabled.
  Guess Type is READ.
  Energy threshold   = 1.00e-08
  Density threshold  = 1.00e-08
  Integral threshold = 0.00e+00

  ==> Primary Basis <==

  Basis Set: CC-PVDZ
    Number of shells: 12
    Number of basis function: 24
    Number of Cartesian functions: 25
    Spherical Harmonics?: true
    Max angular momentum: 2

  ==> Pre-Iterations <==

   -------------------------------------------------------
    Irrep   Nso     Nmo     Nalpha   Nbeta   Ndocc  Nsocc
   -------------------------------------------------------
     A1        11      11       0       0       0       0
     A2         2       2       0       0       0       0
     B1         4       4       0       0       0       0
     B2         7       7       0       0       0       0
   -------------------------------------------------------
    Total      24      24       5       5       5       0
   -------------------------------------------------------

  ==> Integral Setup <==

 MINTS: Wrapper to libmints.
   by Justin Turney

   Calculation information:
      Number of atoms:                   3
      Number of AO shells:              12
      Number of SO shells:               9
      Number of primitives:             32
      Number of atomic orbitals:        25
      Number of basis functions:        24

      Number of irreps:                  4
      Number of functions per irrep: [  11    2    4    7 ]

      Overlap, kinetic, potential, dipole, and quadrupole integrals
        stored in file 35.

      Computing two-electron integrals...done
      Computed 11412 non-zero two-electron integrals.
        Stored in file 33.

  Minimum eigenvalue in the overlap matrix is 3.4448482883E-02.
  Using Symmetric Orthogonalization.
  SCF Guess: Projection.

  Using orbitals from previous SCF, no projection.
  Initial RHF energy:   -76.02624839267440

  ==> Iterations <==

                        Total Energy        Delta E     Density RMS

   @RHF iter   0:   -76.02410365926816    2.14473e-03   0.00000e+00 
   @RHF iter   1:   -76.02615818664061   -2.05453e-03   9.80808e-05 
   @RHF iter   2:   -76.02615846095894   -2.74318e-07   4.28121e-05 DIIS
   @RHF iter   3:   -76.02615852404267   -6.30837e-08   1.25155e-05 DIIS
   @RHF iter   4:   -76.02615852662579   -2.58312e-09   3.56940e-06 DIIS
   @RHF iter   5:   -76.02615852682425   -1.98455e-10   1.09734e-06 DIIS
   @RHF iter   6:   -76.02615852683334   -9.09495e-12   2.66228e-07 DIIS
   @RHF iter   7:   -76.02615852683365   -3.12639e-13   4.55364e-08 DIIS

  ==> Post-Iterations <==

	Orbital Energies (a.u.)
	-----------------------

	Doubly Occupied:                                                      

	   1A1   -20.553304     2A1    -1.334351     1B2    -0.689974  
	   3A1    -0.570095     1B1    -0.493452  

	Virtual:                                                              

	   4A1     0.183597     2B2     0.255239     3B2     0.774984  
	   5A1     0.857300     6A1     1.166328     2B1     1.199581  
	   4B2     1.256485     7A1     1.422525     1A2     1.482395  
	   3B1     1.659098     8A1     1.863872     5B2     1.940117  
	   6B2     2.426750     9A1     2.473713     4B1     3.290738  
	   2A2     3.321132    10A1     3.507058    11A1     3.839682  
	   7B2     4.151271  

	Final Occupation by Irrep:
	         A1    A2    B1    B2 
	DOCC [     3,    0,    1,    1 ]

  Energy converged.

  @RHF Final Energy:   -76.02615852683365

   => Energetics <=

    Nuclear Repulsion Energy =          9.1187156839666894
    One-Electron Energy =            -123.0073973619737728
    Two-Electron Energy =              37.8625231511734199
    DFT Functional Energy =             0.0000000000000000
    Empirical Dispersion Energy =       0.0000000000000000
    Total Energy =                    -76.0261585268336688

  ==> Properties <==

  Nuclear Dipole Moment: (a.u.)
     X:     0.0000      Y:     0.0000      Z:     1.0116

  Electronic Dipole Moment: (a.u.)
     X:     0.0000      Y:     0.0000      Z:    -0.1845

  Dipole Moment: (a.u.)
     X:     0.0000      Y:     0.0000      Z:     0.8270     Total:     0.8270

  Dipole Moment: (Debye)
     X:     0.0000      Y:     0.0000      Z:     2.1021     Total:     2.1021


  Saving occupied orbitals to File 180.

*** tstop() called on ugur at Fri Oct  5 11:27:11 2012
Module time:
	user time   =       0.09 seconds =       0.00 minutes
	system time =       0.00 seconds =       0.00 minutes
	total time  =          0 seconds =       0.00 minutes
Total time:
	user time   =       5.41 seconds =       0.09 minutes
	system time =       2.49 seconds =       0.04 minutes
	total time  =          8 seconds =       0.13 minutes

*** tstart() called on ugur
*** at Fri Oct  5 11:27:11 2012



  Options:
  ----------------------------------------------------------------------------
  BENCH                  => 0            CACHELEVEL             => 2          
  CC_MAXITER             => 50           CUTOFF                 => 14         
  DEBUG                  => 0            DERTYPE                => NONE       
  DIE_IF_NOT_CONVERGED   => TRUE         DIIS_MAX_VECS          => 4          
  DOCC                   => [  ]         DO_LEVEL_SHIFT         => FALSE      
  DO_SCS                 => TRUE      !  DO_SOS                 => FALSE      
  E3_SCALE               => 0.25         E_CONVERGENCE          => 1e-08      
  FREEZE_CORE            => FALSE        FROZEN_DOCC            => [  ]       
  FROZEN_UOCC            => [  ]         HESS_TYPE              => NONE       
  LEVEL_SHIFT            => 0.02         LINEQ_SOLVER           => CDGESV     
  MAT_NUM_COLUMN_PRINT   => 5            MAX_MOGRAD_CONVERGENCE => 0.0001     
  MO_MAXITER             => 50           MO_READ                => FALSE      
  MO_STEP_MAX            => 0.5          MO_WRITE               => FALSE      
  MP2_OS_SCALE           => 1.2          MP2_SS_SCALE           => 0.333333   
  MP3L_ENERGY            => FALSE        NAT_ORBS               => FALSE      
  NUM_FROZEN_DOCC        => 0            NUM_FROZEN_UOCC        => 0          
  OMP3_ORBS_PRINT        => FALSE        OPT_METHOD             => MSD        
  ORTH_TYPE              => MGS          PRINT                  => 1          
  PROPERTIES             => [  ]         PUREAM                 => TRUE       
  RMS_MOGRAD_CONVERGENCE => 1e-05        R_CONVERGENCE          => 1e-05      
  SOCC                   => [  ]         SOS_SCALE              => 1.3        
  SOS_SCALE2             => 1.2          TPDM_ABCD_TYPE         => DIRECT     
  UNITS                  => ANGSTROMS    WFN                    => SCF        


 ============================================================================== 
 ============================================================================== 
 ============================================================================== 

                       OMP3 (OO-MP3)   
              Program Written by Ugur Bozkaya,
              Latest Revision October 05, 2012.

              U. Bozkaya, J. Chem. Phys. 135, 224103 (2011).

 ============================================================================== 
 ============================================================================== 
 ============================================================================== 

	MO spaces per irreps... 

	IRREP   FC    OCC   VIR  FV 
	==============================
	  A1     0     3     8    0
	  A2     0     0     2    0
	  B1     0     1     3    0
	  B2     0     1     6    0
	==============================

	Computing MP2 energy using SCF MOs (Canonical MP2)... 
	============================================================================== 
	Nuclear Repulsion Energy (a.u.)    : 9.11871568396669
	SCF Energy (a.u.)                  : -76.02615852683365
	REF Energy (a.u.)                  : -76.02615852683367
	Alpha-Alpha Contribution (a.u.)    : -0.02584572591778
	Alpha-Beta Contribution (a.u.)     : -0.15313455087279
	Beta-Beta Contribution (a.u.)      : -0.02584572591778
	MP2 Correlation Energy (a.u.)      : -0.20482600270834
	MP2 Total Energy (a.u.)            : -76.23098452954201
	Scaled_SS Correlation Energy (a.u.): -0.01723048394519
	Scaled_OS Correlation Energy (a.u.): -0.18376146104735
	SCS-MP2 Total Energy (a.u.)        : -76.22715047182619
	SOS-MP2 Total Energy (a.u.)        : -76.22523344296829
	SCSN-MP2 Total Energy (a.u.)       : -76.11713548206426
	SCS-MI-MP2 Total Energy (a.u.)     : -76.15409432005063
	SCS-MP2-VDW Total Energy (a.u.)    : -76.24801647786862
	SOS-PI-MP2 Total Energy (a.u.)     : -76.24054689805557
	============================================================================== 


	Computing MP3 energy using SCF MOs (Canonical MP3)... 
	============================================================================== 
	Nuclear Repulsion Energy (a.u.)    : 9.11871568396669
	SCF Energy (a.u.)                  : -76.02615852683365
	REF Energy (a.u.)                  : -76.02615852683367
	Alpha-Alpha Contribution (a.u.)    : -0.02390048607023
	Alpha-Beta Contribution (a.u.)     : -0.16370863157187
	Beta-Beta Contribution (a.u.)      : -0.02390048607023
	3rd Order Energy (a.u.)            : -0.00668360100399
	MP3 Correlation Energy (a.u.)      : -0.21150960371232
	MP3 Total Energy (a.u.)            : -76.23766813054600
	SCS-MP3 Total Energy (a.u.)        : -76.22882137207719
	SOS-MP3 Total Energy (a.u.)        : -76.22690434321929
	SCSN-MP3 Total Energy (a.u.)       : -76.11880638231526
	SCS-MI-MP3 Total Energy (a.u.)     : -76.15576522030163
	SCS-MP3-VDW Total Energy (a.u.)    : -76.24968737811962
	SOS-PI-MP3 Total Energy (a.u.)     : -76.24221779830657
	============================================================================== 


	Number of independent-pairs:  33

  
 ============================================================================== 
 ================ Performing OMP3 iterations... =============================== 
 ============================================================================== 
	            Minimizing MP3-L Functional 
	            --------------------------- 
 Iter       E_total           DE           RMS MO Grad      MAX MO Grad      RMS Korb      MAX Korb      RMS T2    
 ----    ---------------    ----------     -----------      -----------     ----------    -----------   ----------  
   1     -76.2382472743     -5.79e-04       2.92e-04         5.95e-03        3.25e-04      4.99e-03      1.75e-07 
   2     -76.2382695744     -2.23e-05       6.05e-05         9.23e-04        6.54e-05      1.21e-03      3.63e-08 
   3     -76.2382711233     -1.55e-06       2.30e-05         3.49e-04        2.17e-05      5.73e-04      1.12e-08 
   4     -76.2382713371     -2.14e-07       9.15e-06         1.87e-04        8.13e-06      2.04e-04      3.97e-09 
   5     -76.2382713840     -4.69e-08       5.54e-06         7.22e-05        4.33e-06      1.24e-04      1.98e-09 
   6     -76.2382713928     -8.77e-09       2.75e-06         4.47e-05        1.95e-06      3.93e-05      8.35e-10 

 ============================================================================== 
 ======================== OMP3 ITERATIONS ARE CONVERGED ======================= 
 ============================================================================== 

	Computing MP2 energy using optimized MOs... 
	============================================================================== 
	Nuclear Repulsion Energy (a.u.)    : 9.11871568396669
	SCF Energy (a.u.)                  : -76.02615852683365
	REF Energy (a.u.)                  : -76.02554211701495
	Alpha-Alpha Contribution (a.u.)    : -0.02600105387616
	Alpha-Beta Contribution (a.u.)     : -0.15428202624408
	Beta-Beta Contribution (a.u.)      : -0.02600105387616
	MP2 Correlation Energy (a.u.)      : -0.21272927580552
	MP2 Total Energy (a.u.)            : -76.23182625101134
	Scaled_SS Correlation Energy (a.u.): -0.01733403591744
	Scaled_OS Correlation Energy (a.u.): -0.18513843149290
	SCS-MP2 Total Energy (a.u.)        : -76.22801458442528
	SOS-MP2 Total Energy (a.u.)        : -76.22610875113226
	SCSN-MP2 Total Energy (a.u.)       : -76.11706582665902
	SCS-MI-MP2 Total Energy (a.u.)     : -76.15433764651308
	SCS-MP2-VDW Total Energy (a.u.)    : -76.24902416448354
	SOS-PI-MP2 Total Energy (a.u.)     : -76.24153695375666
	============================================================================== 


	Computing MP3 energy using optimized MOs... 
	============================================================================== 
	Nuclear Repulsion Energy (a.u.)    : 9.11871568396669
	SCF Energy (a.u.)                  : -76.02615852683365
	REF Energy (a.u.)                  : -76.02554211701495
	Alpha-Alpha Contribution (a.u.)    : -0.02397546237511
	Alpha-Beta Contribution (a.u.)     : -0.16477835105530
	Beta-Beta Contribution (a.u.)      : -0.02397546237511
	3rd Order Energy (a.u.)            : -0.00644514180912
	MP3 Correlation Energy (a.u.)      : -0.21272927580552
	MP3 Total Energy (a.u.)            : -76.23827139282047
	SCS-MP3 Total Energy (a.u.)        : -76.22962586987757
	SOS-MP3 Total Energy (a.u.)        : -76.22772003658454
	SCSN-MP3 Total Energy (a.u.)       : -76.11867711211130
	SCS-MI-MP3 Total Energy (a.u.)     : -76.15594893196537
	SCS-MP3-VDW Total Energy (a.u.)    : -76.25063544993583
	SOS-PI-MP3 Total Energy (a.u.)     : -76.24314823920895
	============================================================================== 


	============================================================================== 
	================ OMP3 FINAL RESULTS ========================================== 
	============================================================================== 
	Nuclear Repulsion Energy (a.u.)    : 9.11871568396669
	SCF Energy (a.u.)                  : -76.02615852683365
	REF Energy (a.u.)                  : -76.02554211701495
	OMP3 Correlation Energy (a.u.)     : -0.21211286598681
	Eomp3 - Eref (a.u.)                : -0.21272927580551
	OMP3 Total Energy (a.u.)           : -76.23827139282047
	SCS-OMP3 Total Energy (a.u.)       : -76.22962586987757
	SOS-OMP3 Total Energy (a.u.)       : -76.22772003658454
	SCSN-OMP3 Total Energy (a.u.)      : -76.11867711211130
	SCS-MI-OMP3 Total Energy (a.u.)    : -76.15594893196537
	SCS-OMP3-VDW Total Energy (a.u.    : -76.25063544993583
	SOS-PI-OMP3 Total Energy (a.u.)    : -76.24314823920895
	============================================================================== 


*** tstop() called on ugur at Fri Oct  5 11:27:11 2012
Module time:
	user time   =       0.29 seconds =       0.00 minutes
	system time =       0.19 seconds =       0.00 minutes
	total time  =          0 seconds =       0.00 minutes
Total time:
	user time   =       5.70 seconds =       0.10 minutes
	system time =       2.68 seconds =       0.04 minutes
	total time  =          8 seconds =       0.13 minutes

-------------------------------------------------------------

  Computing gradient from energies (fd_1_0).
	Using 3-point formula.
	Energy without displacement:  -76.2296258699
	Check energies below for precision!
	Forces are for mass-weighted, symmetry-adapted cartesians (in au).

	 Coord      Energy(-)        Energy(+)        Force
	    0    -76.2296223952   -76.2296227005    -0.0000305288
	    1    -76.2296203309   -76.2296214933    -0.0001162398

	Gradient written to file11.
	Gradient saved to wavefunction.

-------------------------------------------------------------

			----------------------------------
			 OPTKING: for geometry optimizations  
			  - R.A. King,  Bethel University   
			------------------------------------

	Previous internal coordinate definitions found.
	---Fragment 1 Geometry and Gradient---
	 O           0.0000000000        0.0000000000       -0.1285208790
	 H           0.0000000000       -1.4186265270        1.0198598073
	 H           0.0000000000        1.4186265270        1.0198598073
	             0.0000000000        0.0000000000       -0.0000408455
	             0.0000000000       -0.0000825149        0.0000204228
	             0.0000000000        0.0000825149        0.0000204228

	---Fragment 1 Intrafragment Coordinates---
	 - Coordinate -           - BOHR/RAD -       - ANG/DEG -
	 R(1,2)           =         1.825179	       0.965843
	 R(1,3)           =         1.825179	       0.965843
	 B(2,1,3)         =         1.780577	     102.019538

	Current energy   :       -76.2296258699

	Energy change for the previous step:
		Projected    :        -0.0000049051
		Actual       :        -0.0000047523
	Energy ratio indicates good step: Trust radius increased to 1.000e+00.


	Performing BFGS update with previous 1 gradient(s).
	Going to follow RFO solution 1.
	Projected energy change by RFO approximation:        -0.0000000223

	Back-transformation to cartesian coordinates...
	Successfully converged to displaced geometry.

	---Internal Coordinate Step in ANG or DEG, aJ/ANG or AJ/DEG ---
	 ----------------------------------------------------------------------
	 Coordinate             Previous        Force       Change         New 
	 ----------             --------       ------       ------       ------
	 R(1,2)          =      0.965843    -0.000634    -0.000068     0.965776
	 R(1,3)          =      0.965843    -0.000634    -0.000068     0.965776
	 B(2,1,3)        =    102.019538    -0.000005    -0.021739   101.997798
	 ----------------------------------------------------------------------

  ==> Convergence Check <==

  Measures of convergence in internal coordinates in au.
  Criteria marked as inactive (o), active & met (*), and active & unmet ( ).
  ---------------------------------------------------------------------------------------------
   Step     Total Energy     Delta E     MAX Force     RMS Force      MAX Disp      RMS Disp   
  ---------------------------------------------------------------------------------------------
    Convergence Criteria    1.00e-06 *    3.00e-04 *             o    1.20e-03 *             o
  ---------------------------------------------------------------------------------------------
      3     -76.22962587   -4.75e-06      7.70e-05 *    7.34e-05 o    3.79e-04 *    2.43e-04 o  ~
  ---------------------------------------------------------------------------------------------


  **** Optimization is complete! ****

  ==> Optimization Summary <==

  Measures of convergence in internal coordinates in au.
  --------------------------------------------------------------------------------------------------------------- ~
   Step         Total Energy             Delta E       MAX Force       RMS Force        MAX Disp        RMS Disp  ~
  --------------------------------------------------------------------------------------------------------------- ~
      1     -76.229390468079    -76.229390468079      0.00660089      0.00653899      0.03998076      0.02501246  ~
      2     -76.229621117576     -0.000230649497      0.00144423      0.00119830      0.00302318      0.00298935  ~
      3     -76.229625869878     -0.000004752301      0.00007698      0.00007344      0.00037942      0.00024259  ~
  --------------------------------------------------------------------------------------------------------------- ~

	Writing optimization data to binary file.
	Final energy is    -76.2296258698776
	Final (previous) structure:
	Cartesian Geometry (au)
	    O     0.0000000000   0.0000000000  -0.1285208790
	    H     0.0000000000  -1.4186265270   1.0198598073
	    H     0.0000000000   1.4186265270   1.0198598073
	Saving final (previous) structure.
			--------------------------
			 OPTKING Finished Execution 
			--------------------------

	Final optimized geometry and variables (in Angstrom):

	O
	H     1    0.965843
	H     1    0.965843     2  102.019538


*** PSI4 exiting successfully. Buy a developer a beer!
