
    -----------------------------------------------------------------------
          Psi4: An Open-Source Ab Initio Electronic Structure Package
                               Psi4 1.1rc3.dev5 

                         Git: Rev {master} 3fbd859 


    R. M. Parrish, L. A. Burns, D. G. A. Smith, A. C. Simmonett,
    A. E. DePrince III, E. G. Hohenstein, U. Bozkaya, A. Yu. Sokolov,
    R. Di Remigio, R. M. Richard, J. F. Gonthier, A. M. James,
    H. R. McAlexander, A. Kumar, M. Saitow, X. Wang, B. P. Pritchard,
    P. Verma, H. F. Schaefer III, K. Patkowski, R. A. King, E. F. Valeev,
    F. A. Evangelista, J. M. Turney, T. D. Crawford, and C. D. Sherrill,
    J. Chem. Theory Comput. in press (2017).
    (doi: 10.1021/acs.jctc.7b00174)

    -----------------------------------------------------------------------


    Psi4 started on: Monday, 15 May 2017 03:37PM

    Process ID:  14862
    PSIDATADIR: /home/psilocaluser/gits/hrw-direct/objdir4/stage/usr/local/psi4/share/psi4
    Memory:     500.0 MiB
    Threads:    1
    
  ==> Input File <==

--------------------------------------------------------------------------
#! SCS-OMP3 cc-pVDZ geometry optimization for the H2O molecule.

refnuc      =  9.11871568396669 #TEST
refscf      = -76.02615852683365 #TEST
refscsomp3  = -76.22962586987757 #TEST

molecule h2o { 
0 1
o
h 1 0.958
h 1 0.958 2 104.4776 
}

set {
    basis cc-pvdz
}

thisenergy = optimize('scs-omp3')

compare_values(refnuc, get_variable("NUCLEAR REPULSION ENERGY"), 5, "Nuclear Repulsion Energy (a.u.)"); #TEST
compare_values(refscf, get_variable("SCF TOTAL ENERGY"), 6, "SCF Energy (a.u.)");             #TEST
compare_values(refscsomp3, thisenergy, 6, "SCS-OMP3 Total Energy (a.u.)");                #TEST

--------------------------------------------------------------------------
gradient() will perform gradient computation by finite difference of analytic energies.

-------------------------------------------------------------

  Using finite-differences of energies to determine gradients (fd_geoms_1_0).
	Generating geometries for use with 3-point formula.
	Displacement size will be 5.00e-03.
	Number of atoms is 3.
	Number of symmetric SALC's is 2.
	Number of displacements (including reference) is 5.

-------------------------------------------------------------

  //>>>>>>>>>>>>>>>>>>>>>>>>>>>>>>>>>>>//
  //    Loading displacement 1 of 5    //
  //<<<<<<<<<<<<<<<<<<<<<<<<<<<<<<<<<<<//

*** tstart() called on psinet
*** at Mon May 15 15:37:45 2017

   => Loading Basis Set <=

    Name: CC-PVDZ
    Role: ORBITAL
    Keyword: BASIS
    atoms 1   entry O          line   190 file /home/psilocaluser/gits/hrw-direct/objdir4/stage/usr/local/psi4/share/psi4/basis/cc-pvdz.gbs 
    atoms 2-3 entry H          line    20 file /home/psilocaluser/gits/hrw-direct/objdir4/stage/usr/local/psi4/share/psi4/basis/cc-pvdz.gbs 


         ---------------------------------------------------------
                                   SCF
            by Justin Turney, Rob Parrish, and Andy Simmonett
                              RHF Reference
                        1 Threads,    500 MiB Core
         ---------------------------------------------------------

  ==> Geometry <==

    Molecular point group: c2v
    Full point group: C2v

    Geometry (in Angstrom), charge = 0, multiplicity = 1:

       Center              X                  Y                   Z               Mass       
    ------------   -----------------  -----------------  -----------------  -----------------
           O          0.000000000000     0.000000000000    -0.065876429814    15.994914619560
           H          0.000000000000    -0.757365949175     0.522753373248     1.007825032070
           H          0.000000000000     0.757365949175     0.522753373248     1.007825032070

  Running in c2v symmetry.

  Rotational constants: A =     27.17955  B =     14.58041  C =      9.48969 [cm^-1]
  Rotational constants: A = 814822.41626  B = 437109.76453  C = 284493.71297 [MHz]
  Nuclear repulsion =    9.176216528241573

  Charge       = 0
  Multiplicity = 1
  Electrons    = 10
  Nalpha       = 5
  Nbeta        = 5

  ==> Algorithm <==

  SCF Algorithm Type is PK.
  DIIS enabled.
  MOM disabled.
  Fractional occupation disabled.
  Guess Type is SAD.
  Energy threshold   = 1.00e-10
  Density threshold  = 1.00e-10
  Integral threshold = 0.00e+00

  ==> Primary Basis <==

  Basis Set: CC-PVDZ
    Blend: CC-PVDZ
    Number of shells: 12
    Number of basis function: 24
    Number of Cartesian functions: 25
    Spherical Harmonics?: true
    Max angular momentum: 2

  ==> Pre-Iterations <==

   -------------------------------------------------------
    Irrep   Nso     Nmo     Nalpha   Nbeta   Ndocc  Nsocc
   -------------------------------------------------------
     A1        11      11       0       0       0       0
     A2         2       2       0       0       0       0
     B1         4       4       0       0       0       0
     B2         7       7       0       0       0       0
   -------------------------------------------------------
    Total      24      24       5       5       5       0
   -------------------------------------------------------

  ==> Integral Setup <==

  Using in-core PK algorithm.
   Calculation information:
      Number of atoms:                   3
      Number of AO shells:              12
      Number of primitives:             32
      Number of atomic orbitals:        25
      Number of basis functions:        24

      Integral cutoff                 1.00e-12
      Number of threads:                 1

  Performing in-core PK
  Using 90300 doubles for integral storage.
  We computed 3081 shell quartets total.
  Whereas there are 3081 unique shell quartets.
  ==> DiskJK: Disk-Based J/K Matrices <==

    J tasked:                  Yes
    K tasked:                  Yes
    wK tasked:                  No
    Memory (MB):               375
    Schwarz Cutoff:          1E-12

    OpenMP threads:              1
  Minimum eigenvalue in the overlap matrix is 3.4290529808E-02.
  Using Symmetric Orthogonalization.

  SCF Guess: Superposition of Atomic Densities via on-the-fly atomic UHF.

  ==> Iterations <==

                        Total Energy        Delta E     RMS |[F,P]|

   @RHF iter   0:   -75.98146227621994   -7.59815e+01   1.22273e-01 
   @RHF iter   1:   -75.99255179539675   -1.10895e-02   2.03934e-02 
   @RHF iter   2:   -76.01928073460824   -2.67289e-02   1.02112e-02 DIIS
   @RHF iter   3:   -76.02624572681081   -6.96499e-03   1.58553e-03 DIIS
   @RHF iter   4:   -76.02665283210092   -4.07105e-04   4.53340e-04 DIIS
   @RHF iter   5:   -76.02669777394196   -4.49418e-05   9.69427e-05 DIIS
   @RHF iter   6:   -76.02670049821249   -2.72427e-06   1.47439e-05 DIIS
   @RHF iter   7:   -76.02670056111417   -6.29017e-08   1.79030e-06 DIIS
   @RHF iter   8:   -76.02670056179545   -6.81283e-10   3.27715e-07 DIIS
   @RHF iter   9:   -76.02670056181680   -2.13447e-11   2.87824e-08 DIIS
   @RHF iter  10:   -76.02670056181690   -9.94760e-14   3.74953e-09 DIIS
   @RHF iter  11:   -76.02670056181694   -4.26326e-14   4.59615e-10 DIIS
   @RHF iter  12:   -76.02670056181695   -1.42109e-14   4.27133e-11 DIIS

  ==> Post-Iterations <==

    Orbital Energies (a.u.)
    -----------------------

    Doubly Occupied:                                                      

       1A1   -20.550896     2A1    -1.335870     1B2    -0.697823  
       3A1    -0.566665     1B1    -0.493087  

    Virtual:                                                              

       4A1     0.185194     2B2     0.255990     3B2     0.787146  
       5A1     0.853489     6A1     1.163816     2B1     1.200307  
       4B2     1.253651     7A1     1.442872     1A2     1.476480  
       3B1     1.673065     8A1     1.867229     5B2     1.934052  
       6B2     2.447662     9A1     2.485889     4B1     3.285102  
       2A2     3.336145    10A1     3.508943    11A1     3.862022  
       7B2     4.146561  

    Final Occupation by Irrep:
             A1    A2    B1    B2 
    DOCC [     3,    0,    1,    1 ]

  Energy converged.

  @RHF Final Energy:   -76.02670056181695

   => Energetics <=

    Nuclear Repulsion Energy =              9.1762165282415733
    One-Electron Energy =                -123.1171522176102116
    Two-Electron Energy =                  37.9142351275516916
    DFT Exchange-Correlation Energy =       0.0000000000000000
    Empirical Dispersion Energy =           0.0000000000000000
    PCM Polarization Energy =               0.0000000000000000
    EFP Energy =                            0.0000000000000000
    Total Energy =                        -76.0267005618169520



Properties will be evaluated at   0.000000,   0.000000,   0.000000 Bohr

Properties computed using the SCF density matrix

  Nuclear Dipole Moment: (a.u.)
     X:     0.0000      Y:     0.0000      Z:     0.9798

  Electronic Dipole Moment: (a.u.)
     X:     0.0000      Y:     0.0000      Z:    -0.1687

  Dipole Moment: (a.u.)
     X:     0.0000      Y:     0.0000      Z:     0.8111     Total:     0.8111

  Dipole Moment: (Debye)
     X:     0.0000      Y:     0.0000      Z:     2.0616     Total:     2.0616


*** tstop() called on psinet at Mon May 15 15:37:46 2017
Module time:
	user time   =       0.38 seconds =       0.01 minutes
	system time =       0.02 seconds =       0.00 minutes
	total time  =          1 seconds =       0.02 minutes
Total time:
	user time   =       0.38 seconds =       0.01 minutes
	system time =       0.02 seconds =       0.00 minutes
	total time  =          1 seconds =       0.02 minutes
 MINTS: Wrapper to libmints.
   by Justin Turney

   Calculation information:
      Number of threads:                 1
      Number of atoms:                   3
      Number of AO shells:              12
      Number of SO shells:               9
      Number of primitives:             32
      Number of atomic orbitals:        25
      Number of basis functions:        24

      Number of irreps:                  4
      Integral cutoff                 0.00e+00
      Number of functions per irrep: [  11    2    4    7 ]

 OEINTS: Overlap, kinetic, potential, dipole, and quadrupole integrals
         stored in file 35.

      Computing two-electron integrals...done
      Computed 11651 non-zero two-electron integrals.
        Stored in file 33.


*** tstart() called on psinet
*** at Mon May 15 15:37:46 2017



  Options:
  ----------------------------------------------------------------------------
  ACTIVE                      => [  ]             
  BASIS_RELATIVISTIC          => (empty)          
  BENCH                       => 0                
  CACHELEVEL                  => 2                
  CCL_ENERGY                  => FALSE            
  CC_DIIS_MAX_VECS            => 6                
  CC_DIIS_MIN_VECS            => 2                
  CC_MAXITER                  => 50               
  CC_TYPE                     => CONV             
  CEPA_OS_SCALE               => 1.27             
  CEPA_SOS_SCALE              => 1.3              
  CEPA_SS_SCALE               => 1.13             
  CEPA_TYPE                   => CEPA0            
  CI_TYPE                     => CONV             
  CUBEPROP_BASIS_FUNCTIONS    => [  ]             
  CUBEPROP_FILEPATH           => .                
  CUBEPROP_ORBITALS           => [  ]             
  CUBEPROP_TASKS              => [  ]             
  CUBIC_BASIS_TOLERANCE       => 1e-12            
  CUBIC_BLOCK_MAX_POINTS      => 1000             
  CUBIC_GRID_OVERAGE          => [  ]             
  CUBIC_GRID_SPACING          => [  ]             
  CUTOFF                      => 14               
  DEBUG                       => 0                
  DERTYPE                     => NONE             
  DF_BASIS_CC                 => (empty)          
  DIE_IF_NOT_CONVERGED        => TRUE             
  DKH_ORDER                   => 2                
  DOCC                        => [  ]             
  DO_DIIS                     => TRUE             
  DO_LEVEL_SHIFT              => TRUE             
  DO_SCS                      => TRUE            !
  DO_SOS                      => FALSE            
  E3_SCALE                    => 0.25             
  EA_POLES                    => FALSE            
  EKT_EA                      => FALSE            
  EKT_IP                      => FALSE            
  EP_EA_POLES                 => FALSE            
  EP_IP_POLES                 => FALSE            
  EP_MAXITER                  => 30               
  EXTERNAL_POTENTIAL_SYMMETRY => FALSE            
  E_CONVERGENCE               => 1e-08           !
  FREEZE_CORE                 => FALSE            
  FROZEN_DOCC                 => [  ]             
  FROZEN_UOCC                 => [  ]             
  INTEGRAL_PACKAGE            => LIBINT           
  IP_POLES                    => FALSE            
  LEVEL_SHIFT                 => 0.02             
  LINEQ_SOLVER                => CDGESV           
  LITERAL_CFOUR               => (empty)          
  MAT_NUM_COLUMN_PRINT        => 5                
  MAX_MOGRAD_CONVERGENCE      => 0.001            
  MOGRAD_DAMPING              => 1                
  MOLDEN_WITH_VIRTUAL         => TRUE             
  MO_DIIS_NUM_VECS            => 6                
  MO_MAXITER                  => 50               
  MO_READ                     => FALSE            
  MO_STEP_MAX                 => 0.5              
  MO_WRITE                    => FALSE            
  MP2_OS_SCALE                => 1.2              
  MP2_SOS_SCALE               => 1.3              
  MP2_SOS_SCALE2              => 1.2              
  MP2_SS_SCALE                => 0.333333         
  MP2_TYPE                    => DF               
  MP_TYPE                     => CONV             
  NAT_ORBS                    => FALSE            
  NUM_FROZEN_DOCC             => 0                
  NUM_FROZEN_UOCC             => 0                
  OCC_ORBS_PRINT              => FALSE            
  OEPROP                      => FALSE            
  OPT_METHOD                  => ORB_RESP         
  ORB_OPT                     => TRUE            !
  ORB_RESP_SOLVER             => PCG              
  ORTH_TYPE                   => MGS              
  PCG_BETA_TYPE               => FLETCHER_REEVES  
  PCG_CONVERGENCE             => 1e-06            
  PCG_MAXITER                 => 30               
  PCM                         => FALSE            
  PCM_CC_TYPE                 => PTE              
  PCM_SCF_TYPE                => TOTAL            
  PRINT                       => 1                
  PRINT_NOONS                 => 3                
  PROPERTIES                  => [  ]             
  PROPERTIES_ORIGIN           => [  ]             
  PUREAM                      => TRUE             
  QC_MODULE                   => (empty)          
  RAS1                        => [  ]             
  RAS2                        => [  ]             
  RAS3                        => [  ]             
  RAS4                        => [  ]             
  RELATIVISTIC                => NO               
  RELAXED                     => TRUE             
  RESTRICTED_DOCC             => [  ]             
  RESTRICTED_UOCC             => [  ]             
  RMS_MOGRAD_CONVERGENCE      => 1e-06            
  R_CONVERGENCE               => 1e-05            
  SCS_TYPE                    => SCS             !
  SOCC                        => [  ]             
  SOS_TYPE                    => SOS              
  SYMMETRIZE                  => TRUE             
  TPDM_ABCD_TYPE              => DIRECT           
  UNITS                       => ANGSTROMS        
  WFN                         => SCF              
  WFN_TYPE                    => OMP3            !
  WRITER_FILE_LABEL           => (empty)          


 ============================================================================== 
 ============================================================================== 
 ============================================================================== 

                       OMP3 (OO-MP3)   
              Program Written by Ugur Bozkaya,
              Latest Revision June 25, 2014.

 ============================================================================== 
 ============================================================================== 
 ============================================================================== 

	RMS orbital gradient is changed to :     1.00e-06
	MAX orbital gradient is changed to :     1.00e-04
	MO spaces per irreps... 

	IRREP   FC    OCC   VIR  FV 
	==============================
	  A1     0     3     8    0
	  A2     0     0     2    0
	  B1     0     1     3    0
	  B2     0     1     6    0
	==============================

	Computing MP2 energy using SCF MOs (Canonical MP2)... 
	============================================================================== 
	Nuclear Repulsion Energy (a.u.)    :     9.17621652824157
	SCF Energy (a.u.)                  :   -76.02670056181695
	REF Energy (a.u.)                  :   -76.02670056181687
	Alpha-Alpha Contribution (a.u.)    :    -0.02577417806821
	Alpha-Beta Contribution (a.u.)     :    -0.15257320432635
	Beta-Beta Contribution (a.u.)      :    -0.02577417806821
	Scaled_SS Correlation Energy (a.u.):    -0.01718278537880
	Scaled_OS Correlation Energy (a.u.):    -0.18308784519163
	SCS-MP2 Total Energy (a.u.)        :   -76.22697119238728
	SOS-MP2 Total Energy (a.u.)        :   -76.22504572744113
	SCSN-MP2 Total Energy (a.u.)       :   -76.11742566861695
	SCS-MP2-VDW Total Energy (a.u.)    :   -76.24776844142282
	SOS-PI-MP2 Total Energy (a.u.)     :   -76.24030304787377
	MP2 Correlation Energy (a.u.)      :    -0.20412156046277
	MP2 Total Energy (a.u.)            :   -76.23082212227963
	============================================================================== 


	Computing MP3 energy using SCF MOs (Canonical MP3)... 
	============================================================================== 
	Nuclear Repulsion Energy (a.u.)    :     9.17621652824157
	SCF Energy (a.u.)                  :   -76.02670056181695
	REF Energy (a.u.)                  :   -76.02670056181687
	Alpha-Alpha Contribution (a.u.)    :    -0.02387082827404
	Alpha-Beta Contribution (a.u.)     :    -0.16315456664553
	Beta-Beta Contribution (a.u.)      :    -0.02387082827404
	MP2.5 Correlation Energy (a.u.)    :    -0.20750889182811
	MP2.5 Total Energy (a.u.)          :   -76.23420945364506
	SCS-MP3 Total Energy (a.u.)        :   -76.22866485806999
	SOS-MP3 Total Energy (a.u.)        :   -76.22673939312384
	SCSN-MP3 Total Energy (a.u.)       :   -76.11911933429965
	SCS-MP3-VDW Total Energy (a.u.)    :   -76.24946210710553
	SOS-PI-MP3 Total Energy (a.u.)     :   -76.24199671355647
	3rd Order Energy (a.u.)            :    -0.00677466273085
	MP3 Correlation Energy (a.u.)      :    -0.21089622319361
	MP3 Total Energy (a.u.)            :   -76.23759678501048
	============================================================================== 


	Number of independent-pairs:  33

 ============================================================================== 
 ================ Performing OMP3 iterations... =============================== 
 ============================================================================== 
	            Minimizing MP3-L Functional 
	            --------------------------- 
 Iter       E_total           DE           RMS MO Grad      MAX MO Grad      RMS T2    
 ----    ---------------    ----------     -----------      -----------     ---------- 
   1     -76.2381774811     -5.81e-04       3.63e-05         5.10e-04        2.07e-07 
   2     -76.2381782693     -7.88e-07       1.59e-06         2.74e-05        7.94e-09 
   3     -76.2381782772     -7.83e-09       3.48e-07         5.29e-06        5.15e-10 

 ============================================================================== 
 ======================== OMP3 ITERATIONS ARE CONVERGED ======================= 
 ============================================================================== 

	Computing MP2 energy using optimized MOs... 
	============================================================================== 
	Nuclear Repulsion Energy (a.u.)    :     9.17621652824157
	SCF Energy (a.u.)                  :   -76.02670056181695
	REF Energy (a.u.)                  :   -76.02610613153756
	Alpha-Alpha Contribution (a.u.)    :    -0.02592369104191
	Alpha-Beta Contribution (a.u.)     :    -0.15367747311307
	Beta-Beta Contribution (a.u.)      :    -0.02592369104191
	Scaled_SS Correlation Energy (a.u.):    -0.01728246069461
	Scaled_OS Correlation Energy (a.u.):    -0.18441296773568
	SCS-MP2 Total Energy (a.u.)        :   -76.22780155996786
	SOS-MP2 Total Energy (a.u.)        :   -76.22588684658456
	SCSN-MP2 Total Energy (a.u.)       :   -76.11735752400507
	SCS-MP2-VDW Total Energy (a.u.)    :   -76.24873698816421
	SOS-PI-MP2 Total Energy (a.u.)     :   -76.24125459389586
	MP2 Correlation Energy (a.u.)      :    -0.21207214562145
	MP2 Total Energy (a.u.)            :   -76.23163098673446
	============================================================================== 


	Computing MP3 energy using optimized MOs... 
	============================================================================== 
	Nuclear Repulsion Energy (a.u.)    :     9.17621652824157
	SCF Energy (a.u.)                  :   -76.02670056181695
	REF Energy (a.u.)                  :   -76.02610613153756
	Alpha-Alpha Contribution (a.u.)    :    -0.02394347056223
	Alpha-Beta Contribution (a.u.)     :    -0.16418520449699
	Beta-Beta Contribution (a.u.)      :    -0.02394347056223
	MP2.5 Correlation Energy (a.u.)    :    -0.20820407012978
	MP2.5 Total Energy (a.u.)          :   -76.23490463194673
	SCS-MP3 Total Energy (a.u.)        :   -76.22943838257399
	SOS-MP3 Total Energy (a.u.)        :   -76.22752366919070
	SCSN-MP3 Total Energy (a.u.)       :   -76.11899434661120
	SCS-MP3-VDW Total Energy (a.u.)    :   -76.25037381077036
	SOS-PI-MP3 Total Energy (a.u.)     :   -76.24289141650200
	3rd Order Energy (a.u.)            :    -0.00654729042455
	MP3 Correlation Energy (a.u.)      :    -0.21207214562145
	MP3 Total Energy (a.u.)            :   -76.23817827715901
	============================================================================== 


	============================================================================== 
	================ OMP3 FINAL RESULTS ========================================== 
	============================================================================== 
	Nuclear Repulsion Energy (a.u.)    :     9.17621652824157
	SCF Energy (a.u.)                  :   -76.02670056181695
	REF Energy (a.u.)                  :   -76.02610613153756
	SCS-OMP3 Total Energy (a.u.)       :   -76.22943838257399
	SOS-OMP3 Total Energy (a.u.)       :   -76.22752366919070
	SCSN-OMP3 Total Energy (a.u.)      :   -76.11899434661120
	SCS-OMP3-VDW Total Energy (a.u.    :   -76.25037381077036
	SOS-PI-OMP3 Total Energy (a.u.)    :   -76.24289141650200
	OMP3 Correlation Energy (a.u.)     :    -0.21147771534206
	Eomp3 - Eref (a.u.)                :    -0.21207214562145
	OMP3 Total Energy (a.u.)           :   -76.23817827715901
	============================================================================== 


*** tstop() called on psinet at Mon May 15 15:37:46 2017
Module time:
	user time   =       0.04 seconds =       0.00 minutes
	system time =       0.06 seconds =       0.00 minutes
	total time  =          0 seconds =       0.00 minutes
Total time:
	user time   =       0.46 seconds =       0.01 minutes
	system time =       0.09 seconds =       0.00 minutes
	total time  =          1 seconds =       0.02 minutes

  //>>>>>>>>>>>>>>>>>>>>>>>>>>>>>>>>>>>//
  //    Loading displacement 2 of 5    //
  //<<<<<<<<<<<<<<<<<<<<<<<<<<<<<<<<<<<//

*** tstart() called on psinet
*** at Mon May 15 15:37:46 2017

   => Loading Basis Set <=

    Name: CC-PVDZ
    Role: ORBITAL
    Keyword: BASIS
    atoms 1   entry O          line   190 file /home/psilocaluser/gits/hrw-direct/objdir4/stage/usr/local/psi4/share/psi4/basis/cc-pvdz.gbs 
    atoms 2-3 entry H          line    20 file /home/psilocaluser/gits/hrw-direct/objdir4/stage/usr/local/psi4/share/psi4/basis/cc-pvdz.gbs 


         ---------------------------------------------------------
                                   SCF
            by Justin Turney, Rob Parrish, and Andy Simmonett
                              RHF Reference
                        1 Threads,    500 MiB Core
         ---------------------------------------------------------

  ==> Geometry <==

    Molecular point group: c2v
    Full point group: C2v

    Geometry (in Angstrom), charge = 0, multiplicity = 1:

       Center              X                  Y                   Z               Mass       
    ------------   -----------------  -----------------  -----------------  -----------------
           O          0.000000000000     0.000000000000    -0.065433786334    15.994914619560
           H          0.000000000000    -0.757365949175     0.519240836625     1.007825032070
           H          0.000000000000     0.757365949175     0.519240836625     1.007825032070

  Running in c2v symmetry.

  Rotational constants: A =     27.54852  B =     14.58041  C =      9.53427 [cm^-1]
  Rotational constants: A = 825883.85078  B = 437109.76453  C = 285830.34084 [MHz]
  Nuclear repulsion =    9.198561022178440

  Charge       = 0
  Multiplicity = 1
  Electrons    = 10
  Nalpha       = 5
  Nbeta        = 5

  ==> Algorithm <==

  SCF Algorithm Type is PK.
  DIIS enabled.
  MOM disabled.
  Fractional occupation disabled.
  Guess Type is SAD.
  Energy threshold   = 1.00e-10
  Density threshold  = 1.00e-10
  Integral threshold = 0.00e+00

  ==> Primary Basis <==

  Basis Set: CC-PVDZ
    Blend: CC-PVDZ
    Number of shells: 12
    Number of basis function: 24
    Number of Cartesian functions: 25
    Spherical Harmonics?: true
    Max angular momentum: 2

  ==> Pre-Iterations <==

   -------------------------------------------------------
    Irrep   Nso     Nmo     Nalpha   Nbeta   Ndocc  Nsocc
   -------------------------------------------------------
     A1        11      11       0       0       0       0
     A2         2       2       0       0       0       0
     B1         4       4       0       0       0       0
     B2         7       7       0       0       0       0
   -------------------------------------------------------
    Total      24      24       5       5       5       0
   -------------------------------------------------------

  ==> Integral Setup <==

  Using in-core PK algorithm.
   Calculation information:
      Number of atoms:                   3
      Number of AO shells:              12
      Number of primitives:             32
      Number of atomic orbitals:        25
      Number of basis functions:        24

      Integral cutoff                 1.00e-12
      Number of threads:                 1

  Performing in-core PK
  Using 90300 doubles for integral storage.
  We computed 3081 shell quartets total.
  Whereas there are 3081 unique shell quartets.
  ==> DiskJK: Disk-Based J/K Matrices <==

    J tasked:                  Yes
    K tasked:                  Yes
    wK tasked:                  No
    Memory (MB):               375
    Schwarz Cutoff:          1E-12

    OpenMP threads:              1
  Minimum eigenvalue in the overlap matrix is 3.4171514487E-02.
  Using Symmetric Orthogonalization.

  SCF Guess: Superposition of Atomic Densities via on-the-fly atomic UHF.

  ==> Iterations <==

                        Total Energy        Delta E     RMS |[F,P]|

   @RHF iter   0:   -76.06127172777315   -7.60613e+01   1.23263e-01 
   @RHF iter   1:   -75.97674494473114    8.45268e-02   2.37693e-02 
   @RHF iter   2:   -76.01636733132247   -3.96224e-02   1.19906e-02 DIIS
   @RHF iter   3:   -76.02602653151665   -9.65920e-03   2.15768e-03 DIIS
   @RHF iter   4:   -76.02674942153268   -7.22890e-04   5.65788e-04 DIIS
   @RHF iter   5:   -76.02681211458749   -6.26931e-05   9.42168e-05 DIIS
   @RHF iter   6:   -76.02681438065228   -2.26606e-06   1.92484e-05 DIIS
   @RHF iter   7:   -76.02681447760375   -9.69515e-08   3.24899e-06 DIIS
   @RHF iter   8:   -76.02681448042966   -2.82591e-09   4.35557e-07 DIIS
   @RHF iter   9:   -76.02681448047088   -4.12115e-11   3.51751e-08 DIIS
   @RHF iter  10:   -76.02681448047103   -1.56319e-13   3.45863e-09 DIIS
   @RHF iter  11:   -76.02681448047102    1.42109e-14   5.99949e-10 DIIS
   @RHF iter  12:   -76.02681448047100    1.42109e-14   4.71423e-11 DIIS

  ==> Post-Iterations <==

    Orbital Energies (a.u.)
    -----------------------

    Doubly Occupied:                                                      

       1A1   -20.550262     2A1    -1.336801     1B2    -0.699832  
       3A1    -0.566346     1B1    -0.493124  

    Virtual:                                                              

       4A1     0.185677     2B2     0.256301     3B2     0.790173  
       5A1     0.854072     6A1     1.163360     2B1     1.200429  
       4B2     1.253117     7A1     1.445910     1A2     1.475884  
       3B1     1.675618     8A1     1.867542     5B2     1.934529  
       6B2     2.454433     9A1     2.491280     4B1     3.285272  
       2A2     3.339964    10A1     3.510456    11A1     3.867653  
       7B2     4.147153  

    Final Occupation by Irrep:
             A1    A2    B1    B2 
    DOCC [     3,    0,    1,    1 ]

  Energy converged.

  @RHF Final Energy:   -76.02681448047100

   => Energetics <=

    Nuclear Repulsion Energy =              9.1985610221784402
    One-Electron Energy =                -123.1580210637716561
    Two-Electron Energy =                  37.9326455611222144
    DFT Exchange-Correlation Energy =       0.0000000000000000
    Empirical Dispersion Energy =           0.0000000000000000
    PCM Polarization Energy =               0.0000000000000000
    EFP Energy =                            0.0000000000000000
    Total Energy =                        -76.0268144804710033



Properties will be evaluated at   0.000000,   0.000000,   0.000000 Bohr

Properties computed using the SCF density matrix

  Nuclear Dipole Moment: (a.u.)
     X:     0.0000      Y:     0.0000      Z:     0.9732

  Electronic Dipole Moment: (a.u.)
     X:     0.0000      Y:     0.0000      Z:    -0.1653

  Dipole Moment: (a.u.)
     X:     0.0000      Y:     0.0000      Z:     0.8079     Total:     0.8079

  Dipole Moment: (Debye)
     X:     0.0000      Y:     0.0000      Z:     2.0536     Total:     2.0536


*** tstop() called on psinet at Mon May 15 15:37:46 2017
Module time:
	user time   =       0.36 seconds =       0.01 minutes
	system time =       0.02 seconds =       0.00 minutes
	total time  =          0 seconds =       0.00 minutes
Total time:
	user time   =       0.83 seconds =       0.01 minutes
	system time =       0.11 seconds =       0.00 minutes
	total time  =          1 seconds =       0.02 minutes
 MINTS: Wrapper to libmints.
   by Justin Turney

   Calculation information:
      Number of threads:                 1
      Number of atoms:                   3
      Number of AO shells:              12
      Number of SO shells:               9
      Number of primitives:             32
      Number of atomic orbitals:        25
      Number of basis functions:        24

      Number of irreps:                  4
      Integral cutoff                 0.00e+00
      Number of functions per irrep: [  11    2    4    7 ]

 OEINTS: Overlap, kinetic, potential, dipole, and quadrupole integrals
         stored in file 35.

      Computing two-electron integrals...done
      Computed 11683 non-zero two-electron integrals.
        Stored in file 33.


*** tstart() called on psinet
*** at Mon May 15 15:37:46 2017


 ============================================================================== 
 ============================================================================== 
 ============================================================================== 

                       OMP3 (OO-MP3)   
              Program Written by Ugur Bozkaya,
              Latest Revision June 25, 2014.

 ============================================================================== 
 ============================================================================== 
 ============================================================================== 

	RMS orbital gradient is changed to :     1.00e-06
	MAX orbital gradient is changed to :     1.00e-04
	MO spaces per irreps... 

	IRREP   FC    OCC   VIR  FV 
	==============================
	  A1     0     3     8    0
	  A2     0     0     2    0
	  B1     0     1     3    0
	  B2     0     1     6    0
	==============================

	Computing MP2 energy using SCF MOs (Canonical MP2)... 
	============================================================================== 
	Nuclear Repulsion Energy (a.u.)    :     9.19856102217844
	SCF Energy (a.u.)                  :   -76.02681448047100
	REF Energy (a.u.)                  :   -76.02681448047099
	Alpha-Alpha Contribution (a.u.)    :    -0.02575591388424
	Alpha-Beta Contribution (a.u.)     :    -0.15240556207587
	Beta-Beta Contribution (a.u.)      :    -0.02575591388424
	Scaled_SS Correlation Energy (a.u.):    -0.01717060925616
	Scaled_OS Correlation Energy (a.u.):    -0.18288667449104
	SCS-MP2 Total Energy (a.u.)        :   -76.22687176421820
	SOS-MP2 Total Energy (a.u.)        :   -76.22494171116962
	SCSN-MP2 Total Energy (a.u.)       :   -76.11747529734353
	SCS-MP2-VDW Total Energy (a.u.)    :   -76.24764951381233
	SOS-PI-MP2 Total Energy (a.u.)     :   -76.24018226737721
	MP2 Correlation Energy (a.u.)      :    -0.20391738984435
	MP2 Total Energy (a.u.)            :   -76.23073187031534
	============================================================================== 


	Computing MP3 energy using SCF MOs (Canonical MP3)... 
	============================================================================== 
	Nuclear Repulsion Energy (a.u.)    :     9.19856102217844
	SCF Energy (a.u.)                  :   -76.02681448047100
	REF Energy (a.u.)                  :   -76.02681448047099
	Alpha-Alpha Contribution (a.u.)    :    -0.02386567646065
	Alpha-Beta Contribution (a.u.)     :    -0.16298616408123
	Beta-Beta Contribution (a.u.)      :    -0.02386567646065
	MP2.5 Correlation Energy (a.u.)    :    -0.20731745342343
	MP2.5 Total Energy (a.u.)          :   -76.23413193389443
	SCS-MP3 Total Energy (a.u.)        :   -76.22857179600774
	SOS-MP3 Total Energy (a.u.)        :   -76.22664174295917
	SCSN-MP3 Total Energy (a.u.)       :   -76.11917532913307
	SCS-MP3-VDW Total Energy (a.u.)    :   -76.24934954560189
	SOS-PI-MP3 Total Energy (a.u.)     :   -76.24188229916675
	3rd Order Energy (a.u.)            :    -0.00680012715819
	MP3 Correlation Energy (a.u.)      :    -0.21071751700253
	MP3 Total Energy (a.u.)            :   -76.23753199747352
	============================================================================== 


	Number of independent-pairs:  33

 ============================================================================== 
 ================ Performing OMP3 iterations... =============================== 
 ============================================================================== 
	            Minimizing MP3-L Functional 
	            --------------------------- 
 Iter       E_total           DE           RMS MO Grad      MAX MO Grad      RMS T2    
 ----    ---------------    ----------     -----------      -----------     ---------- 
   1     -76.2381061277     -5.74e-04       3.59e-05         5.05e-04        2.05e-07 
   2     -76.2381068983     -7.71e-07       1.56e-06         2.69e-05        7.77e-09 
   3     -76.2381069060     -7.70e-09       3.41e-07         5.18e-06        5.01e-10 

 ============================================================================== 
 ======================== OMP3 ITERATIONS ARE CONVERGED ======================= 
 ============================================================================== 

	Computing MP2 energy using optimized MOs... 
	============================================================================== 
	Nuclear Repulsion Energy (a.u.)    :     9.19856102217844
	SCF Energy (a.u.)                  :   -76.02681448047100
	REF Energy (a.u.)                  :   -76.02622685277204
	Alpha-Alpha Contribution (a.u.)    :    -0.02590387354050
	Alpha-Beta Contribution (a.u.)     :    -0.15349674931145
	Beta-Beta Contribution (a.u.)      :    -0.02590387354050
	Scaled_SS Correlation Energy (a.u.):    -0.01726924902700
	Scaled_OS Correlation Energy (a.u.):    -0.18419609917374
	SCS-MP2 Total Energy (a.u.)        :   -76.22769220097278
	SOS-MP2 Total Energy (a.u.)        :   -76.22577262687692
	SCSN-MP2 Total Energy (a.u.)       :   -76.11740848763459
	SCS-MP2-VDW Total Energy (a.u.)    :   -76.24860656543119
	SOS-PI-MP2 Total Energy (a.u.)     :   -76.24112230180806
	MP2 Correlation Energy (a.u.)      :    -0.21188005318406
	MP2 Total Energy (a.u.)            :   -76.23153134916448
	============================================================================== 


	Computing MP3 energy using optimized MOs... 
	============================================================================== 
	Nuclear Repulsion Energy (a.u.)    :     9.19856102217844
	SCF Energy (a.u.)                  :   -76.02681448047100
	REF Energy (a.u.)                  :   -76.02622685277204
	Alpha-Alpha Contribution (a.u.)    :    -0.02393775866262
	Alpha-Beta Contribution (a.u.)     :    -0.16400453585881
	Beta-Beta Contribution (a.u.)      :    -0.02393775866262
	MP2.5 Correlation Energy (a.u.)    :    -0.20800464708929
	MP2.5 Total Energy (a.u.)          :   -76.23481912756029
	SCS-MP3 Total Energy (a.u.)        :   -76.22933609017069
	SOS-MP3 Total Energy (a.u.)        :   -76.22741651607483
	SCSN-MP3 Total Energy (a.u.)       :   -76.11905237683250
	SCS-MP3-VDW Total Energy (a.u.)    :   -76.25025045462910
	SOS-PI-MP3 Total Energy (a.u.)     :   -76.24276619100597
	3rd Order Energy (a.u.)            :    -0.00657555679162
	MP3 Correlation Energy (a.u.)      :    -0.21188005318406
	MP3 Total Energy (a.u.)            :   -76.23810690595610
	============================================================================== 


	============================================================================== 
	================ OMP3 FINAL RESULTS ========================================== 
	============================================================================== 
	Nuclear Repulsion Energy (a.u.)    :     9.19856102217844
	SCF Energy (a.u.)                  :   -76.02681448047100
	REF Energy (a.u.)                  :   -76.02622685277204
	SCS-OMP3 Total Energy (a.u.)       :   -76.22933609017069
	SOS-OMP3 Total Energy (a.u.)       :   -76.22741651607483
	SCSN-OMP3 Total Energy (a.u.)      :   -76.11905237683250
	SCS-OMP3-VDW Total Energy (a.u.    :   -76.25025045462910
	SOS-PI-OMP3 Total Energy (a.u.)    :   -76.24276619100597
	OMP3 Correlation Energy (a.u.)     :    -0.21129242548510
	Eomp3 - Eref (a.u.)                :    -0.21188005318406
	OMP3 Total Energy (a.u.)           :   -76.23810690595610
	============================================================================== 


*** tstop() called on psinet at Mon May 15 15:37:47 2017
Module time:
	user time   =       0.07 seconds =       0.00 minutes
	system time =       0.09 seconds =       0.00 minutes
	total time  =          1 seconds =       0.02 minutes
Total time:
	user time   =       0.93 seconds =       0.02 minutes
	system time =       0.20 seconds =       0.00 minutes
	total time  =          2 seconds =       0.03 minutes

  //>>>>>>>>>>>>>>>>>>>>>>>>>>>>>>>>>>>//
  //    Loading displacement 3 of 5    //
  //<<<<<<<<<<<<<<<<<<<<<<<<<<<<<<<<<<<//

*** tstart() called on psinet
*** at Mon May 15 15:37:47 2017

   => Loading Basis Set <=

    Name: CC-PVDZ
    Role: ORBITAL
    Keyword: BASIS
    atoms 1   entry O          line   190 file /home/psilocaluser/gits/hrw-direct/objdir4/stage/usr/local/psi4/share/psi4/basis/cc-pvdz.gbs 
    atoms 2-3 entry H          line    20 file /home/psilocaluser/gits/hrw-direct/objdir4/stage/usr/local/psi4/share/psi4/basis/cc-pvdz.gbs 


         ---------------------------------------------------------
                                   SCF
            by Justin Turney, Rob Parrish, and Andy Simmonett
                              RHF Reference
                        1 Threads,    500 MiB Core
         ---------------------------------------------------------

  ==> Geometry <==

    Molecular point group: c2v
    Full point group: C2v

    Geometry (in Angstrom), charge = 0, multiplicity = 1:

       Center              X                  Y                   Z               Mass       
    ------------   -----------------  -----------------  -----------------  -----------------
           O          0.000000000000     0.000000000000    -0.065655108074    15.994914619560
           H          0.000000000000    -0.759229595800     0.520997104936     1.007825032070
           H          0.000000000000     0.759229595800     0.520997104936     1.007825032070

  Running in c2v symmetry.

  Rotational constants: A =     27.36310  B =     14.50892  C =      9.48149 [cm^-1]
  Rotational constants: A = 820325.16776  B = 434966.49104  C = 284247.85366 [MHz]
  Nuclear repulsion =    9.172951177761904

  Charge       = 0
  Multiplicity = 1
  Electrons    = 10
  Nalpha       = 5
  Nbeta        = 5

  ==> Algorithm <==

  SCF Algorithm Type is PK.
  DIIS enabled.
  MOM disabled.
  Fractional occupation disabled.
  Guess Type is SAD.
  Energy threshold   = 1.00e-10
  Density threshold  = 1.00e-10
  Integral threshold = 0.00e+00

  ==> Primary Basis <==

  Basis Set: CC-PVDZ
    Blend: CC-PVDZ
    Number of shells: 12
    Number of basis function: 24
    Number of Cartesian functions: 25
    Spherical Harmonics?: true
    Max angular momentum: 2

  ==> Pre-Iterations <==

   -------------------------------------------------------
    Irrep   Nso     Nmo     Nalpha   Nbeta   Ndocc  Nsocc
   -------------------------------------------------------
     A1        11      11       0       0       0       0
     A2         2       2       0       0       0       0
     B1         4       4       0       0       0       0
     B2         7       7       0       0       0       0
   -------------------------------------------------------
    Total      24      24       5       5       5       0
   -------------------------------------------------------

  ==> Integral Setup <==

  Using in-core PK algorithm.
   Calculation information:
      Number of atoms:                   3
      Number of AO shells:              12
      Number of primitives:             32
      Number of atomic orbitals:        25
      Number of basis functions:        24

      Integral cutoff                 1.00e-12
      Number of threads:                 1

  Performing in-core PK
  Using 90300 doubles for integral storage.
  We computed 3081 shell quartets total.
  Whereas there are 3081 unique shell quartets.
  ==> DiskJK: Disk-Based J/K Matrices <==

    J tasked:                  Yes
    K tasked:                  Yes
    wK tasked:                  No
    Memory (MB):               375
    Schwarz Cutoff:          1E-12

    OpenMP threads:              1
  Minimum eigenvalue in the overlap matrix is 3.4356020169E-02.
  Using Symmetric Orthogonalization.

  SCF Guess: Superposition of Atomic Densities via on-the-fly atomic UHF.

  ==> Iterations <==

                        Total Energy        Delta E     RMS |[F,P]|

   @RHF iter   0:   -75.89492034456427   -7.58949e+01   1.21413e-01 
   @RHF iter   1:   -75.99794037570788   -1.03020e-01   1.95633e-02 
   @RHF iter   2:   -76.02021130031166   -2.22709e-02   9.86331e-03 DIIS
   @RHF iter   3:   -76.02651951600950   -6.30822e-03   1.12664e-03 DIIS
   @RHF iter   4:   -76.02666740192115   -1.47886e-04   2.68437e-04 DIIS
   @RHF iter   5:   -76.02667983310386   -1.24312e-05   5.91375e-05 DIIS
   @RHF iter   6:   -76.02668075681061   -9.23707e-07   1.16548e-05 DIIS
   @RHF iter   7:   -76.02668079795758   -4.11470e-08   1.15102e-06 DIIS
   @RHF iter   8:   -76.02668079825034   -2.92758e-10   2.24855e-07 DIIS
   @RHF iter   9:   -76.02668079826105   -1.07150e-11   2.51165e-08 DIIS
   @RHF iter  10:   -76.02668079826113   -7.10543e-14   1.89232e-09 DIIS
   @RHF iter  11:   -76.02668079826110    2.84217e-14   2.62817e-10 DIIS
   @RHF iter  12:   -76.02668079826118   -8.52651e-14   1.58799e-11 DIIS

  ==> Post-Iterations <==

    Orbital Energies (a.u.)
    -----------------------

    Doubly Occupied:                                                      

       1A1   -20.550763     2A1    -1.335479     1B2    -0.698296  
       3A1    -0.565954     1B1    -0.492950  

    Virtual:                                                              

       4A1     0.185214     2B2     0.255914     3B2     0.788069  
       5A1     0.851773     6A1     1.163587     2B1     1.200389  
       4B2     1.253328     7A1     1.445873     1A2     1.475352  
       3B1     1.674815     8A1     1.868000     5B2     1.931866  
       6B2     2.447938     9A1     2.484630     4B1     3.283170  
       2A2     3.337122    10A1     3.507132    11A1     3.864310  
       7B2     4.144393  

    Final Occupation by Irrep:
             A1    A2    B1    B2 
    DOCC [     3,    0,    1,    1 ]

  Energy converged.

  @RHF Final Energy:   -76.02668079826118

   => Energetics <=

    Nuclear Repulsion Energy =              9.1729511777619042
    One-Electron Energy =                -123.1123814439132786
    Two-Electron Energy =                  37.9127494678901940
    DFT Exchange-Correlation Energy =       0.0000000000000000
    Empirical Dispersion Energy =           0.0000000000000000
    PCM Polarization Energy =               0.0000000000000000
    EFP Energy =                            0.0000000000000000
    Total Energy =                        -76.0266807982611823



Properties will be evaluated at   0.000000,   0.000000,   0.000000 Bohr

Properties computed using the SCF density matrix

  Nuclear Dipole Moment: (a.u.)
     X:     0.0000      Y:     0.0000      Z:     0.9765

  Electronic Dipole Moment: (a.u.)
     X:     0.0000      Y:     0.0000      Z:    -0.1673

  Dipole Moment: (a.u.)
     X:     0.0000      Y:     0.0000      Z:     0.8093     Total:     0.8093

  Dipole Moment: (Debye)
     X:     0.0000      Y:     0.0000      Z:     2.0569     Total:     2.0569


*** tstop() called on psinet at Mon May 15 15:37:47 2017
Module time:
	user time   =       0.35 seconds =       0.01 minutes
	system time =       0.01 seconds =       0.00 minutes
	total time  =          0 seconds =       0.00 minutes
Total time:
	user time   =       1.29 seconds =       0.02 minutes
	system time =       0.21 seconds =       0.00 minutes
	total time  =          2 seconds =       0.03 minutes
 MINTS: Wrapper to libmints.
   by Justin Turney

   Calculation information:
      Number of threads:                 1
      Number of atoms:                   3
      Number of AO shells:              12
      Number of SO shells:               9
      Number of primitives:             32
      Number of atomic orbitals:        25
      Number of basis functions:        24

      Number of irreps:                  4
      Integral cutoff                 0.00e+00
      Number of functions per irrep: [  11    2    4    7 ]

 OEINTS: Overlap, kinetic, potential, dipole, and quadrupole integrals
         stored in file 35.

      Computing two-electron integrals...done
      Computed 11615 non-zero two-electron integrals.
        Stored in file 33.


*** tstart() called on psinet
*** at Mon May 15 15:37:47 2017



  Options:
  ----------------------------------------------------------------------------
  ACTIVE                      => [  ]             
  BASIS_RELATIVISTIC          => (empty)          
  BENCH                       => 0                
  CACHELEVEL                  => 2                
  CCL_ENERGY                  => FALSE            
  CC_DIIS_MAX_VECS            => 6                
  CC_DIIS_MIN_VECS            => 2                
  CC_MAXITER                  => 50               
  CC_TYPE                     => CONV             
  CEPA_OS_SCALE               => 1.27             
  CEPA_SOS_SCALE              => 1.3              
  CEPA_SS_SCALE               => 1.13             
  CEPA_TYPE                   => CEPA0            
  CI_TYPE                     => CONV             
  CUBEPROP_BASIS_FUNCTIONS    => [  ]             
  CUBEPROP_FILEPATH           => .                
  CUBEPROP_ORBITALS           => [  ]             
  CUBEPROP_TASKS              => [  ]             
  CUBIC_BASIS_TOLERANCE       => 1e-12            
  CUBIC_BLOCK_MAX_POINTS      => 1000             
  CUBIC_GRID_OVERAGE          => [  ]             
  CUBIC_GRID_SPACING          => [  ]             
  CUTOFF                      => 14               
  DEBUG                       => 0                
  DERTYPE                     => NONE             
  DF_BASIS_CC                 => (empty)          
  DIE_IF_NOT_CONVERGED        => TRUE             
  DKH_ORDER                   => 2                
  DOCC                        => [  ]             
  DO_DIIS                     => TRUE             
  DO_LEVEL_SHIFT              => TRUE             
  DO_SCS                      => TRUE            !
  DO_SOS                      => FALSE            
  E3_SCALE                    => 0.25             
  EA_POLES                    => FALSE            
  EKT_EA                      => FALSE            
  EKT_IP                      => FALSE            
  EP_EA_POLES                 => FALSE            
  EP_IP_POLES                 => FALSE            
  EP_MAXITER                  => 30               
  EXTERNAL_POTENTIAL_SYMMETRY => FALSE            
  E_CONVERGENCE               => 1e-08           !
  FREEZE_CORE                 => FALSE            
  FROZEN_DOCC                 => [  ]             
  FROZEN_UOCC                 => [  ]             
  INTEGRAL_PACKAGE            => LIBINT           
  IP_POLES                    => FALSE            
  LEVEL_SHIFT                 => 0.02             
  LINEQ_SOLVER                => CDGESV           
  LITERAL_CFOUR               => (empty)          
  MAT_NUM_COLUMN_PRINT        => 5                
  MAX_MOGRAD_CONVERGENCE      => 0.001            
  MOGRAD_DAMPING              => 1                
  MOLDEN_WITH_VIRTUAL         => TRUE             
  MO_DIIS_NUM_VECS            => 6                
  MO_MAXITER                  => 50               
  MO_READ                     => FALSE            
  MO_STEP_MAX                 => 0.5              
  MO_WRITE                    => FALSE            
  MP2_OS_SCALE                => 1.2              
  MP2_SOS_SCALE               => 1.3              
  MP2_SOS_SCALE2              => 1.2              
  MP2_SS_SCALE                => 0.333333         
  MP2_TYPE                    => DF               
  MP_TYPE                     => CONV             
  NAT_ORBS                    => FALSE            
  NUM_FROZEN_DOCC             => 0                
  NUM_FROZEN_UOCC             => 0                
  OCC_ORBS_PRINT              => FALSE            
  OEPROP                      => FALSE            
  OPT_METHOD                  => ORB_RESP         
  ORB_OPT                     => TRUE            !
  ORB_RESP_SOLVER             => PCG              
  ORTH_TYPE                   => MGS              
  PCG_BETA_TYPE               => FLETCHER_REEVES  
  PCG_CONVERGENCE             => 1e-06            
  PCG_MAXITER                 => 30               
  PCM                         => FALSE            
  PCM_CC_TYPE                 => PTE              
  PCM_SCF_TYPE                => TOTAL            
  PRINT                       => 1                
  PRINT_NOONS                 => 3                
  PROPERTIES                  => [  ]             
  PROPERTIES_ORIGIN           => [  ]             
  PUREAM                      => TRUE             
  QC_MODULE                   => (empty)          
  RAS1                        => [  ]             
  RAS2                        => [  ]             
  RAS3                        => [  ]             
  RAS4                        => [  ]             
  RELATIVISTIC                => NO               
  RELAXED                     => TRUE             
  RESTRICTED_DOCC             => [  ]             
  RESTRICTED_UOCC             => [  ]             
  RMS_MOGRAD_CONVERGENCE      => 1e-06            
  R_CONVERGENCE               => 1e-05            
  SCS_TYPE                    => SCS             !
  SOCC                        => [  ]             
  SOS_TYPE                    => SOS              
  SYMMETRIZE                  => TRUE             
  TPDM_ABCD_TYPE              => DIRECT           
  UNITS                       => ANGSTROMS        
  WFN                         => SCF              
  WFN_TYPE                    => OMP3            !
  WRITER_FILE_LABEL           => (empty)          


 ============================================================================== 
 ============================================================================== 
 ============================================================================== 

                       OMP3 (OO-MP3)   
              Program Written by Ugur Bozkaya,
              Latest Revision June 25, 2014.

 ============================================================================== 
 ============================================================================== 
 ============================================================================== 

	RMS orbital gradient is changed to :     1.00e-06
	MAX orbital gradient is changed to :     1.00e-04
	MO spaces per irreps... 

	IRREP   FC    OCC   VIR  FV 
	==============================
	  A1     0     3     8    0
	  A2     0     0     2    0
	  B1     0     1     3    0
	  B2     0     1     6    0
	==============================

	Computing MP2 energy using SCF MOs (Canonical MP2)... 
	============================================================================== 
	Nuclear Repulsion Energy (a.u.)    :     9.17295117776190
	SCF Energy (a.u.)                  :   -76.02668079826118
	REF Energy (a.u.)                  :   -76.02668079826114
	Alpha-Alpha Contribution (a.u.)    :    -0.02577104924805
	Alpha-Beta Contribution (a.u.)     :    -0.15256506512333
	Beta-Beta Contribution (a.u.)      :    -0.02577104924805
	Scaled_SS Correlation Energy (a.u.):    -0.01718069949870
	Scaled_OS Correlation Energy (a.u.):    -0.18307807814799
	SCS-MP2 Total Energy (a.u.)        :   -76.22693957590783
	SOS-MP2 Total Energy (a.u.)        :   -76.22501538292147
	SCSN-MP2 Total Energy (a.u.)       :   -76.11739489161428
	SCS-MP2-VDW Total Energy (a.u.)    :   -76.24773513086704
	SOS-PI-MP2 Total Energy (a.u.)     :   -76.24027188943380
	MP2 Correlation Energy (a.u.)      :    -0.20410716361943
	MP2 Total Energy (a.u.)            :   -76.23078796188057
	============================================================================== 


	Computing MP3 energy using SCF MOs (Canonical MP3)... 
	============================================================================== 
	Nuclear Repulsion Energy (a.u.)    :     9.17295117776190
	SCF Energy (a.u.)                  :   -76.02668079826118
	REF Energy (a.u.)                  :   -76.02668079826114
	Alpha-Alpha Contribution (a.u.)    :    -0.02386765990069
	Alpha-Beta Contribution (a.u.)     :    -0.16314831304827
	Beta-Beta Contribution (a.u.)      :    -0.02386765990069
	MP2.5 Correlation Energy (a.u.)    :    -0.20749539823450
	MP2.5 Total Energy (a.u.)          :   -76.23417619649568
	SCS-MP3 Total Energy (a.u.)        :   -76.22863369321539
	SOS-MP3 Total Energy (a.u.)        :   -76.22670950022902
	SCSN-MP3 Total Energy (a.u.)       :   -76.11908900892183
	SCS-MP3-VDW Total Energy (a.u.)    :   -76.24942924817461
	SOS-PI-MP3 Total Energy (a.u.)     :   -76.24196600674136
	3rd Order Energy (a.u.)            :    -0.00677646923023
	MP3 Correlation Energy (a.u.)      :    -0.21088363284966
	MP3 Total Energy (a.u.)            :   -76.23756443111080
	============================================================================== 


	Number of independent-pairs:  33

 ============================================================================== 
 ================ Performing OMP3 iterations... =============================== 
 ============================================================================== 
	            Minimizing MP3-L Functional 
	            --------------------------- 
 Iter       E_total           DE           RMS MO Grad      MAX MO Grad      RMS T2    
 ----    ---------------    ----------     -----------      -----------     ---------- 
   1     -76.2381449433     -5.81e-04       3.63e-05         5.10e-04        2.07e-07 
   2     -76.2381457311     -7.88e-07       1.59e-06         2.74e-05        7.94e-09 
   3     -76.2381457389     -7.86e-09       3.48e-07         5.29e-06        5.16e-10 

 ============================================================================== 
 ======================== OMP3 ITERATIONS ARE CONVERGED ======================= 
 ============================================================================== 

	Computing MP2 energy using optimized MOs... 
	============================================================================== 
	Nuclear Repulsion Energy (a.u.)    :     9.17295117776190
	SCF Energy (a.u.)                  :   -76.02668079826118
	REF Energy (a.u.)                  :   -76.02608654720525
	Alpha-Alpha Contribution (a.u.)    :    -0.02592029505432
	Alpha-Beta Contribution (a.u.)     :    -0.15366887890608
	Beta-Beta Contribution (a.u.)      :    -0.02592029505432
	Scaled_SS Correlation Energy (a.u.):    -0.01728019670288
	Scaled_OS Correlation Energy (a.u.):    -0.18440265468730
	SCS-MP2 Total Energy (a.u.)        :   -76.22776939859543
	SOS-MP2 Total Energy (a.u.)        :   -76.22585608978316
	SCSN-MP2 Total Energy (a.u.)       :   -76.11732598579646
	SCS-MP2-VDW Total Energy (a.u.)    :   -76.24870300725937
	SOS-PI-MP2 Total Energy (a.u.)     :   -76.24122297767377
	MP2 Correlation Energy (a.u.)      :    -0.21205919173081
	MP2 Total Energy (a.u.)            :   -76.23159601621998
	============================================================================== 


	Computing MP3 energy using optimized MOs... 
	============================================================================== 
	Nuclear Repulsion Energy (a.u.)    :     9.17295117776190
	SCF Energy (a.u.)                  :   -76.02668079826118
	REF Energy (a.u.)                  :   -76.02608654720525
	Alpha-Alpha Contribution (a.u.)    :    -0.02394012309471
	Alpha-Beta Contribution (a.u.)     :    -0.16417894554139
	Beta-Beta Contribution (a.u.)      :    -0.02394012309471
	MP2.5 Correlation Energy (a.u.)    :    -0.20819007931684
	MP2.5 Total Energy (a.u.)          :   -76.23487087757803
	SCS-MP3 Total Energy (a.u.)        :   -76.22940682927445
	SOS-MP3 Total Energy (a.u.)        :   -76.22749352046219
	SCSN-MP3 Total Energy (a.u.)       :   -76.11896341647548
	SCS-MP3-VDW Total Energy (a.u.)    :   -76.25034043793839
	SOS-PI-MP3 Total Energy (a.u.)     :   -76.24286040835280
	3rd Order Energy (a.u.)            :    -0.00654972271609
	MP3 Correlation Energy (a.u.)      :    -0.21205919173081
	MP3 Total Energy (a.u.)            :   -76.23814573893607
	============================================================================== 


	============================================================================== 
	================ OMP3 FINAL RESULTS ========================================== 
	============================================================================== 
	Nuclear Repulsion Energy (a.u.)    :     9.17295117776190
	SCF Energy (a.u.)                  :   -76.02668079826118
	REF Energy (a.u.)                  :   -76.02608654720525
	SCS-OMP3 Total Energy (a.u.)       :   -76.22940682927445
	SOS-OMP3 Total Energy (a.u.)       :   -76.22749352046219
	SCSN-OMP3 Total Energy (a.u.)      :   -76.11896341647548
	SCS-OMP3-VDW Total Energy (a.u.    :   -76.25034043793839
	SOS-PI-OMP3 Total Energy (a.u.)    :   -76.24286040835280
	OMP3 Correlation Energy (a.u.)     :    -0.21146494067489
	Eomp3 - Eref (a.u.)                :    -0.21205919173082
	OMP3 Total Energy (a.u.)           :   -76.23814573893607
	============================================================================== 


*** tstop() called on psinet at Mon May 15 15:37:47 2017
Module time:
	user time   =       0.05 seconds =       0.00 minutes
	system time =       0.05 seconds =       0.00 minutes
	total time  =          0 seconds =       0.00 minutes
Total time:
	user time   =       1.37 seconds =       0.02 minutes
	system time =       0.26 seconds =       0.00 minutes
	total time  =          2 seconds =       0.03 minutes

  //>>>>>>>>>>>>>>>>>>>>>>>>>>>>>>>>>>>//
  //    Loading displacement 4 of 5    //
  //<<<<<<<<<<<<<<<<<<<<<<<<<<<<<<<<<<<//

*** tstart() called on psinet
*** at Mon May 15 15:37:47 2017

   => Loading Basis Set <=

    Name: CC-PVDZ
    Role: ORBITAL
    Keyword: BASIS
    atoms 1   entry O          line   190 file /home/psilocaluser/gits/hrw-direct/objdir4/stage/usr/local/psi4/share/psi4/basis/cc-pvdz.gbs 
    atoms 2-3 entry H          line    20 file /home/psilocaluser/gits/hrw-direct/objdir4/stage/usr/local/psi4/share/psi4/basis/cc-pvdz.gbs 


         ---------------------------------------------------------
                                   SCF
            by Justin Turney, Rob Parrish, and Andy Simmonett
                              RHF Reference
                        1 Threads,    500 MiB Core
         ---------------------------------------------------------

  ==> Geometry <==

    Molecular point group: c2v
    Full point group: C2v

    Geometry (in Angstrom), charge = 0, multiplicity = 1:

       Center              X                  Y                   Z               Mass       
    ------------   -----------------  -----------------  -----------------  -----------------
           O          0.000000000000     0.000000000000    -0.065655108074    15.994914619560
           H          0.000000000000    -0.755502302551     0.520997104936     1.007825032070
           H          0.000000000000     0.755502302551     0.520997104936     1.007825032070

  Running in c2v symmetry.

  Rotational constants: A =     27.36310  B =     14.65243  C =      9.54257 [cm^-1]
  Rotational constants: A = 820325.16776  B = 439268.91843  C = 286078.94651 [MHz]
  Nuclear repulsion =    9.201855161672771

  Charge       = 0
  Multiplicity = 1
  Electrons    = 10
  Nalpha       = 5
  Nbeta        = 5

  ==> Algorithm <==

  SCF Algorithm Type is PK.
  DIIS enabled.
  MOM disabled.
  Fractional occupation disabled.
  Guess Type is SAD.
  Energy threshold   = 1.00e-10
  Density threshold  = 1.00e-10
  Integral threshold = 0.00e+00

  ==> Primary Basis <==

  Basis Set: CC-PVDZ
    Blend: CC-PVDZ
    Number of shells: 12
    Number of basis function: 24
    Number of Cartesian functions: 25
    Spherical Harmonics?: true
    Max angular momentum: 2

  ==> Pre-Iterations <==

   -------------------------------------------------------
    Irrep   Nso     Nmo     Nalpha   Nbeta   Ndocc  Nsocc
   -------------------------------------------------------
     A1        11      11       0       0       0       0
     A2         2       2       0       0       0       0
     B1         4       4       0       0       0       0
     B2         7       7       0       0       0       0
   -------------------------------------------------------
    Total      24      24       5       5       5       0
   -------------------------------------------------------

  ==> Integral Setup <==

  Using in-core PK algorithm.
   Calculation information:
      Number of atoms:                   3
      Number of AO shells:              12
      Number of primitives:             32
      Number of atomic orbitals:        25
      Number of basis functions:        24

      Integral cutoff                 1.00e-12
      Number of threads:                 1

  Performing in-core PK
  Using 90300 doubles for integral storage.
  We computed 3081 shell quartets total.
  Whereas there are 3081 unique shell quartets.
  ==> DiskJK: Disk-Based J/K Matrices <==

    J tasked:                  Yes
    K tasked:                  Yes
    wK tasked:                  No
    Memory (MB):               375
    Schwarz Cutoff:          1E-12

    OpenMP threads:              1
  Minimum eigenvalue in the overlap matrix is 3.4106682072E-02.
  Using Symmetric Orthogonalization.

  SCF Guess: Superposition of Atomic Densities via on-the-fly atomic UHF.

  ==> Iterations <==

                        Total Energy        Delta E     RMS |[F,P]|

   @RHF iter   0:   -75.90114247043455   -7.59011e+01   1.22215e-01 
   @RHF iter   1:   -75.99809539700139   -9.69529e-02   1.95835e-02 
   @RHF iter   2:   -76.02039462874944   -2.22992e-02   9.84408e-03 DIIS
   @RHF iter   3:   -76.02667200600767   -6.27738e-03   1.12409e-03 DIIS
   @RHF iter   4:   -76.02681776525070   -1.45759e-04   2.65208e-04 DIIS
   @RHF iter   5:   -76.02682977256519   -1.20073e-05   5.79492e-05 DIIS
   @RHF iter   6:   -76.02683065214705   -8.79582e-07   1.14711e-05 DIIS
   @RHF iter   7:   -76.02683069189246   -3.97454e-08   1.12710e-06 DIIS
   @RHF iter   8:   -76.02683069217306   -2.80608e-10   2.18115e-07 DIIS
   @RHF iter   9:   -76.02683069218314   -1.00755e-11   2.50310e-08 DIIS
   @RHF iter  10:   -76.02683069218318   -4.26326e-14   1.87331e-09 DIIS
   @RHF iter  11:   -76.02683069218321   -2.84217e-14   2.57655e-10 DIIS
   @RHF iter  12:   -76.02683069218325   -4.26326e-14   1.55590e-11 DIIS

  ==> Post-Iterations <==

    Orbital Energies (a.u.)
    -----------------------

    Doubly Occupied:                                                      

       1A1   -20.550394     2A1    -1.337195     1B2    -0.699356  
       3A1    -0.567060     1B1    -0.493261  

    Virtual:                                                              

       4A1     0.185656     2B2     0.256379     3B2     0.789243  
       5A1     0.855802     6A1     1.163592     2B1     1.200346  
       4B2     1.253439     7A1     1.442906     1A2     1.477018  
       3B1     1.673855     8A1     1.866766     5B2     1.936733  
       6B2     2.454144     9A1     2.492555     4B1     3.287223  
       2A2     3.338980    10A1     3.512296    11A1     3.865325  
       7B2     4.149344  

    Final Occupation by Irrep:
             A1    A2    B1    B2 
    DOCC [     3,    0,    1,    1 ]

  Energy converged.

  @RHF Final Energy:   -76.02683069218325

   => Energetics <=

    Nuclear Repulsion Energy =              9.2018551616727713
    One-Electron Energy =                -123.1628376826803617
    Two-Electron Energy =                  37.9341518288243549
    DFT Exchange-Correlation Energy =       0.0000000000000000
    Empirical Dispersion Energy =           0.0000000000000000
    PCM Polarization Energy =               0.0000000000000000
    EFP Energy =                            0.0000000000000000
    Total Energy =                        -76.0268306921832391



Properties will be evaluated at   0.000000,   0.000000,   0.000000 Bohr

Properties computed using the SCF density matrix

  Nuclear Dipole Moment: (a.u.)
     X:     0.0000      Y:     0.0000      Z:     0.9765

  Electronic Dipole Moment: (a.u.)
     X:     0.0000      Y:     0.0000      Z:    -0.1667

  Dipole Moment: (a.u.)
     X:     0.0000      Y:     0.0000      Z:     0.8098     Total:     0.8098

  Dipole Moment: (Debye)
     X:     0.0000      Y:     0.0000      Z:     2.0583     Total:     2.0583


*** tstop() called on psinet at Mon May 15 15:37:47 2017
Module time:
	user time   =       0.34 seconds =       0.01 minutes
	system time =       0.02 seconds =       0.00 minutes
	total time  =          0 seconds =       0.00 minutes
Total time:
	user time   =       1.72 seconds =       0.03 minutes
	system time =       0.28 seconds =       0.00 minutes
	total time  =          2 seconds =       0.03 minutes
 MINTS: Wrapper to libmints.
   by Justin Turney

   Calculation information:
      Number of threads:                 1
      Number of atoms:                   3
      Number of AO shells:              12
      Number of SO shells:               9
      Number of primitives:             32
      Number of atomic orbitals:        25
      Number of basis functions:        24

      Number of irreps:                  4
      Integral cutoff                 0.00e+00
      Number of functions per irrep: [  11    2    4    7 ]

 OEINTS: Overlap, kinetic, potential, dipole, and quadrupole integrals
         stored in file 35.

      Computing two-electron integrals...done
      Computed 11615 non-zero two-electron integrals.
        Stored in file 33.


*** tstart() called on psinet
*** at Mon May 15 15:37:47 2017



  Options:
  ----------------------------------------------------------------------------
  ACTIVE                      => [  ]             
  BASIS_RELATIVISTIC          => (empty)          
  BENCH                       => 0                
  CACHELEVEL                  => 2                
  CCL_ENERGY                  => FALSE            
  CC_DIIS_MAX_VECS            => 6                
  CC_DIIS_MIN_VECS            => 2                
  CC_MAXITER                  => 50               
  CC_TYPE                     => CONV             
  CEPA_OS_SCALE               => 1.27             
  CEPA_SOS_SCALE              => 1.3              
  CEPA_SS_SCALE               => 1.13             
  CEPA_TYPE                   => CEPA0            
  CI_TYPE                     => CONV             
  CUBEPROP_BASIS_FUNCTIONS    => [  ]             
  CUBEPROP_FILEPATH           => .                
  CUBEPROP_ORBITALS           => [  ]             
  CUBEPROP_TASKS              => [  ]             
  CUBIC_BASIS_TOLERANCE       => 1e-12            
  CUBIC_BLOCK_MAX_POINTS      => 1000             
  CUBIC_GRID_OVERAGE          => [  ]             
  CUBIC_GRID_SPACING          => [  ]             
  CUTOFF                      => 14               
  DEBUG                       => 0                
  DERTYPE                     => NONE             
  DF_BASIS_CC                 => (empty)          
  DIE_IF_NOT_CONVERGED        => TRUE             
  DKH_ORDER                   => 2                
  DOCC                        => [  ]             
  DO_DIIS                     => TRUE             
  DO_LEVEL_SHIFT              => TRUE             
  DO_SCS                      => TRUE            !
  DO_SOS                      => FALSE            
  E3_SCALE                    => 0.25             
  EA_POLES                    => FALSE            
  EKT_EA                      => FALSE            
  EKT_IP                      => FALSE            
  EP_EA_POLES                 => FALSE            
  EP_IP_POLES                 => FALSE            
  EP_MAXITER                  => 30               
  EXTERNAL_POTENTIAL_SYMMETRY => FALSE            
  E_CONVERGENCE               => 1e-08           !
  FREEZE_CORE                 => FALSE            
  FROZEN_DOCC                 => [  ]             
  FROZEN_UOCC                 => [  ]             
  INTEGRAL_PACKAGE            => LIBINT           
  IP_POLES                    => FALSE            
  LEVEL_SHIFT                 => 0.02             
  LINEQ_SOLVER                => CDGESV           
  LITERAL_CFOUR               => (empty)          
  MAT_NUM_COLUMN_PRINT        => 5                
  MAX_MOGRAD_CONVERGENCE      => 0.001            
  MOGRAD_DAMPING              => 1                
  MOLDEN_WITH_VIRTUAL         => TRUE             
  MO_DIIS_NUM_VECS            => 6                
  MO_MAXITER                  => 50               
  MO_READ                     => FALSE            
  MO_STEP_MAX                 => 0.5              
  MO_WRITE                    => FALSE            
  MP2_OS_SCALE                => 1.2              
  MP2_SOS_SCALE               => 1.3              
  MP2_SOS_SCALE2              => 1.2              
  MP2_SS_SCALE                => 0.333333         
  MP2_TYPE                    => DF               
  MP_TYPE                     => CONV             
  NAT_ORBS                    => FALSE            
  NUM_FROZEN_DOCC             => 0                
  NUM_FROZEN_UOCC             => 0                
  OCC_ORBS_PRINT              => FALSE            
  OEPROP                      => FALSE            
  OPT_METHOD                  => ORB_RESP         
  ORB_OPT                     => TRUE            !
  ORB_RESP_SOLVER             => PCG              
  ORTH_TYPE                   => MGS              
  PCG_BETA_TYPE               => FLETCHER_REEVES  
  PCG_CONVERGENCE             => 1e-06            
  PCG_MAXITER                 => 30               
  PCM                         => FALSE            
  PCM_CC_TYPE                 => PTE              
  PCM_SCF_TYPE                => TOTAL            
  PRINT                       => 1                
  PRINT_NOONS                 => 3                
  PROPERTIES                  => [  ]             
  PROPERTIES_ORIGIN           => [  ]             
  PUREAM                      => TRUE             
  QC_MODULE                   => (empty)          
  RAS1                        => [  ]             
  RAS2                        => [  ]             
  RAS3                        => [  ]             
  RAS4                        => [  ]             
  RELATIVISTIC                => NO               
  RELAXED                     => TRUE             
  RESTRICTED_DOCC             => [  ]             
  RESTRICTED_UOCC             => [  ]             
  RMS_MOGRAD_CONVERGENCE      => 1e-06            
  R_CONVERGENCE               => 1e-05            
  SCS_TYPE                    => SCS             !
  SOCC                        => [  ]             
  SOS_TYPE                    => SOS              
  SYMMETRIZE                  => TRUE             
  TPDM_ABCD_TYPE              => DIRECT           
  UNITS                       => ANGSTROMS        
  WFN                         => SCF              
  WFN_TYPE                    => OMP3            !
  WRITER_FILE_LABEL           => (empty)          


 ============================================================================== 
 ============================================================================== 
 ============================================================================== 

                       OMP3 (OO-MP3)   
              Program Written by Ugur Bozkaya,
              Latest Revision June 25, 2014.

 ============================================================================== 
 ============================================================================== 
 ============================================================================== 

	RMS orbital gradient is changed to :     1.00e-06
	MAX orbital gradient is changed to :     1.00e-04
	MO spaces per irreps... 

	IRREP   FC    OCC   VIR  FV 
	==============================
	  A1     0     3     8    0
	  A2     0     0     2    0
	  B1     0     1     3    0
	  B2     0     1     6    0
	==============================

	Computing MP2 energy using SCF MOs (Canonical MP2)... 
	============================================================================== 
	Nuclear Repulsion Energy (a.u.)    :     9.20185516167277
	SCF Energy (a.u.)                  :   -76.02683069218325
	REF Energy (a.u.)                  :   -76.02683069218321
	Alpha-Alpha Contribution (a.u.)    :    -0.02575900832735
	Alpha-Beta Contribution (a.u.)     :    -0.15241352991887
	Beta-Beta Contribution (a.u.)      :    -0.02575900832735
	Scaled_SS Correlation Energy (a.u.):    -0.01717267221824
	Scaled_OS Correlation Energy (a.u.):    -0.18289623590265
	SCS-MP2 Total Energy (a.u.)        :   -76.22689960030409
	SOS-MP2 Total Energy (a.u.)        :   -76.22496828107775
	SCSN-MP2 Total Energy (a.u.)       :   -76.11750240149550
	SCS-MP2-VDW Total Energy (a.u.)    :   -76.24767901880672
	SOS-PI-MP2 Total Energy (a.u.)     :   -76.24020963406963
	MP2 Correlation Energy (a.u.)      :    -0.20393154657358
	MP2 Total Energy (a.u.)            :   -76.23076223875678
	============================================================================== 


	Computing MP3 energy using SCF MOs (Canonical MP3)... 
	============================================================================== 
	Nuclear Repulsion Energy (a.u.)    :     9.20185516167277
	SCF Energy (a.u.)                  :   -76.02683069218325
	REF Energy (a.u.)                  :   -76.02683069218321
	Alpha-Alpha Contribution (a.u.)    :    -0.02386882494008
	Alpha-Beta Contribution (a.u.)     :    -0.16299226828580
	Beta-Beta Contribution (a.u.)      :    -0.02386882494008
	MP2.5 Correlation Energy (a.u.)    :    -0.20733073236972
	MP2.5 Total Energy (a.u.)          :   -76.23416142455298
	SCS-MP3 Total Energy (a.u.)        :   -76.22859919320219
	SOS-MP3 Total Energy (a.u.)        :   -76.22666787397584
	SCSN-MP3 Total Energy (a.u.)       :   -76.11920199439359
	SCS-MP3-VDW Total Energy (a.u.)    :   -76.24937861170481
	SOS-PI-MP3 Total Energy (a.u.)     :   -76.24190922696772
	3rd Order Energy (a.u.)            :    -0.00679837159238
	MP3 Correlation Energy (a.u.)      :    -0.21072991816595
	MP3 Total Energy (a.u.)            :   -76.23756061034916
	============================================================================== 


	Number of independent-pairs:  33

 ============================================================================== 
 ================ Performing OMP3 iterations... =============================== 
 ============================================================================== 
	            Minimizing MP3-L Functional 
	            --------------------------- 
 Iter       E_total           DE           RMS MO Grad      MAX MO Grad      RMS T2    
 ----    ---------------    ----------     -----------      -----------     ---------- 
   1     -76.2381349252     -5.74e-04       3.59e-05         5.05e-04        2.05e-07 
   2     -76.2381356963     -7.71e-07       1.56e-06         2.69e-05        7.77e-09 
   3     -76.2381357040     -7.66e-09       3.41e-07         5.18e-06        5.00e-10 

 ============================================================================== 
 ======================== OMP3 ITERATIONS ARE CONVERGED ======================= 
 ============================================================================== 

	Computing MP2 energy using optimized MOs... 
	============================================================================== 
	Nuclear Repulsion Energy (a.u.)    :     9.20185516167277
	SCF Energy (a.u.)                  :   -76.02683069218325
	REF Energy (a.u.)                  :   -76.02624288415687
	Alpha-Alpha Contribution (a.u.)    :    -0.02590723314364
	Alpha-Beta Contribution (a.u.)     :    -0.15350517074397
	Beta-Beta Contribution (a.u.)      :    -0.02590723314364
	Scaled_SS Correlation Energy (a.u.):    -0.01727148876243
	Scaled_OS Correlation Energy (a.u.):    -0.18420620489276
	SCS-MP2 Total Energy (a.u.)        :   -76.22772057781205
	SOS-MP2 Total Energy (a.u.)        :   -76.22579960612403
[...]
 MINTS: Wrapper to libmints.
   by Justin Turney

   Calculation information:
      Number of threads:                 1
      Number of atoms:                   3
      Number of AO shells:              12
      Number of SO shells:               9
      Number of primitives:             32
      Number of atomic orbitals:        25
      Number of basis functions:        24

      Number of irreps:                  4
      Integral cutoff                 0.00e+00
      Number of functions per irrep: [  11    2    4    7 ]

 OEINTS: Overlap, kinetic, potential, dipole, and quadrupole integrals
         stored in file 35.

      Computing two-electron integrals...done
      Computed 11551 non-zero two-electron integrals.
        Stored in file 33.


*** tstart() called on psinet
*** at Mon May 15 15:37:51 2017



  Options:
  ----------------------------------------------------------------------------
  ACTIVE                      => [  ]             
  BASIS_RELATIVISTIC          => (empty)          
  BENCH                       => 0                
  CACHELEVEL                  => 2                
  CCL_ENERGY                  => FALSE            
  CC_DIIS_MAX_VECS            => 6                
  CC_DIIS_MIN_VECS            => 2                
  CC_MAXITER                  => 50               
  CC_TYPE                     => CONV             
  CEPA_OS_SCALE               => 1.27             
  CEPA_SOS_SCALE              => 1.3              
  CEPA_SS_SCALE               => 1.13             
  CEPA_TYPE                   => CEPA0            
  CI_TYPE                     => CONV             
  CUBEPROP_BASIS_FUNCTIONS    => [  ]             
  CUBEPROP_FILEPATH           => .                
  CUBEPROP_ORBITALS           => [  ]             
  CUBEPROP_TASKS              => [  ]             
  CUBIC_BASIS_TOLERANCE       => 1e-12            
  CUBIC_BLOCK_MAX_POINTS      => 1000             
  CUBIC_GRID_OVERAGE          => [  ]             
  CUBIC_GRID_SPACING          => [  ]             
  CUTOFF                      => 14               
  DEBUG                       => 0                
  DERTYPE                     => NONE             
  DF_BASIS_CC                 => (empty)          
  DIE_IF_NOT_CONVERGED        => TRUE             
  DKH_ORDER                   => 2                
  DOCC                        => [  ]             
  DO_DIIS                     => TRUE             
  DO_LEVEL_SHIFT              => TRUE             
  DO_SCS                      => TRUE            !
  DO_SOS                      => FALSE            
  E3_SCALE                    => 0.25             
  EA_POLES                    => FALSE            
  EKT_EA                      => FALSE            
  EKT_IP                      => FALSE            
  EP_EA_POLES                 => FALSE            
  EP_IP_POLES                 => FALSE            
  EP_MAXITER                  => 30               
  EXTERNAL_POTENTIAL_SYMMETRY => FALSE            
  E_CONVERGENCE               => 1e-08           !
  FREEZE_CORE                 => FALSE            
  FROZEN_DOCC                 => [  ]             
  FROZEN_UOCC                 => [  ]             
  INTEGRAL_PACKAGE            => LIBINT           
  IP_POLES                    => FALSE            
  LEVEL_SHIFT                 => 0.02             
  LINEQ_SOLVER                => CDGESV           
  LITERAL_CFOUR               => (empty)          
  MAT_NUM_COLUMN_PRINT        => 5                
  MAX_MOGRAD_CONVERGENCE      => 0.001            
  MOGRAD_DAMPING              => 1                
  MOLDEN_WITH_VIRTUAL         => TRUE             
  MO_DIIS_NUM_VECS            => 6                
  MO_MAXITER                  => 50               
  MO_READ                     => FALSE            
  MO_STEP_MAX                 => 0.5              
  MO_WRITE                    => FALSE            
  MP2_OS_SCALE                => 1.2              
  MP2_SOS_SCALE               => 1.3              
  MP2_SOS_SCALE2              => 1.2              
  MP2_SS_SCALE                => 0.333333         
  MP2_TYPE                    => DF               
  MP_TYPE                     => CONV             
  NAT_ORBS                    => FALSE            
  NUM_FROZEN_DOCC             => 0                
  NUM_FROZEN_UOCC             => 0                
  OCC_ORBS_PRINT              => FALSE            
  OEPROP                      => FALSE            
  OPT_METHOD                  => ORB_RESP         
  ORB_OPT                     => TRUE            !
  ORB_RESP_SOLVER             => PCG              
  ORTH_TYPE                   => MGS              
  PCG_BETA_TYPE               => FLETCHER_REEVES  
  PCG_CONVERGENCE             => 1e-06            
  PCG_MAXITER                 => 30               
  PCM                         => FALSE            
  PCM_CC_TYPE                 => PTE              
  PCM_SCF_TYPE                => TOTAL            
  PRINT                       => 1                
  PRINT_NOONS                 => 3                
  PROPERTIES                  => [  ]             
  PROPERTIES_ORIGIN           => [  ]             
  PUREAM                      => TRUE             
  QC_MODULE                   => (empty)          
  RAS1                        => [  ]             
  RAS2                        => [  ]             
  RAS3                        => [  ]             
  RAS4                        => [  ]             
  RELATIVISTIC                => NO               
  RELAXED                     => TRUE             
  RESTRICTED_DOCC             => [  ]             
  RESTRICTED_UOCC             => [  ]             
  RMS_MOGRAD_CONVERGENCE      => 1e-06            
  R_CONVERGENCE               => 1e-05            
  SCS_TYPE                    => SCS             !
  SOCC                        => [  ]             
  SOS_TYPE                    => SOS              
  SYMMETRIZE                  => TRUE             
  TPDM_ABCD_TYPE              => DIRECT           
  UNITS                       => ANGSTROMS        
  WFN                         => SCF              
  WFN_TYPE                    => OMP3            !
  WRITER_FILE_LABEL           => (empty)          


 ============================================================================== 
 ============================================================================== 
 ============================================================================== 

                       OMP3 (OO-MP3)   
              Program Written by Ugur Bozkaya,
              Latest Revision June 25, 2014.

 ============================================================================== 
 ============================================================================== 
 ============================================================================== 

	RMS orbital gradient is changed to :     1.00e-06
	MAX orbital gradient is changed to :     1.00e-04
	MO spaces per irreps... 

	IRREP   FC    OCC   VIR  FV 
	==============================
	  A1     0     3     8    0
	  A2     0     0     2    0
	  B1     0     1     3    0
	  B2     0     1     6    0
	==============================

	Computing MP2 energy using SCF MOs (Canonical MP2)... 
	============================================================================== 
	Nuclear Repulsion Energy (a.u.)    :     9.11871324557559
	SCF Energy (a.u.)                  :   -76.02615850769526
	REF Energy (a.u.)                  :   -76.02615850769527
	Alpha-Alpha Contribution (a.u.)    :    -0.02584572733809
	Alpha-Beta Contribution (a.u.)     :    -0.15313456591277
	Beta-Beta Contribution (a.u.)      :    -0.02584572733809
	Scaled_SS Correlation Energy (a.u.):    -0.01723048489206
	Scaled_OS Correlation Energy (a.u.):    -0.18376147909532
	SCS-MP2 Total Energy (a.u.)        :   -76.22715047168265
	SOS-MP2 Total Energy (a.u.)        :   -76.22523344338187
	SCSN-MP2 Total Energy (a.u.)       :   -76.11713546792535
	SCS-MP2-VDW Total Energy (a.u.)    :   -76.24801647940171
	SOS-PI-MP2 Total Energy (a.u.)     :   -76.24054689997314
	MP2 Correlation Energy (a.u.)      :    -0.20482602058894
	MP2 Total Energy (a.u.)            :   -76.23098452828421
	============================================================================== 


	Computing MP3 energy using SCF MOs (Canonical MP3)... 
	============================================================================== 
	Nuclear Repulsion Energy (a.u.)    :     9.11871324557559
	SCF Energy (a.u.)                  :   -76.02615850769526
	REF Energy (a.u.)                  :   -76.02615850769527
	Alpha-Alpha Contribution (a.u.)    :    -0.02390048621330
	Alpha-Beta Contribution (a.u.)     :    -0.16370864679569
	Beta-Beta Contribution (a.u.)      :    -0.02390048621330
	MP2.5 Correlation Energy (a.u.)    :    -0.20816781990563
	MP2.5 Total Energy (a.u.)          :   -76.23432632760088
	SCS-MP3 Total Energy (a.u.)        :   -76.22882137134098
	SOS-MP3 Total Energy (a.u.)        :   -76.22690434304020
	SCSN-MP3 Total Energy (a.u.)       :   -76.11880636758369
	SCS-MP3-VDW Total Energy (a.u.)    :   -76.24968737906005
	SOS-PI-MP3 Total Energy (a.u.)     :   -76.24221779963148
	3rd Order Energy (a.u.)            :    -0.00668359863336
	MP3 Correlation Energy (a.u.)      :    -0.21150961922230
	MP3 Total Energy (a.u.)            :   -76.23766812691757
	============================================================================== 


	Number of independent-pairs:  33

 ============================================================================== 
 ================ Performing OMP3 iterations... =============================== 
 ============================================================================== 
	            Minimizing MP3-L Functional 
	            --------------------------- 
 Iter       E_total           DE           RMS MO Grad      MAX MO Grad      RMS T2    
 ----    ---------------    ----------     -----------      -----------     ---------- 
   1     -76.2382705396     -6.02e-04       3.77e-05         5.28e-04        2.16e-07 
   2     -76.2382713856     -8.46e-07       1.71e-06         2.92e-05        8.45e-09 
   3     -76.2382713937     -8.04e-09       3.68e-07         5.61e-06        5.61e-10 

 ============================================================================== 
 ======================== OMP3 ITERATIONS ARE CONVERGED ======================= 
 ============================================================================== 

	Computing MP2 energy using optimized MOs... 
	============================================================================== 
	Nuclear Repulsion Energy (a.u.)    :     9.11871324557559
	SCF Energy (a.u.)                  :   -76.02615850769526
	REF Energy (a.u.)                  :   -76.02554160711955
	Alpha-Alpha Contribution (a.u.)    :    -0.02600113707237
	Alpha-Beta Contribution (a.u.)     :    -0.15428253235459
	Beta-Beta Contribution (a.u.)      :    -0.02600113707237
	Scaled_SS Correlation Energy (a.u.):    -0.01733409138158
	Scaled_OS Correlation Energy (a.u.):    -0.18513903882550
	SCS-MP2 Total Energy (a.u.)        :   -76.22801473732663
	SOS-MP2 Total Energy (a.u.)        :   -76.22610889918052
	SCSN-MP2 Total Energy (a.u.)       :   -76.11706560961429
	SCS-MP2-VDW Total Energy (a.u.)    :   -76.24902438560579
	SOS-PI-MP2 Total Energy (a.u.)     :   -76.24153715241597
	MP2 Correlation Energy (a.u.)      :    -0.21272978654886
	MP2 Total Energy (a.u.)            :   -76.23182641361888
	============================================================================== 


	Computing MP3 energy using optimized MOs... 
	============================================================================== 
	Nuclear Repulsion Energy (a.u.)    :     9.11871324557559
	SCF Energy (a.u.)                  :   -76.02615850769526
	REF Energy (a.u.)                  :   -76.02554160711955
	Alpha-Alpha Contribution (a.u.)    :    -0.02397550233409
	Alpha-Beta Contribution (a.u.)     :    -0.16477878188068
	Beta-Beta Contribution (a.u.)      :    -0.02397550233409
	MP2.5 Correlation Energy (a.u.)    :    -0.20889039594839
	MP2.5 Total Energy (a.u.)          :   -76.23504890364364
	SCS-MP3 Total Energy (a.u.)        :   -76.22962598233902
	SOS-MP3 Total Energy (a.u.)        :   -76.22772014419290
	SCSN-MP3 Total Energy (a.u.)       :   -76.11867685462667
	SCS-MP3-VDW Total Energy (a.u.)    :   -76.25063563061818
	SOS-PI-MP3 Total Energy (a.u.)     :   -76.24314839742836
	3rd Order Energy (a.u.)            :    -0.00644498004954
	MP3 Correlation Energy (a.u.)      :    -0.21272978654886
	MP3 Total Energy (a.u.)            :   -76.23827139366841
	============================================================================== 


	============================================================================== 
	================ OMP3 FINAL RESULTS ========================================== 
	============================================================================== 
	Nuclear Repulsion Energy (a.u.)    :     9.11871324557559
	SCF Energy (a.u.)                  :   -76.02615850769526
	REF Energy (a.u.)                  :   -76.02554160711955
	SCS-OMP3 Total Energy (a.u.)       :   -76.22962598233902
	SOS-OMP3 Total Energy (a.u.)       :   -76.22772014419290
	SCSN-OMP3 Total Energy (a.u.)      :   -76.11867685462667
	SCS-OMP3-VDW Total Energy (a.u.    :   -76.25063563061818
	SOS-PI-OMP3 Total Energy (a.u.)    :   -76.24314839742836
	OMP3 Correlation Energy (a.u.)     :    -0.21211288597316
	Eomp3 - Eref (a.u.)                :    -0.21272978654886
	OMP3 Total Energy (a.u.)           :   -76.23827139366841
	============================================================================== 


*** tstop() called on psinet at Mon May 15 15:37:51 2017
Module time:
	user time   =       0.05 seconds =       0.00 minutes
	system time =       0.05 seconds =       0.00 minutes
	total time  =          0 seconds =       0.00 minutes
Total time:
	user time   =       4.60 seconds =       0.08 minutes
	system time =       1.12 seconds =       0.02 minutes
	total time  =          6 seconds =       0.10 minutes

-------------------------------------------------------------

  Computing gradient from energies (fd_1_0).
	Using 3-point formula.
	Energy without displacement:  -76.2296259823
	Check energies below for precision!
	Forces are for mass-weighted, symmetry-adapted cartesians (in au).

	 Coord      Energy(-)        Energy(+)        Force
	    0    -76.2296225077   -76.2296228129    -0.0000305199
	    1    -76.2296204435   -76.2296216057    -0.0001162253

	Gradient written.

-------------------------------------------------------------
  Irrep: 1 Size: 3 x 3

                 1                   2                   3

    1     0.00000000000000     0.00000000000000    -0.00004083363160
    2     0.00000000000000    -0.00008250464849     0.00002041681580
    3     0.00000000000000     0.00008250464849     0.00002041681580




			-----------------------------------------
			 OPTKING 2.0: for geometry optimizations 
			  - R.A. King,  Bethel University        
			-----------------------------------------

	Previous internal coordinate definitions found.
	---Fragment 1 Geometry and Gradient---
	 O           0.0000000000        0.0000000000       -0.1285209085
	 H           0.0000000000       -1.4186269390        1.0198600419
	 H           0.0000000000        1.4186269390        1.0198600419
	             0.0000000000        0.0000000000       -0.0000408336
	             0.0000000000       -0.0000825046        0.0000204168
	             0.0000000000        0.0000825046        0.0000204168

	---Fragment 1 Intrafragment Coordinates---
	 - Coordinate -           - BOHR/RAD -       - ANG/DEG -
	 R(1,2)           =         1.825180	       0.965844
	 R(1,3)           =         1.825180	       0.965844
	 B(2,1,3)         =         1.780577	     102.019541

	Current energy   :       -76.2296259823

	Energy change for the previous step:
		Projected    :         0.0000011850
		Actual       :        -0.0000047525

	Performing BFGS update.
	Previous computed or guess Hessian on step 1.
	Steps to be used in Hessian update: 2 1
	Taking RFO optimization step.
	Going to follow RFO solution 1.
	Using RFO vector 1.
	Norm of target step-size    0.00041
	Projected energy change by RFO approximation:        -0.0000000070

	Back-transformation to cartesian coordinates...
	Successfully converged to displaced geometry.

	--- Internal Coordinate Step in ANG or DEG, aJ/ANG or AJ/DEG ---
	 ---------------------------------------------------------------------------
	   Coordinate                Previous        Force       Change         New 
	   ----------                --------       ------       ------       ------
	    1 R(1,2)          =      0.965844    -0.000634    -0.000070     0.965774
	    2 R(1,3)          =      0.965844    -0.000634    -0.000070     0.965774
	    3 B(2,1,3)        =    102.019541    -0.000005    -0.020817   101.998724
	 ---------------------------------------------------------------------------
	Successfully symmetrized geometry.

  ==> Convergence Check <==

  Measures of convergence in internal coordinates in au.
  Criteria marked as inactive (o), active & met (*), and active & unmet ( ).
  ---------------------------------------------------------------------------------------------
   Step     Total Energy     Delta E     MAX Force     RMS Force      MAX Disp      RMS Disp   
  ---------------------------------------------------------------------------------------------
    Convergence Criteria    1.00e-06 *    3.00e-04 *             o    1.20e-03 *             o
  ---------------------------------------------------------------------------------------------
      3     -76.22962598   -4.75e-06      7.70e-05 *    7.34e-05 o    3.63e-04 *    2.36e-04 o  ~
  ---------------------------------------------------------------------------------------------


  **** Optimization is complete! (in 3 steps) ****

  ==> Optimization Summary <==

  Measures of convergence in internal coordinates in au.
  --------------------------------------------------------------------------------------------------------------- ~
   Step         Total Energy             Delta E       MAX Force       RMS Force        MAX Disp        RMS Disp  ~
  --------------------------------------------------------------------------------------------------------------- ~
      1     -76.229390574664    -76.229390574664      0.00660116      0.00653915      0.03998048      0.02501245  ~
      2     -76.229621229861     -0.000230655196      0.00144424      0.00119831      0.00302320      0.00298944  ~
      3     -76.229625982339     -0.000004752478      0.00007697      0.00007343      0.00036333      0.00023592  ~
  --------------------------------------------------------------------------------------------------------------- ~

	Writing optimization data to binary file.
	Final energy is    -76.2296259823390
	Final (previous) structure:
	Cartesian Geometry (in Angstrom)
	    O     0.0000000000   0.0000000000  -0.0680103356
	    H     0.0000000000  -0.7507050436   0.5396866901
	    H     0.0000000000   0.7507050436   0.5396866901
	Saving final (previous) structure.
			--------------------------
			 OPTKING Finished Execution 
			--------------------------

    Final optimized geometry and variables:
    Molecular point group: c2v
    Full point group: C2v

    Geometry (in Angstrom), charge = 0, multiplicity = 1:

    O       
    H             1    0.965844
    H             1    0.965844      2  102.019541

	Cleaning optimization helper files.
	Nuclear Repulsion Energy (a.u.)...................................PASSED
	SCF Energy (a.u.).................................................PASSED
	SCS-OMP3 Total Energy (a.u.)......................................PASSED

*** Psi4 exiting successfully. Buy a developer a beer!
