
    -----------------------------------------------------------------------
          Psi4: An Open-Source Ab Initio Electronic Structure Package
                               Psi4 1.1rc3.dev5 

                         Git: Rev {master} 3fbd859 


    R. M. Parrish, L. A. Burns, D. G. A. Smith, A. C. Simmonett,
    A. E. DePrince III, E. G. Hohenstein, U. Bozkaya, A. Yu. Sokolov,
    R. Di Remigio, R. M. Richard, J. F. Gonthier, A. M. James,
    H. R. McAlexander, A. Kumar, M. Saitow, X. Wang, B. P. Pritchard,
    P. Verma, H. F. Schaefer III, K. Patkowski, R. A. King, E. F. Valeev,
    F. A. Evangelista, J. M. Turney, T. D. Crawford, and C. D. Sherrill,
    J. Chem. Theory Comput. in press (2017).
    (doi: 10.1021/acs.jctc.7b00174)

    -----------------------------------------------------------------------


    Psi4 started on: Monday, 15 May 2017 03:39PM

    Process ID:  15574
    PSIDATADIR: /home/psilocaluser/gits/hrw-direct/objdir4/stage/usr/local/psi4/share/psi4
    Memory:     500.0 MiB
    Threads:    1
    
  ==> Input File <==

--------------------------------------------------------------------------
#! Test of the superposition of atomic densities (SAD) guess, using a highly distorted water
#! geometry with a cc-pVDZ basis set.  This is just a test of the code and the user need only
#! specify guess=sad to the SCF module's (or global) options in order to use a SAD guess. The
#! test is first performed in C2v symmetry, and then in C1.

Nref  =   8.841020130083360  #TEST
E1ref = -75.973425           #TEST
Eref  = -76.01678947133706   #TEST

molecule h2o {
    O
    H 1 1.0
    H 1 1.0 2 90
}

set {
    basis     cc-pvdz
    guess     sad
    scf_type  direct
    sad_print 2
    df_scf_guess false
}

#set maxiter    1
#set e_convergence 1.0e1
#set d_convergence 1.0e1
#E1 = energy('scf')

set maxiter    50
set e_convergence 11
set d_convergence 11
E = energy('scf')

molecule h2o_c1 {
    symmetry c1
    O
    H 1 1.0
    H 1 1.0 2 90
}

set basis cc-pvdz

#set maxiter 1
#set e_convergence 1.0e1
#set d_convergence 1.0e1
#E1_c1 = energy('scf')

set maxiter 50
set e_convergence 11
set d_convergence 11
E_c1 = energy('scf')

compare_values(Nref, h2o_c1.nuclear_repulsion_energy(), 9, "C1  SAD Nuclear Repulsion Energy") #TEST
compare_values(Nref, h2o.nuclear_repulsion_energy(), 9, "C2v SAD Nuclear Repulsion Energy")    #TEST
#compare_values(E1ref, E1_c1, 1, "C1  SAD Iteration 1 Energy")                                  #TEST
#compare_values(E1ref, E1,    1, "C2v SAD Iteration 1 Energy")                                  #TEST
compare_values(Eref, E_c1, 9, "C1  SAD Iteration N Energy")                                    #TEST
compare_values(Eref, E,    9, "C2v SAD Iteration N Energy")                                    #TEST
--------------------------------------------------------------------------

*** tstart() called on psinet
*** at Mon May 15 15:39:22 2017

   => Loading Basis Set <=

    Name: CC-PVDZ
    Role: ORBITAL
    Keyword: BASIS
    atoms 1   entry O          line   190 file /home/psilocaluser/gits/hrw-direct/objdir4/stage/usr/local/psi4/share/psi4/basis/cc-pvdz.gbs 
    atoms 2-3 entry H          line    20 file /home/psilocaluser/gits/hrw-direct/objdir4/stage/usr/local/psi4/share/psi4/basis/cc-pvdz.gbs 

    There are an even number of electrons - assuming singlet.
    Specify the multiplicity in the molecule input block.


         ---------------------------------------------------------
                                   SCF
            by Justin Turney, Rob Parrish, and Andy Simmonett
                              RHF Reference
                        1 Threads,    500 MiB Core
         ---------------------------------------------------------

  ==> Geometry <==

    Molecular point group: c2v
    Full point group: C2v

    Geometry (in Angstrom), charge = 0, multiplicity = 1:

       Center              X                  Y                   Z               Mass       
    ------------   -----------------  -----------------  -----------------  -----------------
           O          0.000000000000     0.000000000000    -0.079135765807    15.994914619560
           H          0.000000000000    -0.707106781187     0.627971015380     1.007825032070
           H          0.000000000000     0.707106781187     0.627971015380     1.007825032070

  Running in c2v symmetry.

  Rotational constants: A =     18.83462  B =     16.72674  C =      8.85910 [cm^-1]
  Rotational constants: A = 564647.56322  B = 501455.10273  C = 265589.24470 [MHz]
  Nuclear repulsion =    8.841020130083360

  Charge       = 0
  Multiplicity = 1
  Electrons    = 10
  Nalpha       = 5
  Nbeta        = 5

  ==> Algorithm <==

  SCF Algorithm Type is DIRECT.
  DIIS enabled.
  MOM disabled.
  Fractional occupation disabled.
  Guess Type is SAD.
  Energy threshold   = 1.00e-11
  Density threshold  = 1.00e-11
  Integral threshold = 0.00e+00

  ==> Primary Basis <==

  Basis Set: CC-PVDZ
    Blend: CC-PVDZ
    Number of shells: 12
    Number of basis function: 24
    Number of Cartesian functions: 25
    Spherical Harmonics?: true
    Max angular momentum: 2

  ==> Pre-Iterations <==

   -------------------------------------------------------
    Irrep   Nso     Nmo     Nalpha   Nbeta   Ndocc  Nsocc
   -------------------------------------------------------
     A1        11      11       0       0       0       0
     A2         2       2       0       0       0       0
     B1         4       4       0       0       0       0
     B2         7       7       0       0       0       0
   -------------------------------------------------------
    Total      24      24       5       5       5       0
   -------------------------------------------------------

  ==> Integral Setup <==

  ==> DirectJK: Integral-Direct J/K Matrices <==

    J tasked:                  Yes
    K tasked:                  Yes
    wK tasked:                  No
    Integrals threads:           1
    Schwarz Cutoff:          1E-12

  Minimum eigenvalue in the overlap matrix is 3.5753954651E-02.
  Using Symmetric Orthogonalization.

  SCF Guess: Superposition of Atomic Densities via on-the-fly atomic UHF.

  Determining Atomic Occupations
  Atom 0, Z = 8, nelec = 8, nhigh = 2, nalpha = 5, nbeta = 3
  Atom 1, Z = 1, nelec = 1, nhigh = 1, nalpha = 1, nbeta = 0
  Atom 2, Z = 1, nelec = 1, nhigh = 1, nalpha = 1, nbeta = 0

  Performing Atomic UHF Computations:

  UHF Computation for Unique Atom 0 which is Atom 0:    Molecular point group: c1
    Geometry (in Bohr), charge = 0, multiplicity = 1:

       Center              X                  Y                   Z               Mass       
    ------------   -----------------  -----------------  -----------------  -----------------
           O          0.000000000000     0.000000000000    -0.149544924691    15.994914619560


  Basis Set: CC-PVDZ
    Blend: BASIS
    Number of shells: 6
    Number of basis function: 14
    Number of Cartesian functions: 15
    Spherical Harmonics?: true
    Max angular momentum: 2

  Occupation: nalpha = 5, nbeta = 3, norbs = 14

  Atom:
    Molecular point group: c1
    Geometry (in Bohr), charge = 0, multiplicity = 1:

       Center              X                  Y                   Z               Mass       
    ------------   -----------------  -----------------  -----------------  -----------------
           O          0.000000000000     0.000000000000    -0.149544924691    15.994914619560

  ==> DFJK: Density-Fitted J/K Matrices <==

    J tasked:                  Yes
    K tasked:                  Yes
    wK tasked:                  No
    OpenMP threads:              1
    Integrals threads:           1
    Memory (MB):               250
    Algorithm:                Core
    Integral Cache:           NONE
    Schwarz Cutoff:          1E-12
    Fitting Condition:       1E-12

   => Auxiliary Basis Set <=

  Basis Set: SAD-FIT
    Blend: BASIS
    Number of shells: 14
    Number of basis function: 40
    Number of Cartesian functions: 46
    Spherical Harmonics?: true
    Max angular momentum: 3


  Initial Atomic UHF Energy:    -54.6054704525

                                         Total Energy            Delta E              Density RMS

  @Atomic UHF iteration   1 energy:   -72.12315297838592      -17.51768252585599     0.12768739491063
  @Atomic UHF iteration   2 energy:   -74.66283328921027       -2.53968031082435     0.04116052358429
  @Atomic UHF iteration   3 energy:   -74.79072256728844       -0.12788927807817     0.00238349301741
  @Atomic UHF iteration   4 energy:   -74.79122592960969       -0.00050336232125     0.00036302869672
  @Atomic UHF iteration   5 energy:   -74.79123730408048       -0.00001137447079     0.00012265190510
  @Atomic UHF iteration   6 energy:   -74.79124004302709       -0.00000273894661     0.00004132592496
  @Atomic UHF iteration   7 energy:   -74.79124039750320       -0.00000035447611     0.00000328254137
  @Atomic UHF Final Energy for atom O:   -74.79124039750320
Finished UHF Computation!

  UHF Computation for Unique Atom 1 which is Atom 1:    Molecular point group: c1
    Geometry (in Bohr), charge = 0, multiplicity = 1:

       Center              X                  Y                   Z               Mass       
    ------------   -----------------  -----------------  -----------------  -----------------
           H          0.000000000000    -1.336238163149     1.186693238458     1.007825032070


  Basis Set: CC-PVDZ
    Blend: BASIS
    Number of shells: 3
    Number of basis function: 5
    Number of Cartesian functions: 5
    Spherical Harmonics?: true
    Max angular momentum: 1

  Occupation: nalpha = 1, nbeta = 0, norbs = 5

  Atom:
    Molecular point group: c1
    Geometry (in Bohr), charge = 0, multiplicity = 1:

       Center              X                  Y                   Z               Mass       
    ------------   -----------------  -----------------  -----------------  -----------------
           H          0.000000000000    -1.336238163149     1.186693238458     1.007825032070

  ==> DFJK: Density-Fitted J/K Matrices <==

    J tasked:                  Yes
    K tasked:                  Yes
    wK tasked:                  No
    OpenMP threads:              1
    Integrals threads:           1
    Memory (MB):               250
    Algorithm:                Core
    Integral Cache:           NONE
    Schwarz Cutoff:          1E-12
    Fitting Condition:       1E-12

   => Auxiliary Basis Set <=

  Basis Set: SAD-FIT
    Blend: BASIS
    Number of shells: 5
    Number of basis function: 11
    Number of Cartesian functions: 12
    Spherical Harmonics?: true
    Max angular momentum: 2


  Initial Atomic UHF Energy:     -0.2496392017

                                         Total Energy            Delta E              Density RMS

  @Atomic UHF iteration   1 energy:    -0.49927840341958       -0.24963920170979     0.00000000000000
  @Atomic UHF iteration   2 energy:    -0.49927840341958        0.00000000000000     0.00000000000000
  @Atomic UHF Final Energy for atom H:    -0.49927840341958
Finished UHF Computation!

  ==> Iterations <==

                        Total Energy        Delta E     RMS |[F,P]|

   @RHF iter   0:   -75.82565944737364   -7.58257e+01   1.14308e-01 
   @RHF iter   1:   -75.98880358259140   -1.63144e-01   1.88582e-02 
   @RHF iter   2:   -76.00990181162014   -2.10982e-02   1.00228e-02 DIIS
   @RHF iter   3:   -76.01658029643767   -6.67848e-03   1.20181e-03 DIIS
   @RHF iter   4:   -76.01676022052438   -1.79924e-04   3.36784e-04 DIIS
   @RHF iter   5:   -76.01678708947971   -2.68690e-05   8.72416e-05 DIIS
   @RHF iter   6:   -76.01678942286554   -2.33339e-06   1.35830e-05 DIIS
   @RHF iter   7:   -76.01678947106474   -4.81992e-08   1.18013e-06 DIIS
   @RHF iter   8:   -76.01678947132602   -2.61281e-10   2.33190e-07 DIIS
   @RHF iter   9:   -76.01678947133684   -1.08145e-11   3.05719e-08 DIIS
   @RHF iter  10:   -76.01678947133702   -1.84741e-13   2.51318e-09 DIIS
   @RHF iter  11:   -76.01678947133702    0.00000e+00   4.32328e-10 DIIS
   @RHF iter  12:   -76.01678947133709   -7.10543e-14   3.26181e-11 DIIS
   @RHF iter  13:   -76.01678947133695    1.42109e-13   6.41101e-12 DIIS

  ==> Post-Iterations <==

    Orbital Energies (a.u.)
    -----------------------

    Doubly Occupied:                                                      

       1A1   -20.565310     2A1    -1.327466     1B2    -0.649287  
       3A1    -0.588235     1B1    -0.495627  

    Virtual:                                                              

       4A1     0.174517     2B2     0.250028     3B2     0.722987  
       5A1     0.866096     6A1     1.188877     2B1     1.194192  
       4B2     1.272413     7A1     1.307412     1A2     1.520102  
       3B1     1.583777     8A1     1.852617     5B2     1.969576  
       6B2     2.355205     9A1     2.417130     2A2     3.248648  
       4B1     3.307189    10A1     3.411524    11A1     3.798561  
       7B2     4.147834  

    Final Occupation by Irrep:
             A1    A2    B1    B2 
    DOCC [     3,    0,    1,    1 ]

  Energy converged.

  @RHF Final Energy:   -76.01678947133695

   => Energetics <=

    Nuclear Repulsion Energy =              8.8410201300833595
    One-Electron Energy =                -122.4637688784276435
    Two-Electron Energy =                  37.6059592770073294
    DFT Exchange-Correlation Energy =       0.0000000000000000
    Empirical Dispersion Energy =           0.0000000000000000
    PCM Polarization Energy =               0.0000000000000000
    EFP Energy =                            0.0000000000000000
    Total Energy =                        -76.0167894713369492



Properties will be evaluated at   0.000000,   0.000000,   0.000000 Bohr

Properties computed using the SCF density matrix

  Nuclear Dipole Moment: (a.u.)
     X:     0.0000      Y:     0.0000      Z:     1.1770

  Electronic Dipole Moment: (a.u.)
     X:     0.0000      Y:     0.0000      Z:    -0.2707

  Dipole Moment: (a.u.)
     X:     0.0000      Y:     0.0000      Z:     0.9064     Total:     0.9064

  Dipole Moment: (Debye)
     X:     0.0000      Y:     0.0000      Z:     2.3038     Total:     2.3038


*** tstop() called on psinet at Mon May 15 15:39:23 2017
Module time:
	user time   =       0.82 seconds =       0.01 minutes
	system time =       0.02 seconds =       0.00 minutes
	total time  =          1 seconds =       0.02 minutes
Total time:
	user time   =       0.82 seconds =       0.01 minutes
	system time =       0.02 seconds =       0.00 minutes
	total time  =          1 seconds =       0.02 minutes

*** tstart() called on psinet
*** at Mon May 15 15:39:23 2017

   => Loading Basis Set <=

    Name: CC-PVDZ
    Role: ORBITAL
    Keyword: BASIS
    atoms 1   entry O          line   190 file /home/psilocaluser/gits/hrw-direct/objdir4/stage/usr/local/psi4/share/psi4/basis/cc-pvdz.gbs 
    atoms 2-3 entry H          line    20 file /home/psilocaluser/gits/hrw-direct/objdir4/stage/usr/local/psi4/share/psi4/basis/cc-pvdz.gbs 

    There are an even number of electrons - assuming singlet.
    Specify the multiplicity in the molecule input block.


         ---------------------------------------------------------
                                   SCF
            by Justin Turney, Rob Parrish, and Andy Simmonett
                              RHF Reference
                        1 Threads,    500 MiB Core
         ---------------------------------------------------------

  ==> Geometry <==

    Molecular point group: c1
    Full point group: C2v

    Geometry (in Angstrom), charge = 0, multiplicity = 1:

       Center              X                  Y                   Z               Mass       
    ------------   -----------------  -----------------  -----------------  -----------------
           O          0.000000000000     0.000000000000    -0.079135765807    15.994914619560
           H          0.000000000000    -0.707106781187     0.627971015380     1.007825032070
           H          0.000000000000     0.707106781187     0.627971015380     1.007825032070

  Running in c1 symmetry.

  Rotational constants: A =     18.83462  B =     16.72674  C =      8.85910 [cm^-1]
  Rotational constants: A = 564647.56322  B = 501455.10273  C = 265589.24470 [MHz]
  Nuclear repulsion =    8.841020130083358

  Charge       = 0
  Multiplicity = 1
  Electrons    = 10
  Nalpha       = 5
  Nbeta        = 5

  ==> Algorithm <==

  SCF Algorithm Type is DIRECT.
  DIIS enabled.
  MOM disabled.
  Fractional occupation disabled.
  Guess Type is SAD.
  Energy threshold   = 1.00e-11
  Density threshold  = 1.00e-11
  Integral threshold = 0.00e+00

  ==> Primary Basis <==

  Basis Set: CC-PVDZ
    Blend: CC-PVDZ
    Number of shells: 12
    Number of basis function: 24
    Number of Cartesian functions: 25
    Spherical Harmonics?: true
    Max angular momentum: 2

  ==> Pre-Iterations <==

   -------------------------------------------------------
    Irrep   Nso     Nmo     Nalpha   Nbeta   Ndocc  Nsocc
   -------------------------------------------------------
     A         24      24       0       0       0       0
   -------------------------------------------------------
    Total      24      24       5       5       5       0
   -------------------------------------------------------

  ==> Integral Setup <==

  ==> DirectJK: Integral-Direct J/K Matrices <==

    J tasked:                  Yes
    K tasked:                  Yes
    wK tasked:                  No
    Integrals threads:           1
    Schwarz Cutoff:          1E-12

  Minimum eigenvalue in the overlap matrix is 3.5753954651E-02.
  Using Symmetric Orthogonalization.

  SCF Guess: Superposition of Atomic Densities via on-the-fly atomic UHF.

  Determining Atomic Occupations
  Atom 0, Z = 8, nelec = 8, nhigh = 2, nalpha = 5, nbeta = 3
  Atom 1, Z = 1, nelec = 1, nhigh = 1, nalpha = 1, nbeta = 0
  Atom 2, Z = 1, nelec = 1, nhigh = 1, nalpha = 1, nbeta = 0

  Performing Atomic UHF Computations:

  UHF Computation for Unique Atom 0 which is Atom 0:    Molecular point group: c1
    Geometry (in Bohr), charge = 0, multiplicity = 1:

       Center              X                  Y                   Z               Mass       
    ------------   -----------------  -----------------  -----------------  -----------------
           O          0.000000000000     0.000000000000    -0.149544924691    15.994914619560


  Basis Set: CC-PVDZ
    Blend: BASIS
    Number of shells: 6
    Number of basis function: 14
    Number of Cartesian functions: 15
    Spherical Harmonics?: true
    Max angular momentum: 2

  Occupation: nalpha = 5, nbeta = 3, norbs = 14

  Atom:
    Molecular point group: c1
    Geometry (in Bohr), charge = 0, multiplicity = 1:

       Center              X                  Y                   Z               Mass       
    ------------   -----------------  -----------------  -----------------  -----------------
           O          0.000000000000     0.000000000000    -0.149544924691    15.994914619560

  ==> DFJK: Density-Fitted J/K Matrices <==

    J tasked:                  Yes
    K tasked:                  Yes
    wK tasked:                  No
    OpenMP threads:              1
    Integrals threads:           1
    Memory (MB):               250
    Algorithm:                Core
    Integral Cache:           NONE
    Schwarz Cutoff:          1E-12
    Fitting Condition:       1E-12

   => Auxiliary Basis Set <=

  Basis Set: SAD-FIT
    Blend: BASIS
    Number of shells: 14
    Number of basis function: 40
    Number of Cartesian functions: 46
    Spherical Harmonics?: true
    Max angular momentum: 3


  Initial Atomic UHF Energy:    -54.6054704525

                                         Total Energy            Delta E              Density RMS

  @Atomic UHF iteration   1 energy:   -72.12315297838592      -17.51768252585599     0.12768739491063
  @Atomic UHF iteration   2 energy:   -74.66283328921027       -2.53968031082435     0.04116052358429
  @Atomic UHF iteration   3 energy:   -74.79072256728844       -0.12788927807817     0.00238349301741
  @Atomic UHF iteration   4 energy:   -74.79122592960969       -0.00050336232125     0.00036302869672
  @Atomic UHF iteration   5 energy:   -74.79123730408048       -0.00001137447079     0.00012265190510
  @Atomic UHF iteration   6 energy:   -74.79124004302709       -0.00000273894661     0.00004132592496
  @Atomic UHF iteration   7 energy:   -74.79124039750320       -0.00000035447611     0.00000328254137
  @Atomic UHF Final Energy for atom O:   -74.79124039750320
Finished UHF Computation!

  UHF Computation for Unique Atom 1 which is Atom 1:    Molecular point group: c1
    Geometry (in Bohr), charge = 0, multiplicity = 1:

       Center              X                  Y                   Z               Mass       
    ------------   -----------------  -----------------  -----------------  -----------------
           H          0.000000000000    -1.336238163149     1.186693238458     1.007825032070


  Basis Set: CC-PVDZ
    Blend: BASIS
    Number of shells: 3
    Number of basis function: 5
    Number of Cartesian functions: 5
    Spherical Harmonics?: true
    Max angular momentum: 1

  Occupation: nalpha = 1, nbeta = 0, norbs = 5

  Atom:
    Molecular point group: c1
    Geometry (in Bohr), charge = 0, multiplicity = 1:

       Center              X                  Y                   Z               Mass       
    ------------   -----------------  -----------------  -----------------  -----------------
           H          0.000000000000    -1.336238163149     1.186693238458     1.007825032070

  ==> DFJK: Density-Fitted J/K Matrices <==

    J tasked:                  Yes
    K tasked:                  Yes
    wK tasked:                  No
    OpenMP threads:              1
    Integrals threads:           1
    Memory (MB):               250
    Algorithm:                Core
    Integral Cache:           NONE
    Schwarz Cutoff:          1E-12
    Fitting Condition:       1E-12

   => Auxiliary Basis Set <=

  Basis Set: SAD-FIT
    Blend: BASIS
    Number of shells: 5
    Number of basis function: 11
    Number of Cartesian functions: 12
    Spherical Harmonics?: true
    Max angular momentum: 2


  Initial Atomic UHF Energy:     -0.2496392017

                                         Total Energy            Delta E              Density RMS

  @Atomic UHF iteration   1 energy:    -0.49927840341958       -0.24963920170979     0.00000000000000
  @Atomic UHF iteration   2 energy:    -0.49927840341958        0.00000000000000     0.00000000000000
  @Atomic UHF Final Energy for atom H:    -0.49927840341958
Finished UHF Computation!

  ==> Iterations <==

                        Total Energy        Delta E     RMS |[F,P]|

   @RHF iter   0:   -75.89387678589809   -7.58939e+01   6.58246e-02 
   @RHF iter   1:   -75.98722894663450   -9.33522e-02   1.05020e-02 
   @RHF iter   2:   -76.00979355898535   -2.25646e-02   5.35580e-03 DIIS
   @RHF iter   3:   -76.01604355762387   -6.25000e-03   1.03620e-03 DIIS
   @RHF iter   4:   -76.01664803596482   -6.04478e-04   3.67453e-04 DIIS
   @RHF iter   5:   -76.01678035586519   -1.32320e-04   8.95051e-05 DIIS
   @RHF iter   6:   -76.01678930641469   -8.95055e-06   1.28040e-05 DIIS
   @RHF iter   7:   -76.01678946317904   -1.56764e-07   2.81158e-06 DIIS
   @RHF iter   8:   -76.01678947104142   -7.86238e-09   5.73032e-07 DIIS
   @RHF iter   9:   -76.01678947132788   -2.86462e-10   1.08736e-07 DIIS
   @RHF iter  10:   -76.01678947133604   -8.15703e-12   3.25247e-08 DIIS
   @RHF iter  11:   -76.01678947133698   -9.37916e-13   7.05949e-09 DIIS
   @RHF iter  12:   -76.01678947133698    0.00000e+00   1.52003e-09 DIIS
   @RHF iter  13:   -76.01678947133701   -2.84217e-14   4.37545e-10 DIIS
   @RHF iter  14:   -76.01678947133712   -1.13687e-13   1.06501e-10 DIIS
   @RHF iter  15:   -76.01678947133703    8.52651e-14   2.48041e-11 DIIS
   @RHF iter  16:   -76.01678947133695    8.52651e-14   2.99280e-12 DIIS

  ==> Post-Iterations <==

    Orbital Energies (a.u.)
    -----------------------

    Doubly Occupied:                                                      

       1A    -20.565310     2A     -1.327466     3A     -0.649287  
       4A     -0.588235     5A     -0.495627  

    Virtual:                                                              

       6A      0.174517     7A      0.250028     8A      0.722987  
       9A      0.866096    10A      1.188877    11A      1.194192  
      12A      1.272413    13A      1.307412    14A      1.520102  
      15A      1.583777    16A      1.852617    17A      1.969576  
      18A      2.355205    19A      2.417130    20A      3.248648  
      21A      3.307189    22A      3.411524    23A      3.798561  
      24A      4.147834  

    Final Occupation by Irrep:
              A 
    DOCC [     5 ]

  Energy converged.

  @RHF Final Energy:   -76.01678947133695

   => Energetics <=

    Nuclear Repulsion Energy =              8.8410201300833577
    One-Electron Energy =                -122.4637688785265084
    Two-Electron Energy =                  37.6059592771061801
    DFT Exchange-Correlation Energy =       0.0000000000000000
    Empirical Dispersion Energy =           0.0000000000000000
    PCM Polarization Energy =               0.0000000000000000
    EFP Energy =                            0.0000000000000000
    Total Energy =                        -76.0167894713369634



Properties will be evaluated at   0.000000,   0.000000,   0.000000 Bohr

Properties computed using the SCF density matrix

  Nuclear Dipole Moment: (a.u.)
     X:     0.0000      Y:     0.0000      Z:     1.1770

  Electronic Dipole Moment: (a.u.)
     X:    -0.0000      Y:     0.0000      Z:    -0.2707

  Dipole Moment: (a.u.)
     X:    -0.0000      Y:     0.0000      Z:     0.9064     Total:     0.9064

  Dipole Moment: (Debye)
     X:    -0.0000      Y:     0.0000      Z:     2.3038     Total:     2.3038


*** tstop() called on psinet at Mon May 15 15:39:24 2017
Module time:
	user time   =       0.89 seconds =       0.01 minutes
	system time =       0.02 seconds =       0.00 minutes
	total time  =          1 seconds =       0.02 minutes
Total time:
	user time   =       1.72 seconds =       0.03 minutes
	system time =       0.04 seconds =       0.00 minutes
	total time  =          2 seconds =       0.03 minutes
	C1  SAD Nuclear Repulsion Energy..................................PASSED
	C2v SAD Nuclear Repulsion Energy..................................PASSED
	C1  SAD Iteration N Energy........................................PASSED
	C2v SAD Iteration N Energy........................................PASSED

*** Psi4 exiting successfully. Buy a developer a beer!
