    -----------------------------------------------------------------------
          Psi4: An Open-Source Ab Initio Electronic Structure Package
                              Psi4 1.0rc138 Driver

                          Git: Rev {master} 89b4367 dirty

    J. M. Turney, A. C. Simmonett, R. M. Parrish, E. G. Hohenstein,
    F. A. Evangelista, J. T. Fermann, B. J. Mintz, L. A. Burns, J. J. Wilke,
    M. L. Abrams, N. J. Russ, M. L. Leininger, C. L. Janssen, E. T. Seidl,
    W. D. Allen, H. F. Schaefer, R. A. King, E. F. Valeev, C. D. Sherrill,
    and T. D. Crawford, WIREs Comput. Mol. Sci. 2, 556-565 (2012)
    (doi: 10.1002/wcms.93)

                         Additional Contributions by
    A. E. DePrince, U. Bozkaya, A. Yu. Sokolov, D. G. A. Smith, R. Di Remigio,
    R. M. Richard, J. F. Gonthier, H. R. McAlexander, M. Saitow, and
    B. P. Pritchard
    -----------------------------------------------------------------------


    Psi4 started on: Fri Jul  1 21:43:56 2016

    Process ID:  53639
    PSI4DATADIR: /Users/rking/psi4/share
    Memory level set to 256.000 MB

  ==> Input File <==

--------------------------------------------------------------------------
#! Multi-fragment opt of C2h methane dimer with user-combined reference points.
OPT_ENERGY = -80.7431166 # TEST

memory 1 gb

molecule mol {
   units Angstrom
   0 1
   C          0.00000    -1.459161     0.000000
   H          0.00000    -2.548284     0.000000
   H         -0.51306    -1.094685    -0.888551
   H         -0.51306    -1.094685     0.888551
   H          1.02634    -1.094868     0.000000
   --
   0 1
   C          0.00000     1.459161     0.000000
   H          0.00000     2.548284     0.000000
   H          0.51306     1.094685    -0.888551
   H          0.51306     1.094685     0.888551
   H         -1.02634     1.094868     0.000000
  symmetry c1
}

set basis aug-cc-pVDZ

set optking {
  frag_mode multi
  frag_ref_atoms = [
    [ [2,3,4,5],  [3], [4]],
    [ [7,8,9,10], [9], [8]]
  ]
}

thisenergy = optimize('mp2')
compare_values(OPT_ENERGY, thisenergy, 6, "aug-cc-pVDZ MP2 CH4 Dimer Energy")  #TEST

--------------------------------------------------------------------------

  Memory set to 1000.000 MiB by Python script.
gradient() will perform analytic gradient computation.
    SCF Algorithm Type (re)set to DF.

*** tstart() called on mac9721
*** at Fri Jul  1 21:43:57 2016


         ---------------------------------------------------------
                                   SCF
            by Justin Turney, Rob Parrish, and Andy Simmonett
                              RHF Reference
                        1 Threads,   1000 MiB Core
         ---------------------------------------------------------

  ==> Geometry <==

    Molecular point group: c1
    Full point group: C2h

    Geometry (in Angstrom), charge = 0, multiplicity = 1:

       Center              X                  Y                   Z               Mass       
    ------------   -----------------  -----------------  -----------------  -----------------
           C          0.000000000000    -1.459161000000     0.000000000000    12.000000000000
           H          0.000000000000    -2.548284000000     0.000000000000     1.007825032070
           H         -0.513060000000    -1.094685000000    -0.888551000000     1.007825032070
           H         -0.513060000000    -1.094685000000     0.888551000000     1.007825032070
           H          1.026340000000    -1.094868000000     0.000000000000     1.007825032070
           C          0.000000000000     1.459161000000     0.000000000000    12.000000000000
           H          0.000000000000     2.548284000000     0.000000000000     1.007825032070
           H          0.513060000000     1.094685000000    -0.888551000000     1.007825032070
           H          0.513060000000     1.094685000000     0.888551000000     1.007825032070
           H         -1.026340000000     1.094868000000     0.000000000000     1.007825032070

  Running in c1 symmetry.

  Rotational constants: A =      2.64757  B =      0.22592  C =      0.22591 [cm^-1]
  Rotational constants: A =  79372.27678  B =   6772.82565  C =   6772.68127 [MHz]
  Nuclear repulsion =   44.714847319556220

  Charge       = 0
  Multiplicity = 1
  Electrons    = 20
  Nalpha       = 10
  Nbeta        = 10

  ==> Algorithm <==

  SCF Algorithm Type is DF.
  DIIS enabled.
  MOM disabled.
  Fractional occupation disabled.
  Guess Type is SAD.
  Energy threshold   = 1.00e-10
  Density threshold  = 1.00e-10
  Integral threshold = 0.00e+00

  ==> Primary Basis <==

  Basis Set: AUG-CC-PVDZ
    Number of shells: 58
    Number of basis function: 118
    Number of Cartesian functions: 122
    Spherical Harmonics?: true
    Max angular momentum: 2

  ==> Pre-Iterations <==

   -------------------------------------------------------
    Irrep   Nso     Nmo     Nalpha   Nbeta   Ndocc  Nsocc
   -------------------------------------------------------
     A        118     118       0       0       0       0
   -------------------------------------------------------
    Total     118     118      10      10      10       0
   -------------------------------------------------------

  ==> Integral Setup <==

  ==> DFJK: Density-Fitted J/K Matrices <==

    J tasked:                  Yes
    K tasked:                  Yes
    wK tasked:                  No
    OpenMP threads:              1
    Integrals threads:           1
    Memory (MB):               715
    Algorithm:                Core
    Integral Cache:           NONE
    Schwarz Cutoff:          1E-12
    Fitting Condition:       1E-12

   => Auxiliary Basis Set <=

  Basis Set: 
    Number of shells: 152
    Number of basis function: 428
    Number of Cartesian functions: 482
    Spherical Harmonics?: true
    Max angular momentum: 3

  Minimum eigenvalue in the overlap matrix is 2.7724636129E-04.
  Using Symmetric Orthogonalization.
  SCF Guess: Superposition of Atomic Densities via on-the-fly atomic UHF.

  ==> Iterations <==

                           Total Energy        Delta E     RMS |[F,P]|

   @DF-RHF iter   0:   -80.67967490476869   -8.06797e+01   2.21063e-02 
   @DF-RHF iter   1:   -80.34116288732827    3.38512e-01   2.07875e-03 
   @DF-RHF iter   2:   -80.38565316945662   -4.44903e-02   6.00658e-04 DIIS
   @DF-RHF iter   3:   -80.39030788331604   -4.65471e-03   2.14004e-04 DIIS
   @DF-RHF iter   4:   -80.39091853777757   -6.10654e-04   4.19354e-05 DIIS
   @DF-RHF iter   5:   -80.39094630985335   -2.77721e-05   7.78142e-06 DIIS
   @DF-RHF iter   6:   -80.39094739802948   -1.08818e-06   1.35124e-06 DIIS
   @DF-RHF iter   7:   -80.39094743476750   -3.67380e-08   1.98689e-07 DIIS
   @DF-RHF iter   8:   -80.39094743555231   -7.84809e-10   3.68548e-08 DIIS
   @DF-RHF iter   9:   -80.39094743557979   -2.74838e-11   6.47800e-09 DIIS
   @DF-RHF iter  10:   -80.39094743558053   -7.38964e-13   7.49718e-10 DIIS
   @DF-RHF iter  11:   -80.39094743558064   -1.13687e-13   1.22826e-10 DIIS
   @DF-RHF iter  12:   -80.39094743558084   -1.98952e-13   2.01939e-11 DIIS

  ==> Post-Iterations <==

    Orbital Energies (a.u.)
    -----------------------

    Doubly Occupied:                                                      

       1A    -11.211451     2A    -11.211443     3A     -0.956170  
       4A     -0.929737     5A     -0.565085     6A     -0.556757  
       7A     -0.556743     8A     -0.528720     9A     -0.528708  
      10A     -0.517771  

    Virtual:                                                              

      11A      0.035677    12A      0.045915    13A      0.058865  
      14A      0.058867    15A      0.069533    16A      0.084389  
      17A      0.084392    18A      0.101939    19A      0.130531  
      20A      0.130535    21A      0.168946    22A      0.171393  
      23A      0.171397    24A      0.175015    25A      0.202295  
      26A      0.247129    27A      0.277865    28A      0.277883  
      29A      0.293216    30A      0.293234    31A      0.312247  
      32A      0.345426    33A      0.345447    34A      0.401050  
      35A      0.401053    36A      0.405469    37A      0.418846  
      38A      0.445180    39A      0.445182    40A      0.447519  
      41A      0.472973    42A      0.472995    43A      0.483423  
      44A      0.503501    45A      0.558089    46A      0.558096  
      47A      0.583120    48A      0.586583    49A      0.586600  
      50A      0.588377    51A      0.591058    52A      0.602468  
      53A      0.624205    54A      0.659451    55A      0.659484  
      56A      0.697659    57A      0.697710    58A      0.720661  
      59A      0.720727    60A      0.739448    61A      0.739462  
      62A      0.748058    63A      0.754137    64A      0.777830  
      65A      0.777839    66A      0.796647    67A      0.854407  
      68A      0.854479    69A      1.017901    70A      1.017993  
      71A      1.068648    72A      1.159590    73A      1.165581  
      74A      1.165609    75A      1.167820    76A      1.359580  
      77A      1.359649    78A      1.374807    79A      1.418586  
      80A      1.418637    81A      1.652414    82A      1.674486  
      83A      1.680654    84A      1.680727    85A      1.862429  
      86A      1.862456    87A      1.892342    88A      1.905383  
      89A      1.921527    90A      1.921550    91A      1.992842  
      92A      1.992858    93A      2.023322    94A      2.071287  
      95A      2.221033    96A      2.221217    97A      2.263374  
      98A      2.274833    99A      2.275040   100A      2.288325  
     101A      2.288355   102A      2.291770   103A      2.369796  
     104A      2.369821   105A      2.422859   106A      2.525339  
     107A      2.637559   108A      2.637685   109A      2.710107  
     110A      2.710305   111A      2.838486   112A      2.869512  
     113A      2.957152   114A      2.957514   115A      2.964592  
     116A      2.964913   117A      2.989206   118A      3.136446  

    Final Occupation by Irrep:
              A 
    DOCC [    10 ]

  Energy converged.

  @DF-RHF Final Energy:   -80.39094743558084

   => Energetics <=

    Nuclear Repulsion Energy =             44.7148473195562204
    One-Electron Energy =                -195.0864216597118457
    Two-Electron Energy =                  69.9806269045749048
    DFT Exchange-Correlation Energy =       0.0000000000000000
    Empirical Dispersion Energy =           0.0000000000000000
    PCM Polarization Energy =               0.0000000000000000
    EFP Energy =                            0.0000000000000000
    Total Energy =                        -80.3909474355807276


  Saving occupied orbitals to File 180.

*** tstop() called on mac9721 at Fri Jul  1 21:44:00 2016
Module time:
	user time   =       3.20 seconds =       0.05 minutes
	system time =       0.18 seconds =       0.00 minutes
	total time  =          3 seconds =       0.05 minutes
Total time:
	user time   =       3.20 seconds =       0.05 minutes
	system time =       0.18 seconds =       0.00 minutes
	total time  =          3 seconds =       0.05 minutes


Properties will be evaluated at   0.000000,   0.000000,   0.000000 Bohr

Properties computed using the SCF density matrix

  Nuclear Dipole Moment: (a.u.)
     X:     0.0000      Y:    -0.0000      Z:     0.0000

  Electronic Dipole Moment: (a.u.)
     X:     0.0000      Y:     0.0000      Z:    -0.0000

  Dipole Moment: (a.u.)
     X:     0.0000      Y:     0.0000      Z:    -0.0000     Total:     0.0000

  Dipole Moment: (Debye)
     X:     0.0000      Y:     0.0000      Z:    -0.0000     Total:     0.0000


  //>>>>>>>>>>>>>>>>>>>>>>>>>>>>>>>>>>>//
  //               DFMP2               //
  //<<<<<<<<<<<<<<<<<<<<<<<<<<<<<<<<<<<//


*** tstart() called on mac9721
*** at Fri Jul  1 21:44:00 2016


*** tstop() called on mac9721 at Fri Jul  1 21:44:00 2016
Module time:
	user time   =       0.14 seconds =       0.00 minutes
	system time =       0.00 seconds =       0.00 minutes
	total time  =          0 seconds =       0.00 minutes
Total time:
	user time   =       3.35 seconds =       0.06 minutes
	system time =       0.19 seconds =       0.00 minutes
	total time  =          3 seconds =       0.05 minutes
	 --------------------------------------------------------
	                          DF-MP2                         
	      2nd-Order Density-Fitted Moller-Plesset Theory     
	              RMP2 Wavefunction,   1 Threads             
	                                                         
	        Rob Parrish, Justin Turney, Andy Simmonett,      
	           Ed Hohenstein, and C. David Sherrill          
	 --------------------------------------------------------

   => Auxiliary Basis Set <=

  Basis Set: 
    Number of shells: 116
    Number of basis function: 328
    Number of Cartesian functions: 372
    Spherical Harmonics?: true
    Max angular momentum: 3

	 --------------------------------------------------------
	                 NBF =   118, NAUX =   328
	 --------------------------------------------------------
	   CLASS    FOCC     OCC    AOCC    AVIR     VIR    FVIR
	   PAIRS       0      10      10     108     108       0
	 --------------------------------------------------------

DGAS Warning! /src/lib/libfock/apps.cc:80 is not currently checking restricted

         ------------------------------------------------------------
                                     CPHF                           
                                  Rob Parrish                       
         ------------------------------------------------------------

  ==> Geometry <==

    Molecular point group: c1
    Full point group: C2h

    Geometry (in Angstrom), charge = 0, multiplicity = 1:

       Center              X                  Y                   Z               Mass       
    ------------   -----------------  -----------------  -----------------  -----------------
           C          0.000000000000    -1.459161000000     0.000000000000    12.000000000000
           H          0.000000000000    -2.548284000000     0.000000000000     1.007825032070
           H         -0.513060000000    -1.094685000000    -0.888551000000     1.007825032070
           H         -0.513060000000    -1.094685000000     0.888551000000     1.007825032070
           H          1.026340000000    -1.094868000000     0.000000000000     1.007825032070
           C          0.000000000000     1.459161000000     0.000000000000    12.000000000000
           H          0.000000000000     2.548284000000     0.000000000000     1.007825032070
           H          0.513060000000     1.094685000000    -0.888551000000     1.007825032070
           H          0.513060000000     1.094685000000     0.888551000000     1.007825032070
           H         -1.026340000000     1.094868000000     0.000000000000     1.007825032070

  Nuclear repulsion =   44.714847319556220
  Reference energy  =  -80.390947435580841

  ==> Basis Set <==

  Basis Set: AUG-CC-PVDZ
    Number of shells: 58
    Number of basis function: 118
    Number of Cartesian functions: 122
    Spherical Harmonics?: true
    Max angular momentum: 2

  ==> CGRSolver (by Rob Parrish) <==

   Number of roots    =         1
   Preconditioning    =    JACOBI
   Convergence cutoff =     1E-06
   Maximum iterations =       100

  ==> CPHFRHamiltonian (by Rob Parrish) <== 

  ==> DFJK: Density-Fitted J/K Matrices <==

    J tasked:                  Yes
    K tasked:                  Yes
    wK tasked:                  No
    OpenMP threads:              1
    Integrals threads:           1
    Memory (MB):               715
    Algorithm:                Core
    Integral Cache:           NONE
    Schwarz Cutoff:          1E-12
    Fitting Condition:       1E-12

   => Auxiliary Basis Set <=

  Basis Set: 
    Number of shells: 152
    Number of basis function: 428
    Number of Cartesian functions: 482
    Spherical Harmonics?: true
    Max angular momentum: 3

  ==> CPHF Iterations <==

  => Iterations <=

             Iter  Converged  Remaining    Residual
  CGR           1          0          1   7.034E-02
  CGR           2          0          1   1.260E-02
  CGR           3          0          1   1.174E-03
  CGR           4          0          1   1.324E-04
  CGR           5          0          1   1.954E-05
  CGR           6          0          1   2.382E-06
  CGR           7          1          0   3.053E-07

    CGRSolver converged.

  ==> DFCorrGrad: Density-Fitted Correlated Gradients <==

    OpenMP threads:              1
    Integrals threads:           1
    Memory (MB):               715
    Schwarz Cutoff:          0E+00
    Fitting Condition:       1E-12

   => Auxiliary Basis Set <=

  Basis Set: 
    Number of shells: 152
    Number of basis function: 428
    Number of Cartesian functions: 482
    Spherical Harmonics?: true
    Max angular momentum: 3

	-----------------------------------------------------------
	 ==================> DF-MP2 Energies <==================== 
	-----------------------------------------------------------
	 Reference Energy          =     -80.3909474355808413 [Eh]
	 Singles Energy            =      -0.0000000000000000 [Eh]
	 Same-Spin Energy          =      -0.0679090552930750 [Eh]
	 Opposite-Spin Energy      =      -0.2794287520636606 [Eh]
	 Correlation Energy        =      -0.3473378073567357 [Eh]
	 Total Energy              =     -80.7382852429375788 [Eh]
	-----------------------------------------------------------
	 ================> DF-SCS-MP2 Energies <================== 
	-----------------------------------------------------------
	 SCS Same-Spin Scale       =       0.3333333333333333 [-]
	 SCS Opposite-Spin Scale   =       1.2000000000000000 [-]
	 SCS Same-Spin Energy      =      -0.0226363517643583 [Eh]
	 SCS Opposite-Spin Energy  =      -0.3353145024763928 [Eh]
	 SCS Correlation Energy    =      -0.3579508542407511 [Eh]
	 SCS Total Energy          =     -80.7488982898215966 [Eh]
	-----------------------------------------------------------


  -Total Gradient:
     Atom            X                  Y                   Z
    ------   -----------------  -----------------  -----------------
       1       -0.000139008936     0.006758366736    -0.000000000920
       2        0.000012318888     0.006058342598     0.000000000627
       3        0.002256762266    -0.000392032295     0.003941076813
       4        0.002256762527    -0.000392032473    -0.003941076764
       5       -0.004387172352    -0.000358887977     0.000000000260
       6        0.000139008457    -0.006758366886     0.000000000825
       7       -0.000012318483    -0.006058343312    -0.000000000573
       8       -0.002256762768     0.000392032835     0.003941077359
       9       -0.002256762637     0.000392032588    -0.003941077479
      10        0.004387173038     0.000358888186    -0.000000000149


			-----------------------------------------
			 OPTKING 2.0: for geometry optimizations 
			  - R.A. King,  Bethel University        
			-----------------------------------------

	Internal coordinates to be generated automatically.
	Detected frag 1 with atoms:  1 2 3 4 5
	Detected frag 2 with atoms:  6 7 8 9 10
	---Fragment 1 Bond Connectivity---
	 1 : 2 3 4 5
	 2 : 1
	 3 : 1
	 4 : 1
	 5 : 1

	---Fragment 2 Bond Connectivity---
	 6 : 7 8 9 10
	 7 : 6
	 8 : 6
	 9 : 6
	 10 : 6

	Using user-input to define reference atoms on each fragment.
	Checking interfragment coordinates for ones that break symmetry.
	Interfragment coordinate 1(1) is symmetric.
	Interfragment coordinate 1(2) is symmetric.
	Interfragment coordinate 1(3) is symmetric.
	Interfragment coordinate 1(4) is symmetric.
	Interfragment coordinate 1(5) is symmetric.
	Interfragment coordinate 1(6) is symmetric.
	---Fragment 1 Geometry and Gradient---
	 C           0.0000000000       -2.7574146738        0.0000000000
	 H           0.0000000000       -4.8155588688        0.0000000000
	 H          -0.9695428897       -2.0686548518       -1.6791180451
	 H          -0.9695428897       -2.0686548518        1.6791180451
	 H           1.9395015192       -2.0690006717        0.0000000000
	            -0.0001390089        0.0067583667       -0.0000000009
	             0.0000123189        0.0060583426        0.0000000006
	             0.0022567623       -0.0003920323        0.0039410768
	             0.0022567625       -0.0003920325       -0.0039410768
	            -0.0043871724       -0.0003588880        0.0000000003

	---Fragment 2 Geometry and Gradient---
	 C           0.0000000000        2.7574146738        0.0000000000
	 H           0.0000000000        4.8155588688        0.0000000000
	 H           0.9695428897        2.0686548518       -1.6791180451
	 H           0.9695428897        2.0686548518        1.6791180451
	 H          -1.9395015192        2.0690006717        0.0000000000
	             0.0001390085       -0.0067583669        0.0000000008
	            -0.0000123185       -0.0060583433       -0.0000000006
	            -0.0022567628        0.0003920328        0.0039410774
	            -0.0022567626        0.0003920326       -0.0039410775
	             0.0043871730        0.0003588882       -0.0000000001

	Previous optimization step data not found.  Starting new optimization.

	---Fragment 1 Intrafragment Coordinates---
	 - Coordinate -           - BOHR/RAD -       - ANG/DEG -
	 R(1,2)           =         2.058144	       1.089123
	 R(1,3)           =         2.057630	       1.088851
	 R(1,4)           =         2.057630	       1.088851
	 R(1,5)           =         2.058052	       1.089074
	 B(2,1,3)         =         1.912120	     109.556397
	 B(2,1,4)         =         1.912120	     109.556397
	 B(2,1,5)         =         1.911869	     109.542002
	 B(3,1,4)         =         1.909069	     109.381586
	 B(3,1,5)         =         1.909308	     109.395292
	 B(4,1,5)         =         1.909308	     109.395292

	---Fragment 2 Intrafragment Coordinates---
	 - Coordinate -           - BOHR/RAD -       - ANG/DEG -
	 R(6,7)           =         2.058144	       1.089123
	 R(6,8)           =         2.057630	       1.088851
	 R(6,9)           =         2.057630	       1.088851
	 R(6,10)          =         2.058052	       1.089074
	 B(7,6,8)         =         1.912120	     109.556397
	 B(7,6,9)         =         1.912120	     109.556397
	 B(7,6,10)        =         1.911869	     109.542002
	 B(8,6,9)         =         1.909069	     109.381586
	 B(8,6,10)        =         1.909308	     109.395292
	 B(9,6,10)        =         1.909308	     109.395292

	---Interfragment Coordinates Between Fragments 1 and 2---
	 * Reference Points *
		 1 A3 : 4/1.000
		 2 A2 : 3/1.000
		 3 A1 : 2/0.250 3/0.250 4/0.250 5/0.250
		 4 B1 : 7/0.250 8/0.250 9/0.250 10/0.250
		 5 B2 : 9/1.000
		 6 B3 : 8/1.000
	 - Coordinate -           - BOHR/RAD -       - ANG/DEG -
	 R(3,4)           =         5.510935	       2.916261
	 B(2,3,4)         =         1.230354	      70.494119
	 B(3,4,5)         =         1.230354	      70.494119
	 D(2,3,4,5)       =         3.141593	     180.000000
	 D(1,2,3,4)       =        -1.046538	     -59.962225
	 D(3,4,5,6)       =         1.046538	      59.962225

	Current energy   :       -80.7382852429

	Generating empirical Hessian (Schlegel '84) for each fragment.
	Taking RFO optimization step.
	Going to follow RFO solution 1.
	Using RFO vector 1.

	Determining step-restricting scale parameter for RS-RFO.
	Maximum step size allowed    0.50000

	 Iter      |step|        alpha        rfo_root  
	------------------------------------------------
	    0     0.72427       1.00000           1
	    1     0.57131       1.83680           1
	    2     0.51134       2.39745           1
	    3     0.50037       2.52302           1
	    4     0.50000       2.52743           1
	------------------------------------------------
	Norm of target step-size    0.50000
	Projected energy change by RFO approximation:        -0.0063788575

	Back-transformation to cartesian coordinates...
	Successfully converged to displaced geometry.

	--- Internal Coordinate Step in ANG or DEG, aJ/ANG or AJ/DEG ---
	 ---------------------------------------------------------------------------
	   Coordinate                Previous        Force       Change         New 
	   ----------                --------       ------       ------       ------
	    1 R(1,2)          =      1.089123     0.025869     0.004545     1.093668
	    2 R(1,3)          =      1.088851     0.044387     0.007791     1.096642
	    3 R(1,4)          =      1.088851     0.044387     0.007791     1.096642
	    4 R(1,5)          =      1.089074     0.043093     0.007570     1.096644
	    5 B(2,1,3)        =    109.556397     0.000125     0.533668   110.090065
	    6 B(2,1,4)        =    109.556397     0.000125     0.533669   110.090065
	    7 B(2,1,5)        =    109.542002     0.000127     0.542023   110.084024
	    8 B(3,1,4)        =    109.381586    -0.000124    -0.534982   108.846604
	    9 B(3,1,5)        =    109.395292    -0.000127    -0.547482   108.847811
	   10 B(4,1,5)        =    109.395292    -0.000127    -0.547482   108.847811
	 ---------------------------------------------------------------------------

	Back-transformation to cartesian coordinates...
	Successfully converged to displaced geometry.

	--- Internal Coordinate Step in ANG or DEG, aJ/ANG or AJ/DEG ---
	 ---------------------------------------------------------------------------
	   Coordinate                Previous        Force       Change         New 
	   ----------                --------       ------       ------       ------
	    1 R(6,7)          =      1.089123     0.025869     0.004545     1.093668
	    2 R(6,8)          =      1.088851     0.044387     0.007791     1.096642
	    3 R(6,9)          =      1.088851     0.044387     0.007791     1.096642
	    4 R(6,10)         =      1.089074     0.043093     0.007570     1.096644
	    5 B(7,6,8)        =    109.556397     0.000125     0.533669   110.090065
	    6 B(7,6,9)        =    109.556397     0.000125     0.533668   110.090065
	    7 B(7,6,10)       =    109.542002     0.000127     0.542023   110.084024
	    8 B(8,6,9)        =    109.381586    -0.000124    -0.534982   108.846605
	    9 B(8,6,10)       =    109.395292    -0.000127    -0.547482   108.847811
	   10 B(9,6,10)       =    109.395292    -0.000127    -0.547482   108.847811
	 ---------------------------------------------------------------------------
	---Interfragment coordinates between fragments 1 and 2
	---Internal Coordinate Step in ANG or DEG, aJ/ANG or AJ/DEG ---
	 ----------------------------------------------------------------------
	 Coordinate             Previous        Force       Change         New 
	 ----------             --------       ------       ------       ------
	R_AB                     2.91304      0.09618      0.26328      3.17632
	theta_A                 70.35453      0.00000      0.00041     70.35494
	theta_B                 70.35453      0.00000      0.00042     70.35494
	tau                    180.00000     -0.00000     -0.00000    180.00000
	phi_A                  -59.78584     -0.00000     -0.00076    -59.78660
	phi_B                   59.78584      0.00000      0.00076     59.78660
	 ----------------------------------------------------------------------
	Difference from target, |x_target - x_achieved| = 6.33e-08
	Successfully symmetrized geometry.

  ==> Convergence Check <==

  Measures of convergence in internal coordinates in au.
  Criteria marked as inactive (o), active & met (*), and active & unmet ( ).
  --------------------------------------------------------------------------------------------- ~
   Step     Total Energy     Delta E     MAX Force     RMS Force      MAX Disp      RMS Disp    ~
  --------------------------------------------------------------------------------------------- ~
    Convergence Criteria    1.00e-06 *    3.00e-04 *             o    1.20e-03 *             o  ~
  --------------------------------------------------------------------------------------------- ~
      1     -80.73828524   -8.07e+01      1.17e-02      3.72e-03 o    4.98e-01      9.81e-02 o  ~
  ---------------------------------------------------------------------------------------------

	Writing optimization data to binary file.
	Structure for next step:
	Cartesian Geometry (in Angstrom)
	    C     0.0000305621  -1.4655973407   0.0000000014
	    H    -0.0000157767  -2.5592651020  -0.0000000020
	    H    -0.5148992293  -1.0888823849  -0.8919401527
	    H    -0.5148992307  -1.0888823822   0.8919401538
	    H     1.0300036746  -1.0890557902  -0.0000000006
	    C     0.0000066749   1.7288738381   0.0000001166
	    H     0.0000530117   2.8225416005   0.0000001196
	    H     0.5149364670   1.3521588782  -0.8919400369
	    H     0.5149364662   1.3521588808   0.8919402715
	    H    -1.0299664386   1.3523322877   0.0000001180
			--------------------------
			 OPTKING Finished Execution 
			--------------------------

    Structure for next step:
    Molecular point group: c1
    Full point group: Ci

    Geometry (in Angstrom), charge = 0, multiplicity = 1:

    C            0.000011943743    -1.597235589336    -0.000000057589
    H           -0.000034395115    -2.690903350613    -0.000000060920
    H           -0.514917847695    -1.220520633499    -0.891940211640
    H           -0.514917849035    -1.220520630854     0.891940094886
    H            1.029985056221    -1.220694038827    -0.000000059537
    C           -0.000011943513     1.597235589429     0.000000057656
    H            0.000034393371     2.690903351891     0.000000060656
    H            0.514917848643     1.220520629612    -0.891940095861
    H            0.514917847870     1.220520632152     0.891940212583
    H           -1.029985057002     1.220694039030     0.000000059031

gradient() will perform analytic gradient computation.
    SCF Algorithm Type (re)set to DF.

*** tstart() called on mac9721
*** at Fri Jul  1 21:44:13 2016


         ---------------------------------------------------------
                                   SCF
            by Justin Turney, Rob Parrish, and Andy Simmonett
                              RHF Reference
                        1 Threads,   1000 MiB Core
         ---------------------------------------------------------

  ==> Geometry <==

    Molecular point group: c1
    Full point group: Ci

    Geometry (in Angstrom), charge = 0, multiplicity = 1:

       Center              X                  Y                   Z               Mass       
    ------------   -----------------  -----------------  -----------------  -----------------
           C          0.000011943743    -1.597235589336    -0.000000057589    12.000000000000
           H         -0.000034395115    -2.690903350613    -0.000000060920     1.007825032070
           H         -0.514917847695    -1.220520633499    -0.891940211640     1.007825032070
           H         -0.514917849035    -1.220520630854     0.891940094886     1.007825032070
           H          1.029985056221    -1.220694038827    -0.000000059537     1.007825032070
           C         -0.000011943513     1.597235589429     0.000000057656    12.000000000000
           H          0.000034393371     2.690903351891     0.000000060656     1.007825032070
           H          0.514917848643     1.220520629612    -0.891940095861     1.007825032070
           H          0.514917847870     1.220520632152     0.891940212583     1.007825032070
           H         -1.029985057002     1.220694039030     0.000000059031     1.007825032070

  Running in c1 symmetry.

  Rotational constants: A =      2.62812  B =      0.19148  C =      0.19148 [cm^-1]
  Rotational constants: A =  78789.03646  B =   5740.39482  C =   5740.39015 [MHz]
  Nuclear repulsion =   43.099251267721158

  Charge       = 0
  Multiplicity = 1
  Electrons    = 20
  Nalpha       = 10
  Nbeta        = 10

  ==> Algorithm <==

  SCF Algorithm Type is DF.
  DIIS enabled.
  MOM disabled.
  Fractional occupation disabled.
  Guess Type is READ.
  Energy threshold   = 1.00e-10
  Density threshold  = 1.00e-10
  Integral threshold = 0.00e+00

  ==> Primary Basis <==

  Basis Set: AUG-CC-PVDZ
    Number of shells: 58
    Number of basis function: 118
    Number of Cartesian functions: 122
    Spherical Harmonics?: true
    Max angular momentum: 2

  ==> Pre-Iterations <==

   -------------------------------------------------------
    Irrep   Nso     Nmo     Nalpha   Nbeta   Ndocc  Nsocc
   -------------------------------------------------------
     A        118     118       0       0       0       0
   -------------------------------------------------------
    Total     118     118      10      10      10       0
   -------------------------------------------------------

  ==> Integral Setup <==

  ==> DFJK: Density-Fitted J/K Matrices <==

    J tasked:                  Yes
    K tasked:                  Yes
    wK tasked:                  No
    OpenMP threads:              1
    Integrals threads:           1
    Memory (MB):               715
    Algorithm:                Core
    Integral Cache:           NONE
    Schwarz Cutoff:          1E-12
    Fitting Condition:       1E-12

   => Auxiliary Basis Set <=

  Basis Set: 
    Number of shells: 152
    Number of basis function: 428
    Number of Cartesian functions: 482
    Spherical Harmonics?: true
    Max angular momentum: 3

  Minimum eigenvalue in the overlap matrix is 3.2942026033E-04.
  Using Symmetric Orthogonalization.
  SCF Guess: Reading in previously saved MOs, projecting if necessary.

  Using orbitals from previous SCF, no projection.
  Recomputing DOCC and SOCC from number of alpha and beta electrons from previous calculation.
              A 
    DOCC [    10 ]

  ==> Iterations <==

                           Total Energy        Delta E     RMS |[F,P]|

   @DF-RHF iter   0:   -80.39550280956441   -8.03955e+01   5.65623e-04 
   @DF-RHF iter   1:   -80.39577512341634   -2.72314e-04   7.24765e-05 
   @DF-RHF iter   2:   -80.39581687171682   -4.17483e-05   2.77439e-05 DIIS
   @DF-RHF iter   3:   -80.39582233159244   -5.45988e-06   3.84886e-06 DIIS
   @DF-RHF iter   4:   -80.39582257760620   -2.46014e-07   7.37614e-07 DIIS
   @DF-RHF iter   5:   -80.39582258954007   -1.19339e-08   7.01301e-08 DIIS
   @DF-RHF iter   6:   -80.39582258963760   -9.75291e-11   8.61611e-09 DIIS
   @DF-RHF iter   7:   -80.39582258963883   -1.22213e-12   1.66323e-09 DIIS
   @DF-RHF iter   8:   -80.39582258963888   -5.68434e-14   3.82826e-10 DIIS
   @DF-RHF iter   9:   -80.39582258963888    0.00000e+00   4.51131e-11 DIIS

  ==> Post-Iterations <==

    Orbital Energies (a.u.)
    -----------------------

    Doubly Occupied:                                                      

       1A    -11.216338     2A    -11.216334     3A     -0.947749  
       4A     -0.932440     5A     -0.559138     6A     -0.548572  
       7A     -0.548571     8A     -0.531180     9A     -0.531175  
      10A     -0.528149  

    Virtual:                                                              

      11A      0.035571    12A      0.045814    13A      0.059744  
      14A      0.059746    15A      0.068709    16A      0.083677  
      17A      0.083678    18A      0.099900    19A      0.131469  
      20A      0.131469    21A      0.168047    22A      0.168855  
      23A      0.168857    24A      0.176769    25A      0.200734  
      26A      0.242636    27A      0.270844    28A      0.270846  
      29A      0.295192    30A      0.296716    31A      0.296720  
      32A      0.336520    33A      0.336531    34A      0.393115  
      35A      0.393116    36A      0.403814    37A      0.412220  
      38A      0.437586    39A      0.437588    40A      0.444207  
      41A      0.466993    42A      0.466995    43A      0.479110  
      44A      0.484981    45A      0.545783    46A      0.545791  
      47A      0.571832    48A      0.571852    49A      0.572640  
      50A      0.579241    51A      0.581252    52A      0.599523  
      53A      0.616808    54A      0.648311    55A      0.648327  
      56A      0.685307    57A      0.685322    58A      0.718884  
      59A      0.718889    60A      0.727358    61A      0.729999  
      62A      0.730001    63A      0.746327    64A      0.770867  
      65A      0.774808    66A      0.774812    67A      0.839970  
      68A      0.839996    69A      0.995223    70A      0.995257  
      71A      1.031554    72A      1.149011    73A      1.149018  
      74A      1.151061    75A      1.159462    76A      1.298659  
      77A      1.363914    78A      1.363914    79A      1.378322  
      80A      1.378337    81A      1.597289    82A      1.700457  
      83A      1.712635    84A      1.712687    85A      1.817827  
      86A      1.817838    87A      1.886294    88A      1.905651  
      89A      1.915728    90A      1.915759    91A      1.964488  
      92A      1.964502    93A      2.041896    94A      2.061266  
      95A      2.203418    96A      2.233453    97A      2.233463  
      98A      2.237977    99A      2.237983   100A      2.266065  
     101A      2.287314   102A      2.287351   103A      2.326730  
     104A      2.326767   105A      2.353959   106A      2.491005  
     107A      2.633413   108A      2.633472   109A      2.671456  
     110A      2.671493   111A      2.815951   112A      2.844774  
     113A      2.927473   114A      2.927502   115A      2.951884  
     116A      2.951891   117A      3.025108   118A      3.032180  

    Final Occupation by Irrep:
              A 
    DOCC [    10 ]

  Energy converged.

  @DF-RHF Final Energy:   -80.39582258963888

   => Energetics <=

    Nuclear Repulsion Energy =             43.0992512677211579
    One-Electron Energy =                -191.8708544642209404
    Two-Electron Energy =                  68.3757806068609995
    DFT Exchange-Correlation Energy =       0.0000000000000000
    Empirical Dispersion Energy =           0.0000000000000000
    PCM Polarization Energy =               0.0000000000000000
    EFP Energy =                            0.0000000000000000
    Total Energy =                        -80.3958225896387688


  Saving occupied orbitals to File 180.

*** tstop() called on mac9721 at Fri Jul  1 21:44:16 2016
Module time:
	user time   =       2.65 seconds =       0.04 minutes
	system time =       0.13 seconds =       0.00 minutes
	total time  =          3 seconds =       0.05 minutes
Total time:
	user time   =      19.49 seconds =       0.32 minutes
	system time =       0.87 seconds =       0.01 minutes
	total time  =         19 seconds =       0.32 minutes


Properties will be evaluated at   0.000000,   0.000000,   0.000000 Bohr

Properties computed using the SCF density matrix

  Nuclear Dipole Moment: (a.u.)
     X:    -0.0000      Y:    -0.0000      Z:    -0.0000

  Electronic Dipole Moment: (a.u.)
     X:     0.0000      Y:     0.0000      Z:     0.0000

  Dipole Moment: (a.u.)
     X:    -0.0000      Y:    -0.0000      Z:    -0.0000     Total:     0.0000

  Dipole Moment: (Debye)
     X:    -0.0000      Y:    -0.0000      Z:    -0.0000     Total:     0.0000


  //>>>>>>>>>>>>>>>>>>>>>>>>>>>>>>>>>>>//
  //               DFMP2               //
  //<<<<<<<<<<<<<<<<<<<<<<<<<<<<<<<<<<<//


*** tstart() called on mac9721
*** at Fri Jul  1 21:44:16 2016


*** tstop() called on mac9721 at Fri Jul  1 21:44:16 2016
Module time:
	user time   =       0.13 seconds =       0.00 minutes
	system time =       0.00 seconds =       0.00 minutes
	total time  =          0 seconds =       0.00 minutes
Total time:
	user time   =      19.63 seconds =       0.33 minutes
	system time =       0.87 seconds =       0.01 minutes
	total time  =         19 seconds =       0.32 minutes
	 --------------------------------------------------------
	                          DF-MP2                         
	      2nd-Order Density-Fitted Moller-Plesset Theory     
	              RMP2 Wavefunction,   1 Threads             
	                                                         
	        Rob Parrish, Justin Turney, Andy Simmonett,      
	           Ed Hohenstein, and C. David Sherrill          
	 --------------------------------------------------------

   => Auxiliary Basis Set <=

  Basis Set: 
    Number of shells: 116
    Number of basis function: 328
    Number of Cartesian functions: 372
    Spherical Harmonics?: true
    Max angular momentum: 3

	 --------------------------------------------------------
	                 NBF =   118, NAUX =   328
	 --------------------------------------------------------
	   CLASS    FOCC     OCC    AOCC    AVIR     VIR    FVIR
	   PAIRS       0      10      10     108     108       0
	 --------------------------------------------------------

DGAS Warning! /src/lib/libfock/apps.cc:80 is not currently checking restricted

         ------------------------------------------------------------
                                     CPHF                           
                                  Rob Parrish                       
         ------------------------------------------------------------

  ==> Geometry <==

    Molecular point group: c1
    Full point group: Ci

    Geometry (in Angstrom), charge = 0, multiplicity = 1:

       Center              X                  Y                   Z               Mass       
    ------------   -----------------  -----------------  -----------------  -----------------
           C          0.000011943743    -1.597235589336    -0.000000057589    12.000000000000
           H         -0.000034395115    -2.690903350613    -0.000000060920     1.007825032070
           H         -0.514917847695    -1.220520633499    -0.891940211640     1.007825032070
           H         -0.514917849035    -1.220520630854     0.891940094886     1.007825032070
           H          1.029985056221    -1.220694038827    -0.000000059537     1.007825032070
           C         -0.000011943513     1.597235589429     0.000000057656    12.000000000000
           H          0.000034393371     2.690903351891     0.000000060656     1.007825032070
           H          0.514917848643     1.220520629612    -0.891940095861     1.007825032070
           H          0.514917847870     1.220520632152     0.891940212583     1.007825032070
           H         -1.029985057002     1.220694039030     0.000000059031     1.007825032070

  Nuclear repulsion =   43.099251267721158
  Reference energy  =  -80.395822589638883

  ==> Basis Set <==

  Basis Set: AUG-CC-PVDZ
    Number of shells: 58
    Number of basis function: 118
    Number of Cartesian functions: 122
    Spherical Harmonics?: true
    Max angular momentum: 2

  ==> CGRSolver (by Rob Parrish) <==

   Number of roots    =         1
   Preconditioning    =    JACOBI
   Convergence cutoff =     1E-06
   Maximum iterations =       100

  ==> CPHFRHamiltonian (by Rob Parrish) <== 

  ==> DFJK: Density-Fitted J/K Matrices <==

    J tasked:                  Yes
    K tasked:                  Yes
    wK tasked:                  No
    OpenMP threads:              1
    Integrals threads:           1
    Memory (MB):               715
    Algorithm:                Core
    Integral Cache:           NONE
    Schwarz Cutoff:          1E-12
    Fitting Condition:       1E-12

   => Auxiliary Basis Set <=

  Basis Set: 
    Number of shells: 152
    Number of basis function: 428
    Number of Cartesian functions: 482
    Spherical Harmonics?: true
    Max angular momentum: 3

  ==> CPHF Iterations <==

  => Iterations <=

             Iter  Converged  Remaining    Residual
  CGR           1          0          1   7.291E-02
  CGR           2          0          1   1.274E-02
  CGR           3          0          1   1.126E-03
  CGR           4          0          1   9.321E-05
  CGR           5          0          1   1.579E-05
  CGR           6          0          1   1.838E-06
  CGR           7          1          0   1.595E-07

    CGRSolver converged.

  ==> DFCorrGrad: Density-Fitted Correlated Gradients <==

    OpenMP threads:              1
    Integrals threads:           1
    Memory (MB):               715
    Schwarz Cutoff:          0E+00
    Fitting Condition:       1E-12

   => Auxiliary Basis Set <=

  Basis Set: 
    Number of shells: 152
    Number of basis function: 428
    Number of Cartesian functions: 482
    Spherical Harmonics?: true
    Max angular momentum: 3

	-----------------------------------------------------------
	 ==================> DF-MP2 Energies <==================== 
	-----------------------------------------------------------
	 Reference Energy          =     -80.3958225896388825 [Eh]
	 Singles Energy            =      -0.0000000000000000 [Eh]
	 Same-Spin Energy          =      -0.0672009843598385 [Eh]
	 Opposite-Spin Energy      =      -0.2790400995434164 [Eh]
	 Correlation Energy        =      -0.3462410839032549 [Eh]
	 Total Energy              =     -80.7420636735421340 [Eh]
	-----------------------------------------------------------
	 ================> DF-SCS-MP2 Energies <================== 
	-----------------------------------------------------------
	 SCS Same-Spin Scale       =       0.3333333333333333 [-]
	 SCS Opposite-Spin Scale   =       1.2000000000000000 [-]
	 SCS Same-Spin Energy      =      -0.0224003281199462 [Eh]
	 SCS Opposite-Spin Energy  =      -0.3348481194520996 [Eh]
	 SCS Correlation Energy    =      -0.3572484475720458 [Eh]
	 SCS Total Energy          =     -80.7530710372109297 [Eh]
	-----------------------------------------------------------


  -Total Gradient:
     Atom            X                  Y                   Z
    ------   -----------------  -----------------  -----------------
       1       -0.000006295619    -0.002216624712     0.000000000696
       2        0.000006390560     0.001919203930    -0.000000000516
       3        0.000267169019     0.001297805677     0.000465018151
       4        0.000267168574     0.001297806310    -0.000465018005
       5       -0.000534210718     0.001290714483    -0.000000000303
       6        0.000006294853     0.002216624898    -0.000000000525
       7       -0.000006390157    -0.001919203700     0.000000000454
       8       -0.000267168541    -0.001297806517     0.000465017981
       9       -0.000267168782    -0.001297805854    -0.000465018088
      10        0.000534210812    -0.001290714514     0.000000000155


			-----------------------------------------
			 OPTKING 2.0: for geometry optimizations 
			  - R.A. King,  Bethel University        
			-----------------------------------------

	Previous internal coordinate definitions found.
	---Fragment 1 Geometry and Gradient---
	 C           0.0000225704       -3.0183378335       -0.0000001088
	 H          -0.0000649973       -5.0850703827       -0.0000001151
	 H          -0.9730537131       -2.3064497368       -1.6855227269
	 H          -0.9730537156       -2.3064497319        1.6855225063
	 H           1.9463896772       -2.3067774254       -0.0000001125
	            -0.0000062956       -0.0022166247        0.0000000007
	             0.0000063906        0.0019192039       -0.0000000005
	             0.0002671690        0.0012978057        0.0004650182
	             0.0002671686        0.0012978063       -0.0004650180
	            -0.0005342107        0.0012907145       -0.0000000003

	---Fragment 2 Geometry and Gradient---
	 C          -0.0000225700        3.0183378337        0.0000001090
	 H           0.0000649941        5.0850703851        0.0000001146
	 H           0.9730537149        2.3064497295       -1.6855225081
	 H           0.9730537134        2.3064497343        1.6855227287
	 H          -1.9463896787        2.3067774258        0.0000001116
	             0.0000062949        0.0022166249       -0.0000000005
	            -0.0000063902       -0.0019192037        0.0000000005
	            -0.0002671685       -0.0012978065        0.0004650180
	            -0.0002671688       -0.0012978059       -0.0004650181
	             0.0005342108       -0.0012907145        0.0000000002

	---Fragment 1 Intrafragment Coordinates---
	 - Coordinate -           - BOHR/RAD -       - ANG/DEG -
	 R(1,2)           =         2.066733	       1.093668
	 R(1,3)           =         2.072353	       1.096642
	 R(1,4)           =         2.072353	       1.096642
	 R(1,5)           =         2.072357	       1.096644
	 B(2,1,3)         =         1.921434	     110.090065
	 B(2,1,4)         =         1.921434	     110.090065
	 B(2,1,5)         =         1.921329	     110.084024
	 B(3,1,4)         =         1.899732	     108.846604
	 B(3,1,5)         =         1.899753	     108.847811
	 B(4,1,5)         =         1.899753	     108.847811

	---Fragment 2 Intrafragment Coordinates---
	 - Coordinate -           - BOHR/RAD -       - ANG/DEG -
	 R(6,7)           =         2.066733	       1.093668
	 R(6,8)           =         2.072353	       1.096642
	 R(6,9)           =         2.072353	       1.096642
	 R(6,10)          =         2.072357	       1.096644
	 B(7,6,8)         =         1.921434	     110.090065
	 B(7,6,9)         =         1.921434	     110.090065
	 B(7,6,10)        =         1.921329	     110.084024
	 B(8,6,9)         =         1.899732	     108.846605
	 B(8,6,10)        =         1.899753	     108.847811
	 B(9,6,10)        =         1.899753	     108.847811

	---Interfragment Coordinates Between Fragments 1 and 2---
	 * Reference Points *
		 1 A3 : 4/1.000
		 2 A2 : 3/1.000
		 3 A1 : 2/0.250 3/0.250 4/0.250 5/0.250
		 4 B1 : 7/0.250 8/0.250 9/0.250 10/0.250
		 5 B2 : 9/1.000
		 6 B3 : 8/1.000
	 - Coordinate -           - BOHR/RAD -       - ANG/DEG -
	 R(3,4)           =         6.002374	       3.176319
	 B(2,3,4)         =         1.227925	      70.354943
	 B(3,4,5)         =         1.227925	      70.354943
	 D(2,3,4,5)       =         3.141593	     180.000000
	 D(1,2,3,4)       =        -1.043473	     -59.786600
	 D(3,4,5,6)       =         1.043473	      59.786600

	Current energy   :       -80.7420636735

	Energy change for the previous step:
		Projected    :        -0.0063788575
		Actual       :        -0.0037784306

	Performing BFGS update.
	Previous computed or guess Hessian on step 1.
	Steps to be used in Hessian update: 1
	Taking RFO optimization step.
	Going to follow RFO solution 1.
	Using RFO vector 1.
	Norm of target step-size    0.22212
	Projected energy change by RFO approximation:        -0.0013718765

	Back-transformation to cartesian coordinates...
	Successfully converged to displaced geometry.

	--- Internal Coordinate Step in ANG or DEG, aJ/ANG or AJ/DEG ---
	 ---------------------------------------------------------------------------
	   Coordinate                Previous        Force       Change         New 
	   ----------                --------       ------       ------       ------
	    1 R(1,2)          =      1.093668     0.008421     0.001732     1.095400
	    2 R(1,3)          =      1.096642     0.003016     0.000133     1.096776
	    3 R(1,4)          =      1.096642     0.003016     0.000133     1.096776
	    4 R(1,5)          =      1.096644     0.003020     0.000152     1.096796
	    5 B(2,1,3)        =    110.090065    -0.000043    -0.324757   109.765308
	    6 B(2,1,4)        =    110.090065    -0.000043    -0.324757   109.765308
	    7 B(2,1,5)        =    110.084024    -0.000042    -0.319199   109.764825
	    8 B(3,1,4)        =    108.846604     0.000044     0.328455   109.175060
	    9 B(3,1,5)        =    108.847811     0.000044     0.328212   109.176023
	   10 B(4,1,5)        =    108.847811     0.000044     0.328212   109.176023
	 ---------------------------------------------------------------------------

	Back-transformation to cartesian coordinates...
	Successfully converged to displaced geometry.

	--- Internal Coordinate Step in ANG or DEG, aJ/ANG or AJ/DEG ---
	 ---------------------------------------------------------------------------
	   Coordinate                Previous        Force       Change         New 
	   ----------                --------       ------       ------       ------
	    1 R(6,7)          =      1.093668     0.008421     0.001732     1.095400
	    2 R(6,8)          =      1.096642     0.003016     0.000133     1.096776
	    3 R(6,9)          =      1.096642     0.003016     0.000133     1.096776
	    4 R(6,10)         =      1.096644     0.003020     0.000152     1.096796
	    5 B(7,6,8)        =    110.090065    -0.000043    -0.324757   109.765308
	    6 B(7,6,9)        =    110.090065    -0.000043    -0.324757   109.765308
	    7 B(7,6,10)       =    110.084024    -0.000042    -0.319200   109.764825
	    8 B(8,6,9)        =    108.846605     0.000044     0.328455   109.175060
	    9 B(8,6,10)       =    108.847811     0.000044     0.328212   109.176023
	   10 B(9,6,10)       =    108.847811     0.000044     0.328212   109.176023
	 ---------------------------------------------------------------------------
	---Interfragment coordinates between fragments 1 and 2
	---Internal Coordinate Step in ANG or DEG, aJ/ANG or AJ/DEG ---
	 ----------------------------------------------------------------------
	 Coordinate             Previous        Force       Change         New 
	 ----------             --------       ------       ------       ------
	R_AB                     3.17822      0.02957      0.11705      3.29527
	theta_A                 70.44458      0.00000     -0.02366     70.42092
	theta_B                 70.44458      0.00000     -0.02365     70.42093
	tau                    180.00000     -0.00000     -0.00000    180.00000
	phi_A                  -59.89572     -0.00000      0.00071    -59.89500
	phi_B                   59.89572      0.00000     -0.00068     59.89503
	 ----------------------------------------------------------------------
	Difference from target, |x_target - x_achieved| = 9.39e-07
	Successfully symmetrized geometry.

  ==> Convergence Check <==

  Measures of convergence in internal coordinates in au.
  Criteria marked as inactive (o), active & met (*), and active & unmet ( ).
  ---------------------------------------------------------------------------------------------
   Step     Total Energy     Delta E     MAX Force     RMS Force      MAX Disp      RMS Disp   
  ---------------------------------------------------------------------------------------------
    Convergence Criteria    1.00e-06 *    3.00e-04 *             o    1.20e-03 *             o
  ---------------------------------------------------------------------------------------------
      2     -80.74206367   -3.78e-03      3.59e-03      8.70e-04 o    2.21e-01      4.36e-02 o  ~
  ---------------------------------------------------------------------------------------------

	Writing optimization data to binary file.
	Structure for next step:
	Cartesian Geometry (in Angstrom)
	    C     0.0000223931  -1.5934312296  -0.0000000597
	    H    -0.0000679648  -2.6888313847  -0.0000000580
	    H    -0.5160315089  -1.2224940841  -0.8938739977
	    H    -0.5160315071  -1.2224940853   0.8938738787
	    H     1.0322354958  -1.2226234596  -0.0000000580
	    C    -0.0007380225   1.7104802320  -0.0011588605
	    H    -0.0006476690   2.8058803880  -0.0011588618
	    H     0.5153158759   1.3395430864  -0.8950328004
	    H     0.5153158770   1.3395430853   0.8927150793
	    H    -1.0329511264   1.3396724635  -0.0011588614
			--------------------------
			 OPTKING Finished Execution 
			--------------------------

    Structure for next step:
    Molecular point group: c1
    Full point group: Ci

    Geometry (in Angstrom), charge = 0, multiplicity = 1:

    C            0.000380208130    -1.651955730768     0.000579400311
    H            0.000289850182    -2.747355885884     0.000579402025
    H           -0.515673693858    -1.281018585268    -0.893294537680
    H           -0.515673692121    -1.281018586467     0.894453338781
    H            1.032593310765    -1.281147960800     0.000579402054
    C           -0.000380207499     1.651955730767    -0.000579400403
    H           -0.000289853988     2.747355886809    -0.000579401712
    H            0.515673690938     1.281018585219    -0.894453340296
    H            0.515673691979     1.281018584080     0.893294539320
    H           -1.032593311404     1.281147962316    -0.000579401390

gradient() will perform analytic gradient computation.
    SCF Algorithm Type (re)set to DF.

*** tstart() called on mac9721
*** at Fri Jul  1 21:44:29 2016


         ---------------------------------------------------------
                                   SCF
            by Justin Turney, Rob Parrish, and Andy Simmonett
                              RHF Reference
                        1 Threads,   1000 MiB Core
         ---------------------------------------------------------

  ==> Geometry <==

    Molecular point group: c1
    Full point group: Ci

    Geometry (in Angstrom), charge = 0, multiplicity = 1:

       Center              X                  Y                   Z               Mass       
    ------------   -----------------  -----------------  -----------------  -----------------
           C          0.000380208130    -1.651955730768     0.000579400311    12.000000000000
           H          0.000289850182    -2.747355885884     0.000579402025     1.007825032070
           H         -0.515673693858    -1.281018585268    -0.893294537680     1.007825032070
           H         -0.515673692121    -1.281018586467     0.894453338781     1.007825032070
           H          1.032593310765    -1.281147960800     0.000579402054     1.007825032070
           C         -0.000380207499     1.651955730767    -0.000579400403    12.000000000000
           H         -0.000289853988     2.747355886809    -0.000579401712     1.007825032070
           H          0.515673690938     1.281018585219    -0.894453340296     1.007825032070
           H          0.515673691979     1.281018584080     0.893294539320     1.007825032070
           H         -1.032593311404     1.281147962316    -0.000579401390     1.007825032070

  Running in c1 symmetry.

  Rotational constants: A =      2.61674  B =      0.17962  C =      0.17962 [cm^-1]
  Rotational constants: A =  78447.76217  B =   5384.74320  C =   5384.73558 [MHz]
  Nuclear repulsion =   42.541113100686708

  Charge       = 0
  Multiplicity = 1
  Electrons    = 20
  Nalpha       = 10
  Nbeta        = 10

  ==> Algorithm <==

  SCF Algorithm Type is DF.
  DIIS enabled.
  MOM disabled.
  Fractional occupation disabled.
  Guess Type is READ.
  Energy threshold   = 1.00e-10
  Density threshold  = 1.00e-10
  Integral threshold = 0.00e+00

  ==> Primary Basis <==

  Basis Set: AUG-CC-PVDZ
    Number of shells: 58
    Number of basis function: 118
    Number of Cartesian functions: 122
    Spherical Harmonics?: true
    Max angular momentum: 2

  ==> Pre-Iterations <==

   -------------------------------------------------------
    Irrep   Nso     Nmo     Nalpha   Nbeta   Ndocc  Nsocc
   -------------------------------------------------------
     A        118     118       0       0       0       0
   -------------------------------------------------------
    Total     118     118      10      10      10       0
   -------------------------------------------------------

  ==> Integral Setup <==

  ==> DFJK: Density-Fitted J/K Matrices <==

    J tasked:                  Yes
    K tasked:                  Yes
    wK tasked:                  No
    OpenMP threads:              1
    Integrals threads:           1
    Memory (MB):               715
    Algorithm:                Core
    Integral Cache:           NONE
    Schwarz Cutoff:          1E-12
    Fitting Condition:       1E-12

   => Auxiliary Basis Set <=

  Basis Set: 
    Number of shells: 152
    Number of basis function: 428
    Number of Cartesian functions: 482
    Spherical Harmonics?: true
    Max angular momentum: 3

  Minimum eigenvalue in the overlap matrix is 3.4126031985E-04.
  Using Symmetric Orthogonalization.
  SCF Guess: Reading in previously saved MOs, projecting if necessary.

  Using orbitals from previous SCF, no projection.
  Recomputing DOCC and SOCC from number of alpha and beta electrons from previous calculation.
              A 
    DOCC [    10 ]

  ==> Iterations <==

                           Total Energy        Delta E     RMS |[F,P]|

   @DF-RHF iter   0:   -80.39675776982199   -8.03968e+01   1.50570e-04 
   @DF-RHF iter   1:   -80.39697493068465   -2.17161e-04   1.44511e-05 
   @DF-RHF iter   2:   -80.39697692527869   -1.99459e-06   4.38586e-06 DIIS
   @DF-RHF iter   3:   -80.39697708329780   -1.58019e-07   1.19731e-06 DIIS
   @DF-RHF iter   4:   -80.39697710030143   -1.70036e-08   2.18692e-07 DIIS
   @DF-RHF iter   5:   -80.39697710131247   -1.01105e-09   4.56857e-08 DIIS
   @DF-RHF iter   6:   -80.39697710135411   -4.16378e-11   6.59501e-09 DIIS
   @DF-RHF iter   7:   -80.39697710135488   -7.67386e-13   5.04485e-10 DIIS
   @DF-RHF iter   8:   -80.39697710135488    0.00000e+00   4.87743e-11 DIIS

  ==> Post-Iterations <==

    Orbital Energies (a.u.)
    -----------------------

    Doubly Occupied:                                                      

       1A    -11.216935     2A    -11.216932     3A     -0.945794  
       4A     -0.933806     5A     -0.555175     6A     -0.547470  
       7A     -0.547460     8A     -0.533522     9A     -0.533515  
      10A     -0.529235  

    Virtual:                                                              

      11A      0.035512    12A      0.045817    13A      0.059800  
      14A      0.059807    15A      0.068472    16A      0.083236  
      17A      0.083239    18A      0.099075    19A      0.132028  
      20A      0.132033    21A      0.167582    22A      0.167912  
      23A      0.167915    24A      0.177535    25A      0.199799  
      26A      0.240960    27A      0.269639    28A      0.269644  
      29A      0.289532    30A      0.298034    31A      0.298053  
      32A      0.331912    33A      0.331940    34A      0.389644  
      35A      0.389665    36A      0.402504    37A      0.410283  
      38A      0.435758    39A      0.435772    40A      0.441572  
      41A      0.464771    42A      0.464772    43A      0.471107  
      44A      0.486123    45A      0.542195    46A      0.542228  
      47A      0.565934    48A      0.566031    49A      0.569012  
      50A      0.573737    51A      0.580025    52A      0.599464  
      53A      0.613573    54A      0.642711    55A      0.642758  
      56A      0.680343    57A      0.680415    58A      0.718454  
      59A      0.718479    60A      0.719806    61A      0.724234  
      62A      0.724247    63A      0.738142    64A      0.763544  
      65A      0.775087    66A      0.775130    67A      0.829765  
      68A      0.829873    69A      0.990403    70A      0.990441  
      71A      1.019619    72A      1.140373    73A      1.140376  
      74A      1.148284    75A      1.159464    76A      1.268230  
      77A      1.365233    78A      1.365299    79A      1.366604  
      80A      1.366609    81A      1.569175    82A      1.705388  
      83A      1.723908    84A      1.724047    85A      1.801775  
      86A      1.801886    87A      1.881984    88A      1.904676  
      89A      1.920301    90A      1.920310    91A      1.954443  
      92A      1.954549    93A      2.037646    94A      2.068185  
      95A      2.186406    96A      2.221379    97A      2.221407  
      98A      2.241268    99A      2.241328   100A      2.259244  
     101A      2.293648   102A      2.293700   103A      2.316254  
     104A      2.316260   105A      2.326878   106A      2.469598  
     107A      2.637441   108A      2.637553   109A      2.659760  
     110A      2.659814   111A      2.814339   112A      2.840179  
     113A      2.922889   114A      2.922932   115A      2.951534  
     116A      2.951558   117A      2.995333   118A      3.045699  

    Final Occupation by Irrep:
              A 
    DOCC [    10 ]

  Energy converged.

  @DF-RHF Final Energy:   -80.39697710135488

   => Energetics <=

    Nuclear Repulsion Energy =             42.5411131006867080
    One-Electron Energy =                -190.7564918573208956
    Two-Electron Energy =                  67.8184016552792741
    DFT Exchange-Correlation Energy =       0.0000000000000000
    Empirical Dispersion Energy =           0.0000000000000000
    PCM Polarization Energy =               0.0000000000000000
    EFP Energy =                            0.0000000000000000
    Total Energy =                        -80.3969771013549064


  Saving occupied orbitals to File 180.

*** tstop() called on mac9721 at Fri Jul  1 21:44:31 2016
Module time:
	user time   =       2.55 seconds =       0.04 minutes
	system time =       0.14 seconds =       0.00 minutes
	total time  =          2 seconds =       0.03 minutes
Total time:
	user time   =      35.56 seconds =       0.59 minutes
	system time =       1.59 seconds =       0.03 minutes
	total time  =         34 seconds =       0.57 minutes


Properties will be evaluated at   0.000000,   0.000000,   0.000000 Bohr

Properties computed using the SCF density matrix

  Nuclear Dipole Moment: (a.u.)
     X:    -0.0000      Y:     0.0000      Z:     0.0000

  Electronic Dipole Moment: (a.u.)
     X:     0.0000      Y:    -0.0000      Z:    -0.0000

  Dipole Moment: (a.u.)
     X:    -0.0000      Y:    -0.0000      Z:     0.0000     Total:     0.0000

  Dipole Moment: (Debye)
     X:    -0.0000      Y:    -0.0000      Z:     0.0000     Total:     0.0000


  //>>>>>>>>>>>>>>>>>>>>>>>>>>>>>>>>>>>//
  //               DFMP2               //
  //<<<<<<<<<<<<<<<<<<<<<<<<<<<<<<<<<<<//


*** tstart() called on mac9721
*** at Fri Jul  1 21:44:31 2016


*** tstop() called on mac9721 at Fri Jul  1 21:44:31 2016
Module time:
	user time   =       0.14 seconds =       0.00 minutes
	system time =       0.00 seconds =       0.00 minutes
	total time  =          0 seconds =       0.00 minutes
Total time:
	user time   =      35.71 seconds =       0.60 minutes
	system time =       1.59 seconds =       0.03 minutes
	total time  =         34 seconds =       0.57 minutes
	 --------------------------------------------------------
	                          DF-MP2                         
	      2nd-Order Density-Fitted Moller-Plesset Theory     
	              RMP2 Wavefunction,   1 Threads             
	                                                         
	        Rob Parrish, Justin Turney, Andy Simmonett,      
	           Ed Hohenstein, and C. David Sherrill          
	 --------------------------------------------------------

   => Auxiliary Basis Set <=

  Basis Set: 
    Number of shells: 116
    Number of basis function: 328
    Number of Cartesian functions: 372
    Spherical Harmonics?: true
    Max angular momentum: 3

	 --------------------------------------------------------
	                 NBF =   118, NAUX =   328
	 --------------------------------------------------------
	   CLASS    FOCC     OCC    AOCC    AVIR     VIR    FVIR
	   PAIRS       0      10      10     108     108       0
	 --------------------------------------------------------

DGAS Warning! /src/lib/libfock/apps.cc:80 is not currently checking restricted

         ------------------------------------------------------------
                                     CPHF                           
                                  Rob Parrish                       
         ------------------------------------------------------------

  ==> Geometry <==

    Molecular point group: c1
    Full point group: Ci

    Geometry (in Angstrom), charge = 0, multiplicity = 1:

       Center              X                  Y                   Z               Mass       
    ------------   -----------------  -----------------  -----------------  -----------------
           C          0.000380208130    -1.651955730768     0.000579400311    12.000000000000
           H          0.000289850182    -2.747355885884     0.000579402025     1.007825032070
           H         -0.515673693858    -1.281018585268    -0.893294537680     1.007825032070
           H         -0.515673692121    -1.281018586467     0.894453338781     1.007825032070
           H          1.032593310765    -1.281147960800     0.000579402054     1.007825032070
           C         -0.000380207499     1.651955730767    -0.000579400403    12.000000000000
           H         -0.000289853988     2.747355886809    -0.000579401712     1.007825032070
           H          0.515673690938     1.281018585219    -0.894453340296     1.007825032070
           H          0.515673691979     1.281018584080     0.893294539320     1.007825032070
           H         -1.032593311404     1.281147962316    -0.000579401390     1.007825032070

  Nuclear repulsion =   42.541113100686708
  Reference energy  =  -80.396977101354878

  ==> Basis Set <==

  Basis Set: AUG-CC-PVDZ
    Number of shells: 58
    Number of basis function: 118
    Number of Cartesian functions: 122
    Spherical Harmonics?: true
    Max angular momentum: 2

  ==> CGRSolver (by Rob Parrish) <==

   Number of roots    =         1
   Preconditioning    =    JACOBI
   Convergence cutoff =     1E-06
   Maximum iterations =       100

  ==> CPHFRHamiltonian (by Rob Parrish) <== 

  ==> DFJK: Density-Fitted J/K Matrices <==

    J tasked:                  Yes
    K tasked:                  Yes
    wK tasked:                  No
    OpenMP threads:              1
    Integrals threads:           1
    Memory (MB):               715
    Algorithm:                Core
    Integral Cache:           NONE
    Schwarz Cutoff:          1E-12
    Fitting Condition:       1E-12

   => Auxiliary Basis Set <=

  Basis Set: 
    Number of shells: 152
    Number of basis function: 428
    Number of Cartesian functions: 482
    Spherical Harmonics?: true
    Max angular momentum: 3

  ==> CPHF Iterations <==

  => Iterations <=

             Iter  Converged  Remaining    Residual
  CGR           1          0          1   7.351E-02
  CGR           2          0          1   1.279E-02
  CGR           3          0          1   1.113E-03
  CGR           4          0          1   8.133E-05
  CGR           5          0          1   1.408E-05
  CGR           6          0          1   1.804E-06
  CGR           7          1          0   1.807E-07

    CGRSolver converged.

  ==> DFCorrGrad: Density-Fitted Correlated Gradients <==

    OpenMP threads:              1
    Integrals threads:           1
    Memory (MB):               715
    Schwarz Cutoff:          0E+00
    Fitting Condition:       1E-12

   => Auxiliary Basis Set <=

  Basis Set: 
    Number of shells: 152
    Number of basis function: 428
    Number of Cartesian functions: 482
    Spherical Harmonics?: true
    Max angular momentum: 3

	-----------------------------------------------------------
	 ==================> DF-MP2 Energies <==================== 
	-----------------------------------------------------------
	 Reference Energy          =     -80.3969771013548780 [Eh]
	 Singles Energy            =      -0.0000000000000000 [Eh]
	 Same-Spin Energy          =      -0.0669653315925107 [Eh]
	 Opposite-Spin Energy      =      -0.2787592026967143 [Eh]
	 Correlation Energy        =      -0.3457245342892250 [Eh]
	 Total Energy              =     -80.7427016356440959 [Eh]
	-----------------------------------------------------------
	 ================> DF-SCS-MP2 Energies <================== 
	-----------------------------------------------------------
	 SCS Same-Spin Scale       =       0.3333333333333333 [-]
	 SCS Opposite-Spin Scale   =       1.2000000000000000 [-]
	 SCS Same-Spin Energy      =      -0.0223217771975036 [Eh]
	 SCS Opposite-Spin Energy  =      -0.3345110432360571 [Eh]
	 SCS Correlation Energy    =      -0.3568328204335607 [Eh]
	 SCS Total Energy          =     -80.7538099217884451 [Eh]
	-----------------------------------------------------------


  -Total Gradient:
     Atom            X                  Y                   Z
    ------   -----------------  -----------------  -----------------
       1       -0.000011362278    -0.000681721290     0.000000587476
       2       -0.000000096156     0.000937288127    -0.000000432404
       3        0.000127970864     0.000558098339     0.000223786048
       4        0.000128673012     0.000557347450    -0.000224311692
       5       -0.000245070753     0.000561144816     0.000000345289
       6        0.000011362357     0.000681721951    -0.000000585987
       7        0.000000096012    -0.000937285303     0.000000431618
       8       -0.000128671999    -0.000557348715     0.000224309394
       9       -0.000127969609    -0.000558099672    -0.000223784087
      10        0.000245068551    -0.000561145703    -0.000000345656


			-----------------------------------------
			 OPTKING 2.0: for geometry optimizations 
			  - R.A. King,  Bethel University        
			-----------------------------------------

	Previous internal coordinate definitions found.
	---Fragment 1 Geometry and Gradient---
	 C           0.0007184892       -3.1217439148        0.0010949079
	 H           0.0005477375       -5.1917502139        0.0010949111
	 H          -0.9744820553       -2.4207742973       -1.6880820322
	 H          -0.9744820520       -2.4207742996        1.6902718489
	 H           1.9513185640       -2.4210187816        0.0010949112
	            -0.0000113623       -0.0006817213        0.0000005875
	            -0.0000000962        0.0009372881       -0.0000004324
	             0.0001279709        0.0005580983        0.0002237860
	             0.0001286730        0.0005573474       -0.0002243117
	            -0.0002450708        0.0005611448        0.0000003453

	---Fragment 2 Geometry and Gradient---
	 C          -0.0007184880        3.1217439148       -0.0010949081
	 H          -0.0005477447        5.1917502156       -0.0010949106
	 H           0.9744820498        2.4207742972       -1.6902718518
	 H           0.9744820518        2.4207742950        1.6880820353
	 H          -1.9513185652        2.4210187845       -0.0010949099
	             0.0000113624        0.0006817220       -0.0000005860
	             0.0000000960       -0.0009372853        0.0000004316
	            -0.0001286720       -0.0005573487        0.0002243094
	            -0.0001279696       -0.0005580997       -0.0002237841
	             0.0002450686       -0.0005611457       -0.0000003457

	---Fragment 1 Intrafragment Coordinates---
	 - Coordinate -           - BOHR/RAD -       - ANG/DEG -
	 R(1,2)           =         2.070006	       1.095400
	 R(1,3)           =         2.072605	       1.096776
	 R(1,4)           =         2.072605	       1.096776
	 R(1,5)           =         2.072645	       1.096796
	 B(2,1,3)         =         1.915766	     109.765308
	 B(2,1,4)         =         1.915766	     109.765308
	 B(2,1,5)         =         1.915758	     109.764825
	 B(3,1,4)         =         1.905464	     109.175060
	 B(3,1,5)         =         1.905481	     109.176023
	 B(4,1,5)         =         1.905481	     109.176023

	---Fragment 2 Intrafragment Coordinates---
	 - Coordinate -           - BOHR/RAD -       - ANG/DEG -
	 R(6,7)           =         2.070006	       1.095400
	 R(6,8)           =         2.072605	       1.096776
	 R(6,9)           =         2.072605	       1.096776
	 R(6,10)          =         2.072645	       1.096796
	 B(7,6,8)         =         1.915766	     109.765308
	 B(7,6,9)         =         1.915766	     109.765308
	 B(7,6,10)        =         1.915758	     109.764825
	 B(8,6,9)         =         1.905464	     109.175060
	 B(8,6,10)        =         1.905481	     109.176023
	 B(9,6,10)        =         1.905481	     109.176023

	---Interfragment Coordinates Between Fragments 1 and 2---
	 * Reference Points *
		 1 A3 : 4/1.000
		 2 A2 : 3/1.000
		 3 A1 : 2/0.250 3/0.250 4/0.250 5/0.250
		 4 B1 : 7/0.250 8/0.250 9/0.250 10/0.250
		 5 B2 : 9/1.000
		 6 B3 : 8/1.000
	 - Coordinate -           - BOHR/RAD -       - ANG/DEG -
	 R(3,4)           =         6.227159	       3.295271
	 B(2,3,4)         =         1.229077	      70.420922
	 B(3,4,5)         =         1.229077	      70.420922
	 D(2,3,4,5)       =         3.141593	     180.000000
	 D(1,2,3,4)       =        -1.045365	     -59.895002
	 D(3,4,5,6)       =         1.045365	      59.895002

	Current energy   :       -80.7427016356

	Energy change for the previous step:
		Projected    :        -0.0013718765
		Actual       :        -0.0006379621

	Performing BFGS update.
	Previous computed or guess Hessian on step 1.
	Change in internal coordinate of 7.16e-01 exceeds limit of 5.00e-01.
	 Skipping Hessian update for step 1.
	Steps to be used in Hessian update: 2
	Taking RFO optimization step.
	Going to follow RFO solution 1.
	Using RFO vector 1.
	Norm of target step-size    0.24050
	Projected energy change by RFO approximation:         0.0000665942

	Back-transformation to cartesian coordinates...
	Successfully converged to displaced geometry.

	--- Internal Coordinate Step in ANG or DEG, aJ/ANG or AJ/DEG ---
	 ---------------------------------------------------------------------------
	   Coordinate                Previous        Force       Change         New 
	   ----------                --------       ------       ------       ------
	    1 R(1,2)          =      1.095400     0.003745     0.001647     1.097047
	    2 R(1,3)          =      1.096776     0.001790     0.000261     1.097037
	    3 R(1,4)          =      1.096776     0.001797     0.000264     1.097039
	    4 R(1,5)          =      1.096796     0.001681     0.000239     1.097036
	    5 B(2,1,3)        =    109.765308    -0.000012    -0.247355   109.517953
	    6 B(2,1,4)        =    109.765308    -0.000012    -0.247955   109.517353
	    7 B(2,1,5)        =    109.764825    -0.000012    -0.246741   109.518084
	    8 B(3,1,4)        =    109.175060     0.000012     0.249425   109.424485
	    9 B(3,1,5)        =    109.176023     0.000012     0.248261   109.424284
	   10 B(4,1,5)        =    109.176023     0.000012     0.249023   109.425045
	 ---------------------------------------------------------------------------

	Back-transformation to cartesian coordinates...
	Successfully converged to displaced geometry.

	--- Internal Coordinate Step in ANG or DEG, aJ/ANG or AJ/DEG ---
	 ---------------------------------------------------------------------------
	   Coordinate                Previous        Force       Change         New 
	   ----------                --------       ------       ------       ------
	    1 R(6,7)          =      1.095400     0.003745     0.001647     1.097047
	    2 R(6,8)          =      1.096776     0.001797     0.000264     1.097039
	    3 R(6,9)          =      1.096776     0.001789     0.000261     1.097037
	    4 R(6,10)         =      1.096796     0.001681     0.000239     1.097036
	    5 B(7,6,8)        =    109.765308    -0.000012    -0.247955   109.517353
	    6 B(7,6,9)        =    109.765308    -0.000012    -0.247356   109.517952
	    7 B(7,6,10)       =    109.764825    -0.000012    -0.246741   109.518083
	    8 B(8,6,9)        =    109.175060     0.000012     0.249425   109.424485
	    9 B(8,6,10)       =    109.176023     0.000012     0.249023   109.425046
	   10 B(9,6,10)       =    109.176023     0.000012     0.248261   109.424283
	 ---------------------------------------------------------------------------
	---Interfragment coordinates between fragments 1 and 2
	---Internal Coordinate Step in ANG or DEG, aJ/ANG or AJ/DEG ---
	 ----------------------------------------------------------------------
	 Coordinate             Previous        Force       Change         New 
	 ----------             --------       ------       ------       ------
	R_AB                     3.29675      0.01592      0.12698      3.42373
[...]

*** tstop() called on mac9721 at Fri Jul  1 21:45:54 2016
Module time:
	user time   =       3.26 seconds =       0.05 minutes
	system time =       0.18 seconds =       0.00 minutes
	total time  =          4 seconds =       0.07 minutes
Total time:
	user time   =     121.17 seconds =       2.02 minutes
	system time =       5.31 seconds =       0.09 minutes
	total time  =        117 seconds =       1.95 minutes


Properties will be evaluated at   0.000000,   0.000000,   0.000000 Bohr

Properties computed using the SCF density matrix

  Nuclear Dipole Moment: (a.u.)
     X:    -0.0000      Y:     0.0000      Z:    -0.0000

  Electronic Dipole Moment: (a.u.)
     X:     0.0000      Y:    -0.0000      Z:     0.0000

  Dipole Moment: (a.u.)
     X:     0.0000      Y:     0.0000      Z:     0.0000     Total:     0.0000

  Dipole Moment: (Debye)
     X:     0.0000      Y:     0.0000      Z:     0.0000     Total:     0.0000


  //>>>>>>>>>>>>>>>>>>>>>>>>>>>>>>>>>>>//
  //               DFMP2               //
  //<<<<<<<<<<<<<<<<<<<<<<<<<<<<<<<<<<<//


*** tstart() called on mac9721
*** at Fri Jul  1 21:45:54 2016


*** tstop() called on mac9721 at Fri Jul  1 21:45:54 2016
Module time:
	user time   =       0.17 seconds =       0.00 minutes
	system time =       0.00 seconds =       0.00 minutes
	total time  =          0 seconds =       0.00 minutes
Total time:
	user time   =     121.36 seconds =       2.02 minutes
	system time =       5.32 seconds =       0.09 minutes
	total time  =        117 seconds =       1.95 minutes
	 --------------------------------------------------------
	                          DF-MP2                         
	      2nd-Order Density-Fitted Moller-Plesset Theory     
	              RMP2 Wavefunction,   1 Threads             
	                                                         
	        Rob Parrish, Justin Turney, Andy Simmonett,      
	           Ed Hohenstein, and C. David Sherrill          
	 --------------------------------------------------------

   => Auxiliary Basis Set <=

  Basis Set: 
    Number of shells: 116
    Number of basis function: 328
    Number of Cartesian functions: 372
    Spherical Harmonics?: true
    Max angular momentum: 3

	 --------------------------------------------------------
	                 NBF =   118, NAUX =   328
	 --------------------------------------------------------
	   CLASS    FOCC     OCC    AOCC    AVIR     VIR    FVIR
	   PAIRS       0      10      10     108     108       0
	 --------------------------------------------------------

DGAS Warning! /src/lib/libfock/apps.cc:80 is not currently checking restricted

         ------------------------------------------------------------
                                     CPHF                           
                                  Rob Parrish                       
         ------------------------------------------------------------

  ==> Geometry <==

    Molecular point group: c1
    Full point group: C1

    Geometry (in Angstrom), charge = 0, multiplicity = 1:

       Center              X                  Y                   Z               Mass       
    ------------   -----------------  -----------------  -----------------  -----------------
           C         -0.011714217307    -1.783139646989     0.006441243039    12.000000000000
           H         -0.011787671578    -2.880077325811     0.006426306806     1.007825032070
           H         -0.528681823657    -1.416471233600    -0.889025272921     1.007825032070
           H         -0.528669514142    -1.416453544731     0.901899677347     1.007825032070
           H          1.022316431362    -1.416608825616     0.006447861423     1.007825032070
           C          0.011714217361     1.783139646694    -0.006441242864    12.000000000000
           H          0.011787448547     2.880077325686    -0.006426671312     1.007825032070
           H          0.528669563650     1.416453355399    -0.901899570913     1.007825032070
           H          0.528681922115     1.416471633536     0.889025378162     1.007825032070
           H         -1.022316356942     1.416608618642    -0.006447710684     1.007825032070

  Nuclear repulsion =   41.382792876812275
  Reference energy  =  -80.398313413872557

  ==> Basis Set <==

  Basis Set: AUG-CC-PVDZ
    Number of shells: 58
    Number of basis function: 118
    Number of Cartesian functions: 122
    Spherical Harmonics?: true
    Max angular momentum: 2

  ==> CGRSolver (by Rob Parrish) <==

   Number of roots    =         1
   Preconditioning    =    JACOBI
   Convergence cutoff =     1E-06
   Maximum iterations =       100

  ==> CPHFRHamiltonian (by Rob Parrish) <== 

  ==> DFJK: Density-Fitted J/K Matrices <==

    J tasked:                  Yes
    K tasked:                  Yes
    wK tasked:                  No
    OpenMP threads:              1
    Integrals threads:           1
    Memory (MB):               715
    Algorithm:                Core
    Integral Cache:           NONE
    Schwarz Cutoff:          1E-12
    Fitting Condition:       1E-12

   => Auxiliary Basis Set <=

  Basis Set: 
    Number of shells: 152
    Number of basis function: 428
    Number of Cartesian functions: 482
    Spherical Harmonics?: true
    Max angular momentum: 3

  ==> CPHF Iterations <==

  => Iterations <=

             Iter  Converged  Remaining    Residual
  CGR           1          0          1   7.441E-02
  CGR           2          0          1   1.286E-02
  CGR           3          0          1   1.096E-03
  CGR           4          0          1   6.649E-05
  CGR           5          0          1   1.019E-05
  CGR           6          0          1   1.618E-06
  CGR           7          1          0   1.810E-07

    CGRSolver converged.

  ==> DFCorrGrad: Density-Fitted Correlated Gradients <==

    OpenMP threads:              1
    Integrals threads:           1
    Memory (MB):               715
    Schwarz Cutoff:          0E+00
    Fitting Condition:       1E-12

   => Auxiliary Basis Set <=

  Basis Set: 
    Number of shells: 152
    Number of basis function: 428
    Number of Cartesian functions: 482
    Spherical Harmonics?: true
    Max angular momentum: 3

	-----------------------------------------------------------
	 ==================> DF-MP2 Energies <==================== 
	-----------------------------------------------------------
	 Reference Energy          =     -80.3983134138725575 [Eh]
	 Singles Energy            =      -0.0000000000000000 [Eh]
	 Same-Spin Energy          =      -0.0665643407346248 [Eh]
	 Opposite-Spin Energy      =      -0.2782387389604545 [Eh]
	 Correlation Energy        =      -0.3448030796950794 [Eh]
	 Total Energy              =     -80.7431164935676406 [Eh]
	-----------------------------------------------------------
	 ================> DF-SCS-MP2 Energies <================== 
	-----------------------------------------------------------
	 SCS Same-Spin Scale       =       0.3333333333333333 [-]
	 SCS Opposite-Spin Scale   =       1.2000000000000000 [-]
	 SCS Same-Spin Energy      =      -0.0221881135782083 [Eh]
	 SCS Opposite-Spin Energy  =      -0.3338864867525455 [Eh]
	 SCS Correlation Energy    =      -0.3560746003307537 [Eh]
	 SCS Total Energy          =     -80.7543880142033146 [Eh]
	-----------------------------------------------------------


  -Total Gradient:
     Atom            X                  Y                   Z
    ------   -----------------  -----------------  -----------------
       1       -0.000014566104     0.000001505767     0.000009478021
       2        0.000007897153     0.000000216391    -0.000005202935
       3       -0.000004270831     0.000000675588     0.000003538793
       4        0.000003120980     0.000001130118    -0.000008914909
       5        0.000003264695     0.000001180851     0.000003714317
       6        0.000014566620    -0.000001506784    -0.000009476549
       7       -0.000007897500    -0.000000217257     0.000005202322
       8       -0.000003121202    -0.000001129607     0.000008915585
       9        0.000004269722    -0.000000674762    -0.000003540544
      10       -0.000003263534    -0.000001180306    -0.000003714101


			-----------------------------------------
			 OPTKING 2.0: for geometry optimizations 
			  - R.A. King,  Bethel University        
			-----------------------------------------

	Previous internal coordinate definitions found.
	---Fragment 1 Geometry and Gradient---
	 C          -0.0221366626       -3.3696455895        0.0121721853
	 H          -0.0222754710       -5.4425573873        0.0121439599
	 H          -0.9990638581       -2.6767427066       -1.6800142910
	 H          -0.9990405965       -2.6767092795        1.7043433895
	 H           1.9318980764       -2.6770027178        0.0121846922
	            -0.0000145661        0.0000015058        0.0000094780
	             0.0000078972        0.0000002164       -0.0000052029
	            -0.0000042708        0.0000006756        0.0000035388
	             0.0000031210        0.0000011301       -0.0000089149
	             0.0000032647        0.0000011809        0.0000037143

	---Fragment 2 Geometry and Gradient---
	 C           0.0221366627        3.3696455889       -0.0121721850
	 H           0.0222750496        5.4425573871       -0.0121446487
	 H           0.9990406901        2.6767089217       -1.7043431884
	 H           0.9990640442        2.6767434624        1.6800144899
	 H          -1.9318979358        2.6770023267       -0.0121844074
	             0.0000145666       -0.0000015068       -0.0000094765
	            -0.0000078975       -0.0000002173        0.0000052023
	            -0.0000031212       -0.0000011296        0.0000089156
	             0.0000042697       -0.0000006748       -0.0000035405
	            -0.0000032635       -0.0000011803       -0.0000037141

	---Fragment 1 Intrafragment Coordinates---
	 - Coordinate -           - BOHR/RAD -       - ANG/DEG -
	 R(1,2)           =         2.072912	       1.096938
	 R(1,3)           =         2.073161	       1.097070
	 R(1,4)           =         2.073149	       1.097063
	 R(1,5)           =         2.073163	       1.097071
	 B(2,1,3)         =         1.911534	     109.522843
	 B(2,1,4)         =         1.911577	     109.525295
	 B(2,1,5)         =         1.911513	     109.521627
	 B(3,1,4)         =         1.909723	     109.419064
	 B(3,1,5)         =         1.909737	     109.419897
	 B(4,1,5)         =         1.909712	     109.418448

	---Fragment 2 Intrafragment Coordinates---
	 - Coordinate -           - BOHR/RAD -       - ANG/DEG -
	 R(6,7)           =         2.072912	       1.096938
	 R(6,8)           =         2.073149	       1.097063
	 R(6,9)           =         2.073161	       1.097070
	 R(6,10)          =         2.073163	       1.097071
	 B(7,6,8)         =         1.911577	     109.525295
	 B(7,6,9)         =         1.911534	     109.522843
	 B(7,6,10)        =         1.911513	     109.521627
	 B(8,6,9)         =         1.909723	     109.419064
	 B(8,6,10)        =         1.909712	     109.418448
	 B(9,6,10)        =         1.909737	     109.419897

	---Interfragment Coordinates Between Fragments 1 and 2---
	 * Reference Points *
		 1 A3 : 4/1.000
		 2 A2 : 3/1.000
		 3 A1 : 2/0.250 3/0.250 4/0.250 5/0.250
		 4 B1 : 7/0.250 8/0.250 9/0.250 10/0.250
		 5 B2 : 9/1.000
		 6 B3 : 8/1.000
	 - Coordinate -           - BOHR/RAD -       - ANG/DEG -
	 R(3,4)           =         6.736695	       3.564906
	 B(2,3,4)         =         1.230812	      70.520358
	 B(3,4,5)         =         1.230813	      70.520380
	 D(2,3,4,5)       =         3.141593	     180.000000
	 D(1,2,3,4)       =        -1.054726	     -60.431325
	 D(3,4,5,6)       =         1.054726	      60.431326

	Current energy   :       -80.7431164936

	Energy change for the previous step:
		Projected    :        -0.0000041768
		Actual       :        -0.0000004617
	Energy ratio indicates iffy step: Trust radius decreased to 3.125e-02.


	Performing BFGS update.
	Previous computed or guess Hessian on step 1.
	Steps to be used in Hessian update: 7 6
	Taking RFO optimization step.
	Going to follow RFO solution 1.
	Using RFO vector 1.
	Norm of target step-size    0.01114
	Projected energy change by RFO approximation:        -0.0000002848

	Back-transformation to cartesian coordinates...
	Successfully converged to displaced geometry.

	--- Internal Coordinate Step in ANG or DEG, aJ/ANG or AJ/DEG ---
	 ---------------------------------------------------------------------------
	   Coordinate                Previous        Force       Change         New 
	   ----------                --------       ------       ------       ------
	    1 R(1,2)          =      1.096938    -0.000027    -0.000001     1.096937
	    2 R(1,3)          =      1.097070     0.000009     0.000001     1.097071
	    3 R(1,4)          =      1.097063     0.000076     0.000007     1.097070
	    4 R(1,5)          =      1.097071    -0.000010    -0.000000     1.097071
	    5 B(2,1,3)        =    109.522843     0.000000    -0.000168   109.522675
	    6 B(2,1,4)        =    109.525295    -0.000001    -0.002510   109.522784
	    7 B(2,1,5)        =    109.521627     0.000001     0.001199   109.522826
	    8 B(3,1,4)        =    109.419064     0.000000     0.000586   109.419650
	    9 B(3,1,5)        =    109.419897    -0.000000    -0.000264   109.419633
	   10 B(4,1,5)        =    109.418448     0.000000     0.001160   109.419608
	 ---------------------------------------------------------------------------

	Back-transformation to cartesian coordinates...
	Successfully converged to displaced geometry.

	--- Internal Coordinate Step in ANG or DEG, aJ/ANG or AJ/DEG ---
	 ---------------------------------------------------------------------------
	   Coordinate                Previous        Force       Change         New 
	   ----------                --------       ------       ------       ------
	    1 R(6,7)          =      1.096938    -0.000027    -0.000001     1.096937
	    2 R(6,8)          =      1.097063     0.000076     0.000007     1.097070
	    3 R(6,9)          =      1.097070     0.000009     0.000001     1.097071
	    4 R(6,10)         =      1.097071    -0.000010    -0.000000     1.097071
	    5 B(7,6,8)        =    109.525295    -0.000001    -0.002510   109.522784
	    6 B(7,6,9)        =    109.522843     0.000000    -0.000168   109.522675
	    7 B(7,6,10)       =    109.521627     0.000001     0.001199   109.522826
	    8 B(8,6,9)        =    109.419064     0.000000     0.000586   109.419650
	    9 B(8,6,10)       =    109.418448     0.000000     0.001160   109.419608
	   10 B(9,6,10)       =    109.419897    -0.000000    -0.000263   109.419633
	 ---------------------------------------------------------------------------
	---Interfragment coordinates between fragments 1 and 2
	---Internal Coordinate Step in ANG or DEG, aJ/ANG or AJ/DEG ---
	 ----------------------------------------------------------------------
	 Coordinate             Previous        Force       Change         New 
	 ----------             --------       ------       ------       ------
	R_AB                     3.56491      0.00004      0.00097      3.56588
	theta_A                 70.52035     -0.00000     -0.00074     70.51961
	theta_B                 70.52037     -0.00000     -0.00077     70.51961
	tau                    180.00000      0.00000      0.00000    180.00000
	phi_A                  -60.43196      0.00000      0.44513    -59.98683
	phi_B                   60.43196     -0.00000     -0.44513     59.98683
	 ----------------------------------------------------------------------
	Difference from target, |x_target - x_achieved| = 7.80e-08
	Successfully symmetrized geometry.

  ==> Convergence Check <==

  Measures of convergence in internal coordinates in au.
  Criteria marked as inactive (o), active & met (*), and active & unmet ( ).
  ---------------------------------------------------------------------------------------------
   Step     Total Energy     Delta E     MAX Force     RMS Force      MAX Disp      RMS Disp   
  ---------------------------------------------------------------------------------------------
    Convergence Criteria    1.00e-06 *    3.00e-04 *             o    1.20e-03 *             o
  ---------------------------------------------------------------------------------------------
      8     -80.74311649   -4.62e-07 *    1.68e-05 *    7.14e-06 o    7.77e-03      2.18e-03 o  ~
  ---------------------------------------------------------------------------------------------


  **** Optimization is complete! (in 8 steps) ****

  ==> Optimization Summary <==

  Measures of convergence in internal coordinates in au.
  --------------------------------------------------------------------------------------------------------------- ~
   Step         Total Energy             Delta E       MAX Force       RMS Force        MAX Disp        RMS Disp  ~
  --------------------------------------------------------------------------------------------------------------- ~
      1     -80.738285242938    -80.738285242938      0.01167376      0.00371853      0.49752047      0.09806122  ~
      2     -80.742063673542     -0.003778430605      0.00358891      0.00087035      0.22119111      0.04356042  ~
      3     -80.742701635644     -0.000637962102      0.00193216      0.00042669      0.23995405      0.04716583  ~
      4     -80.743021613446     -0.000319977802      0.00078251      0.00019330      0.11952209      0.02348242  ~
      5     -80.743089310482     -0.000067697037      0.00038021      0.00012898      0.08309311      0.01654509  ~
      6     -80.743111398373     -0.000022087891      0.00015365      0.00006074      0.04900733      0.01085071  ~
      7     -80.743116031848     -0.000004633474      0.00003835      0.00001821      0.01882587      0.00601787  ~
      8     -80.743116493568     -0.000000461720      0.00001678      0.00000714      0.00776901      0.00218455  ~
  --------------------------------------------------------------------------------------------------------------- ~

	Writing optimization data to binary file.
	Final energy is    -80.7431164935676
	Final (previous) structure:
	Cartesian Geometry (in Angstrom)
	    C    -0.0117142173  -1.7831396470   0.0064412430
	    H    -0.0117876716  -2.8800773258   0.0064263068
	    H    -0.5286818237  -1.4164712336  -0.8890252729
	    H    -0.5286695141  -1.4164535447   0.9018996773
	    H     1.0223164314  -1.4166088256   0.0064478614
	    C     0.0117142174   1.7831396467  -0.0064412429
	    H     0.0117874485   2.8800773257  -0.0064266713
	    H     0.5286695637   1.4164533554  -0.9018995709
	    H     0.5286819221   1.4164716335   0.8890253782
	    H    -1.0223163569   1.4166086186  -0.0064477107
	Saving final (previous) structure.
			--------------------------
			 OPTKING Finished Execution 
			--------------------------

    Final optimized geometry and variables:
    Molecular point group: c1
    Full point group: C1

    Geometry (in Angstrom), charge = 0, multiplicity = 1:

    C           -0.011714217307    -1.783139646989     0.006441243039
    H           -0.011787671578    -2.880077325811     0.006426306806
    H           -0.528681823657    -1.416471233600    -0.889025272921
    H           -0.528669514142    -1.416453544731     0.901899677347
    H            1.022316431362    -1.416608825616     0.006447861423
    C            0.011714217361     1.783139646694    -0.006441242864
    H            0.011787448547     2.880077325686    -0.006426671312
    H            0.528669563650     1.416453355399    -0.901899570913
    H            0.528681922115     1.416471633536     0.889025378162
    H           -1.022316356942     1.416608618642    -0.006447710684

	Cleaning optimization helper files.
	aug-cc-pVDZ MP2 CH4 Dimer Energy..................................PASSED

*** Psi4 exiting successfully. Buy a developer a beer!
