
    -----------------------------------------------------------------------
          Psi4: An Open-Source Ab Initio Electronic Structure Package
                               Psi4 1.1rc3.dev5 

                         Git: Rev {master} 3fbd859


    R. M. Parrish, L. A. Burns, D. G. A. Smith, A. C. Simmonett,
    A. E. DePrince III, E. G. Hohenstein, U. Bozkaya, A. Yu. Sokolov,
    R. Di Remigio, R. M. Richard, J. F. Gonthier, A. M. James,
    H. R. McAlexander, A. Kumar, M. Saitow, X. Wang, B. P. Pritchard,
    P. Verma, H. F. Schaefer III, K. Patkowski, R. A. King, E. F. Valeev,
    F. A. Evangelista, J. M. Turney, T. D. Crawford, and C. D. Sherrill,
    J. Chem. Theory Comput. in press (2017).
    (doi: 10.1021/acs.jctc.7b00174)

    -----------------------------------------------------------------------


    Psi4 started on: Monday, 15 May 2017 04:07PM

    Process ID:  25246
    PSIDATADIR: /home/psilocaluser/gits/hrw-direct/objdir4/stage/usr/local/psi4/share/psi4
    Memory:     500.0 MiB
    Threads:    1
    
  ==> Input File <==

--------------------------------------------------------------------------
#! Multi-fragment opt of C2h methane dimer with user-combined reference points.
OPT_ENERGY = -80.7431166  #TEST

memory 1 gb

molecule mol {
   units Angstrom
   0 1
   C          0.00000    -1.459161     0.000000
   H          0.00000    -2.548284     0.000000
   H         -0.51306    -1.094685    -0.888551
   H         -0.51306    -1.094685     0.888551
   H          1.02634    -1.094868     0.000000
   --
   0 1
   C          0.00000     1.459161     0.000000
   H          0.00000     2.548284     0.000000
   H          0.51306     1.094685    -0.888551
   H          0.51306     1.094685     0.888551
   H         -1.02634     1.094868     0.000000
  symmetry c1
}

set basis aug-cc-pVDZ

set optking {
  frag_mode multi
  frag_ref_atoms = [
    [ [2,3,4,5],  [3], [4]],
    [ [7,8,9,10], [9], [8]]
  ]
}

thisenergy = optimize('mp2')
compare_values(OPT_ENERGY, thisenergy, 6, "aug-cc-pVDZ MP2 CH4 Dimer Energy")  #TEST

--------------------------------------------------------------------------

  Memory set to 953.674 MiB by Python driver.
gradient() will perform analytic gradient computation.

*** tstart() called on psinet
*** at Mon May 15 16:07:42 2017

    SCF Algorithm Type (re)set to DF.

*** tstart() called on psinet
*** at Mon May 15 16:07:42 2017

   => Loading Basis Set <=

    Name: AUG-CC-PVDZ
    Role: ORBITAL
    Keyword: BASIS
    atoms 1, 6      entry C          line   171 file /home/psilocaluser/gits/hrw-direct/objdir4/stage/usr/local/psi4/share/psi4/basis/aug-cc-pvdz.gbs 
    atoms 2-5, 7-10 entry H          line    35 file /home/psilocaluser/gits/hrw-direct/objdir4/stage/usr/local/psi4/share/psi4/basis/aug-cc-pvdz.gbs 


         ---------------------------------------------------------
                                   SCF
            by Justin Turney, Rob Parrish, and Andy Simmonett
                              RHF Reference
                        1 Threads,    953 MiB Core
         ---------------------------------------------------------

  ==> Geometry <==

    Molecular point group: c1
    Full point group: C2h

    Geometry (in Angstrom), charge = 0, multiplicity = 1:

       Center              X                  Y                   Z               Mass       
    ------------   -----------------  -----------------  -----------------  -----------------
           C          0.000000000000    -1.459161000000    -0.000000000000    12.000000000000
           H          0.000000000000    -2.548284000000    -0.000000000000     1.007825032070
           H         -0.513060000000    -1.094685000000    -0.888551000000     1.007825032070
           H         -0.513060000000    -1.094685000000     0.888551000000     1.007825032070
           H          1.026340000000    -1.094868000000    -0.000000000000     1.007825032070
           C          0.000000000000     1.459161000000    -0.000000000000    12.000000000000
           H          0.000000000000     2.548284000000    -0.000000000000     1.007825032070
           H          0.513060000000     1.094685000000    -0.888551000000     1.007825032070
           H          0.513060000000     1.094685000000     0.888551000000     1.007825032070
           H         -1.026340000000     1.094868000000    -0.000000000000     1.007825032070

  Running in c1 symmetry.

  Rotational constants: A =      2.64757  B =      0.22592  C =      0.22591 [cm^-1]
  Rotational constants: A =  79372.27678  B =   6772.82565  C =   6772.68127 [MHz]
  Nuclear repulsion =   44.714847319556213

  Charge       = 0
  Multiplicity = 1
  Electrons    = 20
  Nalpha       = 10
  Nbeta        = 10

  ==> Algorithm <==

  SCF Algorithm Type is DF.
  DIIS enabled.
  MOM disabled.
  Fractional occupation disabled.
  Guess Type is SAD.
  Energy threshold   = 1.00e-10
  Density threshold  = 1.00e-10
  Integral threshold = 0.00e+00

  ==> Primary Basis <==

  Basis Set: AUG-CC-PVDZ
    Blend: AUG-CC-PVDZ
    Number of shells: 58
    Number of basis function: 118
    Number of Cartesian functions: 122
    Spherical Harmonics?: true
    Max angular momentum: 2

   => Loading Basis Set <=

    Name: (AUG-CC-PVDZ AUX)
    Role: JKFIT
    Keyword: DF_BASIS_SCF
    atoms 1, 6      entry C          line   153 file /home/psilocaluser/gits/hrw-direct/objdir4/stage/usr/local/psi4/share/psi4/basis/aug-cc-pvdz-jkfit.gbs 
    atoms 2-5, 7-10 entry H          line    69 file /home/psilocaluser/gits/hrw-direct/objdir4/stage/usr/local/psi4/share/psi4/basis/aug-cc-pvdz-jkfit.gbs 

  ==> Pre-Iterations <==

   -------------------------------------------------------
    Irrep   Nso     Nmo     Nalpha   Nbeta   Ndocc  Nsocc
   -------------------------------------------------------
     A        118     118       0       0       0       0
   -------------------------------------------------------
    Total     118     118      10      10      10       0
   -------------------------------------------------------

  ==> Integral Setup <==

  ==> DFJK: Density-Fitted J/K Matrices <==

    J tasked:                  Yes
    K tasked:                  Yes
    wK tasked:                  No
    OpenMP threads:              1
    Integrals threads:           1
    Memory (MB):               715
    Algorithm:                Core
    Integral Cache:           NONE
    Schwarz Cutoff:          1E-12
    Fitting Condition:       1E-12

   => Auxiliary Basis Set <=

  Basis Set: (AUG-CC-PVDZ AUX)
    Blend: AUG-CC-PVDZ-JKFIT
    Number of shells: 152
    Number of basis function: 428
    Number of Cartesian functions: 482
    Spherical Harmonics?: true
    Max angular momentum: 3

  Minimum eigenvalue in the overlap matrix is 2.7724636129E-04.
  Using Symmetric Orthogonalization.

  SCF Guess: Superposition of Atomic Densities via on-the-fly atomic UHF.

  ==> Iterations <==

                           Total Energy        Delta E     RMS |[F,P]|

   @DF-RHF iter   0:   -80.70735636935584   -8.07074e+01   2.21546e-02 
   @DF-RHF iter   1:   -80.33876521027017    3.68591e-01   2.12649e-03 
   @DF-RHF iter   2:   -80.38565899889593   -4.68938e-02   6.02002e-04 DIIS
   @DF-RHF iter   3:   -80.39029671483281   -4.63772e-03   2.15521e-04 DIIS
   @DF-RHF iter   4:   -80.39091521411754   -6.18499e-04   4.46202e-05 DIIS
   @DF-RHF iter   5:   -80.39094606483448   -3.08507e-05   8.13365e-06 DIIS
   @DF-RHF iter   6:   -80.39094739932727   -1.33449e-06   1.34336e-06 DIIS
   @DF-RHF iter   7:   -80.39094743453771   -3.52104e-08   2.24385e-07 DIIS
   @DF-RHF iter   8:   -80.39094743549204   -9.54330e-10   5.05812e-08 DIIS
   @DF-RHF iter   9:   -80.39094743554563   -5.35891e-11   8.10642e-09 DIIS
   @DF-RHF iter  10:   -80.39094743554679   -1.16529e-12   7.38814e-10 DIIS
   @DF-RHF iter  11:   -80.39094743554705   -2.55795e-13   1.36071e-10 DIIS
   @DF-RHF iter  12:   -80.39094743554702    2.84217e-14   2.02214e-11 DIIS

  ==> Post-Iterations <==

    Orbital Energies (a.u.)
    -----------------------

    Doubly Occupied:                                                      

       1A    -11.211451     2A    -11.211443     3A     -0.956170  
       4A     -0.929737     5A     -0.565085     6A     -0.556757  
       7A     -0.556743     8A     -0.528720     9A     -0.528708  
      10A     -0.517771  

    Virtual:                                                              

      11A      0.035677    12A      0.045915    13A      0.058865  
      14A      0.058867    15A      0.069533    16A      0.084389  
      17A      0.084392    18A      0.101939    19A      0.130531  
      20A      0.130535    21A      0.168946    22A      0.171393  
      23A      0.171397    24A      0.175015    25A      0.202295  
      26A      0.247129    27A      0.277865    28A      0.277883  
      29A      0.293216    30A      0.293234    31A      0.312247  
      32A      0.345426    33A      0.345447    34A      0.401050  
      35A      0.401053    36A      0.405469    37A      0.418846  
      38A      0.445180    39A      0.445182    40A      0.447519  
      41A      0.472973    42A      0.472995    43A      0.483423  
      44A      0.503501    45A      0.558089    46A      0.558096  
      47A      0.583120    48A      0.586583    49A      0.586600  
      50A      0.588377    51A      0.591058    52A      0.602468  
      53A      0.624205    54A      0.659451    55A      0.659484  
      56A      0.697659    57A      0.697710    58A      0.720661  
      59A      0.720727    60A      0.739448    61A      0.739462  
      62A      0.748058    63A      0.754137    64A      0.777830  
      65A      0.777839    66A      0.796647    67A      0.854407  
      68A      0.854479    69A      1.017901    70A      1.017993  
      71A      1.068648    72A      1.159590    73A      1.165581  
      74A      1.165609    75A      1.167820    76A      1.359580  
      77A      1.359649    78A      1.374807    79A      1.418586  
      80A      1.418637    81A      1.652414    82A      1.674486  
      83A      1.680654    84A      1.680727    85A      1.862429  
      86A      1.862456    87A      1.892342    88A      1.905383  
      89A      1.921527    90A      1.921550    91A      1.992842  
      92A      1.992858    93A      2.023322    94A      2.071287  
      95A      2.221033    96A      2.221217    97A      2.263374  
      98A      2.274833    99A      2.275040   100A      2.288325  
     101A      2.288355   102A      2.291770   103A      2.369796  
     104A      2.369821   105A      2.422859   106A      2.525339  
     107A      2.637559   108A      2.637685   109A      2.710107  
     110A      2.710305   111A      2.838486   112A      2.869512  
     113A      2.957152   114A      2.957514   115A      2.964592  
     116A      2.964913   117A      2.989206   118A      3.136446  

    Final Occupation by Irrep:
              A 
    DOCC [    10 ]

  Energy converged.

  @DF-RHF Final Energy:   -80.39094743554702

   => Energetics <=

    Nuclear Repulsion Energy =             44.7148473195562133
    One-Electron Energy =                -195.0864216585140127
    Two-Electron Energy =                  69.9806269034107800
    DFT Exchange-Correlation Energy =       0.0000000000000000
    Empirical Dispersion Energy =           0.0000000000000000
    PCM Polarization Energy =               0.0000000000000000
    EFP Energy =                            0.0000000000000000
    Total Energy =                        -80.3909474355470195



Properties will be evaluated at   0.000000,   0.000000,   0.000000 Bohr

Properties computed using the SCF density matrix

  Nuclear Dipole Moment: (a.u.)
     X:     0.0000      Y:    -0.0000      Z:    -0.0000

  Electronic Dipole Moment: (a.u.)
     X:     0.0000      Y:     0.0000      Z:    -0.0000

  Dipole Moment: (a.u.)
     X:     0.0000      Y:     0.0000      Z:    -0.0000     Total:     0.0000

  Dipole Moment: (Debye)
     X:     0.0000      Y:     0.0000      Z:    -0.0000     Total:     0.0000


*** tstop() called on psinet at Mon May 15 16:07:44 2017
Module time:
	user time   =       2.30 seconds =       0.04 minutes
	system time =       0.06 seconds =       0.00 minutes
	total time  =          2 seconds =       0.03 minutes
Total time:
	user time   =       2.30 seconds =       0.04 minutes
	system time =       0.06 seconds =       0.00 minutes
	total time  =          2 seconds =       0.03 minutes

  //>>>>>>>>>>>>>>>>>>>>>>>>>>>>>>>>>>>//
  //               DFMP2               //
  //<<<<<<<<<<<<<<<<<<<<<<<<<<<<<<<<<<<//

   => Loading Basis Set <=

    Name: (AUG-CC-PVDZ AUX)
    Role: RIFIT
    Keyword: DF_BASIS_MP2
    atoms 1, 6      entry C          line   111 file /home/psilocaluser/gits/hrw-direct/objdir4/stage/usr/local/psi4/share/psi4/basis/aug-cc-pvdz-ri.gbs 
    atoms 2-5, 7-10 entry H          line    29 file /home/psilocaluser/gits/hrw-direct/objdir4/stage/usr/local/psi4/share/psi4/basis/aug-cc-pvdz-ri.gbs 

	 --------------------------------------------------------
	                          DF-MP2                         
	      2nd-Order Density-Fitted Moller-Plesset Theory     
	              RMP2 Wavefunction,   1 Threads             
	                                                         
	        Rob Parrish, Justin Turney, Andy Simmonett,      
	           Ed Hohenstein, and C. David Sherrill          
	 --------------------------------------------------------

   => Auxiliary Basis Set <=

  Basis Set: (AUG-CC-PVDZ AUX)
    Blend: AUG-CC-PVDZ-RI
    Number of shells: 116
    Number of basis function: 328
    Number of Cartesian functions: 372
    Spherical Harmonics?: true
    Max angular momentum: 3

	 --------------------------------------------------------
	                 NBF =   118, NAUX =   328
	 --------------------------------------------------------
	   CLASS    FOCC     OCC    AOCC    AVIR     VIR    FVIR
	   PAIRS       0      10      10     108     108       0
	 --------------------------------------------------------


         ------------------------------------------------------------
                                     CPHF                           
                                  Rob Parrish                       
         ------------------------------------------------------------

  ==> Geometry <==

    Molecular point group: c1
    Full point group: C2h

    Geometry (in Angstrom), charge = 0, multiplicity = 1:

       Center              X                  Y                   Z               Mass       
    ------------   -----------------  -----------------  -----------------  -----------------
           C          0.000000000000    -1.459161000000    -0.000000000000    12.000000000000
           H          0.000000000000    -2.548284000000    -0.000000000000     1.007825032070
           H         -0.513060000000    -1.094685000000    -0.888551000000     1.007825032070
           H         -0.513060000000    -1.094685000000     0.888551000000     1.007825032070
           H          1.026340000000    -1.094868000000    -0.000000000000     1.007825032070
           C          0.000000000000     1.459161000000    -0.000000000000    12.000000000000
           H          0.000000000000     2.548284000000    -0.000000000000     1.007825032070
           H          0.513060000000     1.094685000000    -0.888551000000     1.007825032070
           H          0.513060000000     1.094685000000     0.888551000000     1.007825032070
           H         -1.026340000000     1.094868000000    -0.000000000000     1.007825032070

  Nuclear repulsion =   44.714847319556213
  Reference energy  =  -80.390947435547019

  ==> Basis Set <==

  Basis Set: AUG-CC-PVDZ
    Blend: AUG-CC-PVDZ
    Number of shells: 58
    Number of basis function: 118
    Number of Cartesian functions: 122
    Spherical Harmonics?: true
    Max angular momentum: 2

  ==> CGRSolver (by Rob Parrish) <==

   Number of roots    =         1
   Preconditioning    =    JACOBI
   Convergence cutoff =     1E-06
   Maximum iterations =       100

  ==> CPHFRHamiltonian (by Rob Parrish) <== 

  ==> DFJK: Density-Fitted J/K Matrices <==

    J tasked:                  Yes
    K tasked:                  Yes
    wK tasked:                  No
    OpenMP threads:              1
    Integrals threads:           1
    Memory (MB):               715
    Algorithm:                Core
    Integral Cache:           NONE
    Schwarz Cutoff:          1E-12
    Fitting Condition:       1E-12

   => Auxiliary Basis Set <=

  Basis Set: (AUG-CC-PVDZ AUX)
    Blend: AUG-CC-PVDZ-JKFIT
    Number of shells: 152
    Number of basis function: 428
    Number of Cartesian functions: 482
    Spherical Harmonics?: true
    Max angular momentum: 3

  ==> CPHF Iterations <==

  => Iterations <=

             Iter  Converged  Remaining    Residual
  CGR           1          0          1   7.034E-02
  CGR           2          0          1   1.260E-02
  CGR           3          0          1   1.174E-03
  CGR           4          0          1   1.324E-04
  CGR           5          0          1   1.954E-05
  CGR           6          0          1   2.382E-06
  CGR           7          1          0   3.053E-07

    CGRSolver converged.

  ==> DFCorrGrad: Density-Fitted Correlated Gradients <==

    OpenMP threads:              1
    Integrals threads:           1
    Memory (MB):               715
    Schwarz Cutoff:          0E+00
    Fitting Condition:       1E-12

   => Auxiliary Basis Set <=

  Basis Set: (AUG-CC-PVDZ AUX)
    Blend: AUG-CC-PVDZ-JKFIT
    Number of shells: 152
    Number of basis function: 428
    Number of Cartesian functions: 482
    Spherical Harmonics?: true
    Max angular momentum: 3

	-----------------------------------------------------------
	 ==================> DF-MP2 Energies <==================== 
	-----------------------------------------------------------
	 Reference Energy          =     -80.3909474355470195 [Eh]
	 Singles Energy            =      -0.0000000000000000 [Eh]
	 Same-Spin Energy          =      -0.0679090552896290 [Eh]
	 Opposite-Spin Energy      =      -0.2794287520619032 [Eh]
	 Correlation Energy        =      -0.3473378073515321 [Eh]
	 Total Energy              =     -80.7382852428985558 [Eh]
	-----------------------------------------------------------
	 ================> DF-SCS-MP2 Energies <================== 
	-----------------------------------------------------------
	 SCS Same-Spin Scale       =       0.3333333333333333 [-]
	 SCS Opposite-Spin Scale   =       1.2000000000000000 [-]
	 SCS Same-Spin Energy      =      -0.0226363517632097 [Eh]
	 SCS Opposite-Spin Energy  =      -0.3353145024742838 [Eh]
	 SCS Correlation Energy    =      -0.3579508542374935 [Eh]
	 SCS Total Energy          =     -80.7488982897845062 [Eh]
	-----------------------------------------------------------


  -Total Gradient:
     Atom            X                  Y                   Z
    ------   -----------------  -----------------  -----------------
       1       -0.000139008122     0.006758374028    -0.000000000384
       2        0.000012318362     0.006058341556     0.000000000211
       3        0.002256761417    -0.000392034090     0.003941075680
       4        0.002256761566    -0.000392034115    -0.003941075641
       5       -0.004387170829    -0.000358889649     0.000000000137
       6        0.000139009725    -0.006758374189    -0.000000000204
       7       -0.000012319273    -0.006058341325     0.000000000137
       8       -0.002256761771     0.000392034062     0.003941075452
       9       -0.002256761767     0.000392034071    -0.003941075405
      10        0.004387170693     0.000358889650     0.000000000018


*** tstop() called on psinet at Mon May 15 16:07:50 2017
Module time:
	user time   =       7.96 seconds =       0.13 minutes
	system time =       0.18 seconds =       0.00 minutes
	total time  =          8 seconds =       0.13 minutes
Total time:
	user time   =       7.96 seconds =       0.13 minutes
	system time =       0.18 seconds =       0.00 minutes
	total time  =          8 seconds =       0.13 minutes

			-----------------------------------------
			 OPTKING 2.0: for geometry optimizations 
			  - R.A. King,  Bethel University        
			-----------------------------------------

	Internal coordinates to be generated automatically.
	Detected frag 1 with atoms:  1 2 3 4 5
	Detected frag 2 with atoms:  6 7 8 9 10
	---Fragment 1 Bond Connectivity---
	 1 : 2 3 4 5
	 2 : 1
	 3 : 1
	 4 : 1
	 5 : 1

	---Fragment 2 Bond Connectivity---
	 6 : 7 8 9 10
	 7 : 6
	 8 : 6
	 9 : 6
	 10 : 6

	Using user-input to define reference atoms on each fragment.
	Checking interfragment coordinates for ones that break symmetry.
	Interfragment coordinate 1(1) is symmetric.
	Interfragment coordinate 1(2) is symmetric.
	Interfragment coordinate 1(3) is symmetric.
	Interfragment coordinate 1(4) is symmetric.
	Interfragment coordinate 1(5) is symmetric.
	Interfragment coordinate 1(6) is symmetric.
	---Fragment 1 Geometry and Gradient---
	 C           0.0000000000       -2.7574146738       -0.0000000000
	 H           0.0000000000       -4.8155588688       -0.0000000000
	 H          -0.9695428897       -2.0686548518       -1.6791180451
	 H          -0.9695428897       -2.0686548518        1.6791180451
	 H           1.9395015192       -2.0690006717       -0.0000000000
	            -0.0001390081        0.0067583740       -0.0000000004
	             0.0000123184        0.0060583416        0.0000000002
	             0.0022567614       -0.0003920341        0.0039410757
	             0.0022567616       -0.0003920341       -0.0039410756
	            -0.0043871708       -0.0003588896        0.0000000001

	---Fragment 2 Geometry and Gradient---
	 C           0.0000000000        2.7574146738       -0.0000000000
	 H           0.0000000000        4.8155588688       -0.0000000000
	 H           0.9695428897        2.0686548518       -1.6791180451
	 H           0.9695428897        2.0686548518        1.6791180451
	 H          -1.9395015192        2.0690006717       -0.0000000000
	             0.0001390097       -0.0067583742       -0.0000000002
	            -0.0000123193       -0.0060583413        0.0000000001
	            -0.0022567618        0.0003920341        0.0039410755
	            -0.0022567618        0.0003920341       -0.0039410754
	             0.0043871707        0.0003588897        0.0000000000

	Previous optimization step data not found.  Starting new optimization.

	---Fragment 1 Intrafragment Coordinates---
	 - Coordinate -           - BOHR/RAD -       - ANG/DEG -
	 R(1,2)           =         2.058144	       1.089123
	 R(1,3)           =         2.057630	       1.088851
	 R(1,4)           =         2.057630	       1.088851
	 R(1,5)           =         2.058052	       1.089074
	 B(2,1,3)         =         1.912120	     109.556397
	 B(2,1,4)         =         1.912120	     109.556397
	 B(2,1,5)         =         1.911869	     109.542002
	 B(3,1,4)         =         1.909069	     109.381586
	 B(3,1,5)         =         1.909308	     109.395292
	 B(4,1,5)         =         1.909308	     109.395292

	---Fragment 2 Intrafragment Coordinates---
	 - Coordinate -           - BOHR/RAD -       - ANG/DEG -
	 R(6,7)           =         2.058144	       1.089123
	 R(6,8)           =         2.057630	       1.088851
	 R(6,9)           =         2.057630	       1.088851
	 R(6,10)          =         2.058052	       1.089074
	 B(7,6,8)         =         1.912120	     109.556397
	 B(7,6,9)         =         1.912120	     109.556397
	 B(7,6,10)        =         1.911869	     109.542002
	 B(8,6,9)         =         1.909069	     109.381586
	 B(8,6,10)        =         1.909308	     109.395292
	 B(9,6,10)        =         1.909308	     109.395292

	---Interfragment Coordinates Between Fragments 1 and 2---
	 * Reference Points *
		 1 A3 : 4/1.000
		 2 A2 : 3/1.000
		 3 A1 : 2/0.250 3/0.250 4/0.250 5/0.250
		 4 B1 : 7/0.250 8/0.250 9/0.250 10/0.250
		 5 B2 : 9/1.000
		 6 B3 : 8/1.000
	 - Coordinate -           - BOHR/RAD -       - ANG/DEG -
	 R(3,4)           =         5.510935	       2.916261
	 B(2,3,4)         =         1.230354	      70.494119
	 B(3,4,5)         =         1.230354	      70.494119
	 D(2,3,4,5)       =         3.141593	     180.000000
	 D(1,2,3,4)       =        -1.046538	     -59.962225
	 D(3,4,5,6)       =         1.046538	      59.962225

	Current energy   :       -80.7382852429

	Generating empirical Hessian (Schlegel '84) for each fragment.
	Taking RFO optimization step.
	Going to follow RFO solution 1.
	Using RFO vector 1.

	Determining step-restricting scale parameter for RS-RFO.
	Maximum step size allowed    0.50000

	 Iter      |step|        alpha        rfo_root  
	------------------------------------------------
	    0     0.72427       1.00000           1
	    1     0.57131       1.83680           1
	    2     0.51134       2.39745           1
	    3     0.50037       2.52302           1
	    4     0.50000       2.52743           1
	------------------------------------------------
	Norm of target step-size    0.50000
	Projected energy change by RFO approximation:        -0.0064366628

	Back-transformation to cartesian coordinates...
	Successfully converged to displaced geometry.

	--- Internal Coordinate Step in ANG or DEG, aJ/ANG or AJ/DEG ---
	 ---------------------------------------------------------------------------
	   Coordinate                Previous        Force       Change         New 
	   ----------                --------       ------       ------       ------
	    1 R(1,2)          =      1.089123     0.025869     0.004545     1.093668
	    2 R(1,3)          =      1.088851     0.044387     0.007791     1.096642
	    3 R(1,4)          =      1.088851     0.044387     0.007791     1.096642
	    4 R(1,5)          =      1.089074     0.043093     0.007570     1.096644
	    5 B(2,1,3)        =    109.556397     0.000125     0.533669   110.090066
	    6 B(2,1,4)        =    109.556397     0.000125     0.533669   110.090066
	    7 B(2,1,5)        =    109.542002     0.000127     0.542023   110.084025
	    8 B(3,1,4)        =    109.381586    -0.000124    -0.534982   108.846604
	    9 B(3,1,5)        =    109.395292    -0.000127    -0.547483   108.847810
	   10 B(4,1,5)        =    109.395292    -0.000127    -0.547482   108.847810
	 ---------------------------------------------------------------------------

	Back-transformation to cartesian coordinates...
	Successfully converged to displaced geometry.

	--- Internal Coordinate Step in ANG or DEG, aJ/ANG or AJ/DEG ---
	 ---------------------------------------------------------------------------
	   Coordinate                Previous        Force       Change         New 
	   ----------                --------       ------       ------       ------
	    1 R(6,7)          =      1.089123     0.025869     0.004545     1.093668
	    2 R(6,8)          =      1.088851     0.044387     0.007791     1.096642
	    3 R(6,9)          =      1.088851     0.044387     0.007791     1.096642
	    4 R(6,10)         =      1.089074     0.043093     0.007570     1.096644
	    5 B(7,6,8)        =    109.556397     0.000125     0.533669   110.090066
	    6 B(7,6,9)        =    109.556397     0.000125     0.533669   110.090066
	    7 B(7,6,10)       =    109.542002     0.000127     0.542024   110.084025
	    8 B(8,6,9)        =    109.381586    -0.000124    -0.534983   108.846604
	    9 B(8,6,10)       =    109.395292    -0.000127    -0.547482   108.847810
	   10 B(9,6,10)       =    109.395292    -0.000127    -0.547482   108.847810
	 ---------------------------------------------------------------------------
	---Interfragment coordinates between fragments 1 and 2
	---Internal Coordinate Step in ANG or DEG, aJ/ANG or AJ/DEG ---
	 ----------------------------------------------------------------------
	 Coordinate             Previous        Force       Change         New 
	 ----------             --------       ------       ------       ------
	R_AB                     2.91304      0.09618      0.26328      3.17632
	theta_A                 70.35453      0.00000      0.00042     70.35495
	theta_B                 70.35453      0.00000      0.00042     70.35494
	tau                    180.00000      0.00000      0.00000    180.00000
	phi_A                  -59.78584     -0.00000     -0.00076    -59.78660
	phi_B                   59.78584      0.00000      0.00076     59.78660
	 ----------------------------------------------------------------------
	Difference from target, |x_target - x_achieved| = 1.43e-07
	Successfully symmetrized geometry.

  ==> Convergence Check <==

  Measures of convergence in internal coordinates in au.
  Criteria marked as inactive (o), active & met (*), and active & unmet ( ).
  --------------------------------------------------------------------------------------------- ~
   Step     Total Energy     Delta E     MAX Force     RMS Force      MAX Disp      RMS Disp    ~
  --------------------------------------------------------------------------------------------- ~
    Convergence Criteria    1.00e-06 *    3.00e-04 *             o    1.20e-03 *             o  ~
  --------------------------------------------------------------------------------------------- ~
      1     -80.73828524   -8.07e+01      1.17e-02      3.72e-03 o    4.98e-01      9.81e-02 o  ~
  ---------------------------------------------------------------------------------------------

	Writing optimization data to binary file.
	Structure for next step:
	Cartesian Geometry (in Angstrom)
	    C     0.0000305609  -1.4655973495   0.0000000005
	    H    -0.0000157753  -2.5592651091  -0.0000000007
	    H    -0.5148992260  -1.0888823781  -0.8919401483
	    H    -0.5148992267  -1.0888823773   0.8919401488
	    H     1.0300036671  -1.0890557860  -0.0000000004
	    C     0.0000068099   1.7288738451   0.0000001741
	    H     0.0000531506   2.8225416041   0.0000001734
	    H     0.5149366004   1.3521588750  -0.8919399732
	    H     0.5149366004   1.3521588744   0.8919403211
	    H    -1.0299662961   1.3523322805   0.0000001739
			--------------------------
			 OPTKING Finished Execution 
			--------------------------

    Structure for next step:
    Molecular point group: c1
    Full point group: Ci

    Geometry (in Angstrom), charge = 0, multiplicity = 1:

    C            0.000011875124    -1.597235597372    -0.000000086644
    H           -0.000034461013    -2.690903356924    -0.000000087843
    H           -0.514917911808    -1.220520625951    -0.891940235528
    H           -0.514917912479    -1.220520625106     0.891940061608
    H            1.029984981384    -1.220694033841    -0.000000087541
    C           -0.000011875827     1.597235597304     0.000000086891
    H            0.000034464840     2.690903356213     0.000000086193
    H            0.514917914654     1.220520627175    -0.891940060413
    H            0.514917914670     1.220520626525     0.891940233870
    H           -1.029984981875     1.220694032710     0.000000086714

gradient() will perform analytic gradient computation.

*** tstart() called on psinet
*** at Mon May 15 16:07:50 2017

    SCF Algorithm Type (re)set to DF.

*** tstart() called on psinet
*** at Mon May 15 16:07:50 2017

   => Loading Basis Set <=

    Name: AUG-CC-PVDZ
    Role: ORBITAL
    Keyword: BASIS
    atoms 1, 6      entry C          line   171 file /home/psilocaluser/gits/hrw-direct/objdir4/stage/usr/local/psi4/share/psi4/basis/aug-cc-pvdz.gbs 
    atoms 2-5, 7-10 entry H          line    35 file /home/psilocaluser/gits/hrw-direct/objdir4/stage/usr/local/psi4/share/psi4/basis/aug-cc-pvdz.gbs 


         ---------------------------------------------------------
                                   SCF
            by Justin Turney, Rob Parrish, and Andy Simmonett
                              RHF Reference
                        1 Threads,    953 MiB Core
         ---------------------------------------------------------

  ==> Geometry <==

    Molecular point group: c1
    Full point group: Ci

    Geometry (in Angstrom), charge = 0, multiplicity = 1:

       Center              X                  Y                   Z               Mass       
    ------------   -----------------  -----------------  -----------------  -----------------
           C          0.000011875124    -1.597235597372    -0.000000086644    12.000000000000
           H         -0.000034461013    -2.690903356924    -0.000000087843     1.007825032070
           H         -0.514917911808    -1.220520625951    -0.891940235528     1.007825032070
           H         -0.514917912479    -1.220520625106     0.891940061608     1.007825032070
           H          1.029984981384    -1.220694033841    -0.000000087541     1.007825032070
           C         -0.000011875827     1.597235597304     0.000000086891    12.000000000000
           H          0.000034464840     2.690903356213     0.000000086193     1.007825032070
           H          0.514917914654     1.220520627175    -0.891940060413     1.007825032070
           H          0.514917914670     1.220520626525     0.891940233870     1.007825032070
           H         -1.029984981875     1.220694032710     0.000000086714     1.007825032070

  Running in c1 symmetry.

  Rotational constants: A =      2.62812  B =      0.19148  C =      0.19148 [cm^-1]
  Rotational constants: A =  78789.03748  B =   5740.39478  C =   5740.39012 [MHz]
  Nuclear repulsion =   43.099251289215694

  Charge       = 0
  Multiplicity = 1
  Electrons    = 20
  Nalpha       = 10
  Nbeta        = 10

  ==> Algorithm <==

  SCF Algorithm Type is DF.
  DIIS enabled.
  MOM disabled.
  Fractional occupation disabled.
  Guess Type is READ.
  Energy threshold   = 1.00e-10
  Density threshold  = 1.00e-10
  Integral threshold = 0.00e+00

  ==> Primary Basis <==

  Basis Set: AUG-CC-PVDZ
    Blend: AUG-CC-PVDZ
    Number of shells: 58
    Number of basis function: 118
    Number of Cartesian functions: 122
    Spherical Harmonics?: true
    Max angular momentum: 2

   => Loading Basis Set <=

    Name: (AUG-CC-PVDZ AUX)
    Role: JKFIT
    Keyword: DF_BASIS_SCF
    atoms 1, 6      entry C          line   153 file /home/psilocaluser/gits/hrw-direct/objdir4/stage/usr/local/psi4/share/psi4/basis/aug-cc-pvdz-jkfit.gbs 
    atoms 2-5, 7-10 entry H          line    69 file /home/psilocaluser/gits/hrw-direct/objdir4/stage/usr/local/psi4/share/psi4/basis/aug-cc-pvdz-jkfit.gbs 

  Reading orbitals from file 180, no projection.

  ==> Pre-Iterations <==

   -------------------------------------------------------
    Irrep   Nso     Nmo     Nalpha   Nbeta   Ndocc  Nsocc
   -------------------------------------------------------
     A        118     118       0       0       0       0
   -------------------------------------------------------
    Total     118     118      10      10      10       0
   -------------------------------------------------------

  ==> Integral Setup <==

  ==> DFJK: Density-Fitted J/K Matrices <==

    J tasked:                  Yes
    K tasked:                  Yes
    wK tasked:                  No
    OpenMP threads:              1
    Integrals threads:           1
    Memory (MB):               715
    Algorithm:                Core
    Integral Cache:           NONE
    Schwarz Cutoff:          1E-12
    Fitting Condition:       1E-12

   => Auxiliary Basis Set <=

  Basis Set: (AUG-CC-PVDZ AUX)
    Blend: AUG-CC-PVDZ-JKFIT
    Number of shells: 152
    Number of basis function: 428
    Number of Cartesian functions: 482
    Spherical Harmonics?: true
    Max angular momentum: 3

  Minimum eigenvalue in the overlap matrix is 3.2942026704E-04.
  Using Symmetric Orthogonalization.

  SCF Guess: Orbitals guess was supplied from a previous computation.

  ==> Iterations <==

                           Total Energy        Delta E     RMS |[F,P]|

   @DF-RHF iter   0:   -80.39550282019559   -8.03955e+01   5.65623e-04 
   @DF-RHF iter   1:   -80.39577512341521   -2.72303e-04   7.24765e-05 
   @DF-RHF iter   2:   -80.39581687174619   -4.17483e-05   2.77439e-05 DIIS
   @DF-RHF iter   3:   -80.39582233162658   -5.45988e-06   3.84886e-06 DIIS
   @DF-RHF iter   4:   -80.39582257764053   -2.46014e-07   7.37614e-07 DIIS
   @DF-RHF iter   5:   -80.39582258957439   -1.19339e-08   7.01301e-08 DIIS
   @DF-RHF iter   6:   -80.39582258967197   -9.75717e-11   8.61613e-09 DIIS
   @DF-RHF iter   7:   -80.39582258967316   -1.19371e-12   1.66324e-09 DIIS
   @DF-RHF iter   8:   -80.39582258967319   -2.84217e-14   3.82827e-10 DIIS
   @DF-RHF iter   9:   -80.39582258967332   -1.27898e-13   4.51130e-11 DIIS

  ==> Post-Iterations <==

    Orbital Energies (a.u.)
    -----------------------

    Doubly Occupied:                                                      

       1A    -11.216338     2A    -11.216334     3A     -0.947749  
       4A     -0.932440     5A     -0.559138     6A     -0.548572  
       7A     -0.548571     8A     -0.531180     9A     -0.531175  
      10A     -0.528149  

    Virtual:                                                              

      11A      0.035571    12A      0.045814    13A      0.059744  
      14A      0.059746    15A      0.068709    16A      0.083677  
      17A      0.083678    18A      0.099900    19A      0.131469  
      20A      0.131469    21A      0.168047    22A      0.168855  
      23A      0.168857    24A      0.176769    25A      0.200734  
      26A      0.242636    27A      0.270844    28A      0.270846  
      29A      0.295192    30A      0.296716    31A      0.296720  
      32A      0.336520    33A      0.336531    34A      0.393115  
      35A      0.393116    36A      0.403814    37A      0.412220  
      38A      0.437586    39A      0.437588    40A      0.444207  
      41A      0.466993    42A      0.466995    43A      0.479110  
      44A      0.484981    45A      0.545783    46A      0.545791  
      47A      0.571832    48A      0.571852    49A      0.572640  
      50A      0.579241    51A      0.581252    52A      0.599523  
      53A      0.616808    54A      0.648311    55A      0.648327  
      56A      0.685307    57A      0.685322    58A      0.718884  
      59A      0.718889    60A      0.727358    61A      0.729999  
      62A      0.730001    63A      0.746327    64A      0.770867  
      65A      0.774808    66A      0.774812    67A      0.839970  
      68A      0.839996    69A      0.995223    70A      0.995257  
      71A      1.031554    72A      1.149011    73A      1.149018  
      74A      1.151061    75A      1.159462    76A      1.298659  
      77A      1.363914    78A      1.363914    79A      1.378322  
      80A      1.378337    81A      1.597289    82A      1.700457  
      83A      1.712635    84A      1.712687    85A      1.817827  
      86A      1.817838    87A      1.886294    88A      1.905651  
      89A      1.915728    90A      1.915759    91A      1.964488  
      92A      1.964502    93A      2.041896    94A      2.061266  
      95A      2.203418    96A      2.233453    97A      2.233463  
      98A      2.237977    99A      2.237983   100A      2.266065  
     101A      2.287314   102A      2.287351   103A      2.326730  
     104A      2.326767   105A      2.353959   106A      2.491005  
     107A      2.633413   108A      2.633472   109A      2.671456  
     110A      2.671493   111A      2.815951   112A      2.844774  
     113A      2.927473   114A      2.927502   115A      2.951884  
     116A      2.951891   117A      3.025108   118A      3.032180  

    Final Occupation by Irrep:
              A 
    DOCC [    10 ]

  Energy converged.

  @DF-RHF Final Energy:   -80.39582258967332

   => Energetics <=

    Nuclear Repulsion Energy =             43.0992512892156938
    One-Electron Energy =                -191.8708544970373282
    Two-Electron Energy =                  68.3757806181483261
    DFT Exchange-Correlation Energy =       0.0000000000000000
    Empirical Dispersion Energy =           0.0000000000000000
    PCM Polarization Energy =               0.0000000000000000
    EFP Energy =                            0.0000000000000000
    Total Energy =                        -80.3958225896733154



Properties will be evaluated at   0.000000,   0.000000,   0.000000 Bohr

Properties computed using the SCF density matrix

  Nuclear Dipole Moment: (a.u.)
     X:     0.0000      Y:     0.0000      Z:    -0.0000

  Electronic Dipole Moment: (a.u.)
     X:    -0.0000      Y:    -0.0000      Z:     0.0000

  Dipole Moment: (a.u.)
     X:     0.0000      Y:     0.0000      Z:    -0.0000     Total:     0.0000

  Dipole Moment: (Debye)
     X:     0.0000      Y:     0.0000      Z:    -0.0000     Total:     0.0000


*** tstop() called on psinet at Mon May 15 16:07:52 2017
Module time:
	user time   =       1.67 seconds =       0.03 minutes
	system time =       0.02 seconds =       0.00 minutes
	total time  =          2 seconds =       0.03 minutes
Total time:
	user time   =       9.65 seconds =       0.16 minutes
	system time =       0.21 seconds =       0.00 minutes
	total time  =         10 seconds =       0.17 minutes

  //>>>>>>>>>>>>>>>>>>>>>>>>>>>>>>>>>>>//
  //               DFMP2               //
  //<<<<<<<<<<<<<<<<<<<<<<<<<<<<<<<<<<<//

   => Loading Basis Set <=

    Name: (AUG-CC-PVDZ AUX)
    Role: RIFIT
    Keyword: DF_BASIS_MP2
    atoms 1, 6      entry C          line   111 file /home/psilocaluser/gits/hrw-direct/objdir4/stage/usr/local/psi4/share/psi4/basis/aug-cc-pvdz-ri.gbs 
    atoms 2-5, 7-10 entry H          line    29 file /home/psilocaluser/gits/hrw-direct/objdir4/stage/usr/local/psi4/share/psi4/basis/aug-cc-pvdz-ri.gbs 

	 --------------------------------------------------------
	                          DF-MP2                         
	      2nd-Order Density-Fitted Moller-Plesset Theory     
	              RMP2 Wavefunction,   1 Threads             
	                                                         
	        Rob Parrish, Justin Turney, Andy Simmonett,      
	           Ed Hohenstein, and C. David Sherrill          
	 --------------------------------------------------------

   => Auxiliary Basis Set <=

  Basis Set: (AUG-CC-PVDZ AUX)
    Blend: AUG-CC-PVDZ-RI
    Number of shells: 116
    Number of basis function: 328
    Number of Cartesian functions: 372
    Spherical Harmonics?: true
    Max angular momentum: 3

	 --------------------------------------------------------
	                 NBF =   118, NAUX =   328
	 --------------------------------------------------------
	   CLASS    FOCC     OCC    AOCC    AVIR     VIR    FVIR
	   PAIRS       0      10      10     108     108       0
	 --------------------------------------------------------


         ------------------------------------------------------------
                                     CPHF                           
                                  Rob Parrish                       
         ------------------------------------------------------------

  ==> Geometry <==

    Molecular point group: c1
    Full point group: Ci

    Geometry (in Angstrom), charge = 0, multiplicity = 1:

       Center              X                  Y                   Z               Mass       
    ------------   -----------------  -----------------  -----------------  -----------------
           C          0.000011875124    -1.597235597372    -0.000000086644    12.000000000000
           H         -0.000034461013    -2.690903356924    -0.000000087843     1.007825032070
           H         -0.514917911808    -1.220520625951    -0.891940235528     1.007825032070
           H         -0.514917912479    -1.220520625106     0.891940061608     1.007825032070
           H          1.029984981384    -1.220694033841    -0.000000087541     1.007825032070
           C         -0.000011875827     1.597235597304     0.000000086891    12.000000000000
           H          0.000034464840     2.690903356213     0.000000086193     1.007825032070
           H          0.514917914654     1.220520627175    -0.891940060413     1.007825032070
           H          0.514917914670     1.220520626525     0.891940233870     1.007825032070
           H         -1.029984981875     1.220694032710     0.000000086714     1.007825032070

  Nuclear repulsion =   43.099251289215694
  Reference energy  =  -80.395822589673315

  ==> Basis Set <==

  Basis Set: AUG-CC-PVDZ
    Blend: AUG-CC-PVDZ
    Number of shells: 58
    Number of basis function: 118
    Number of Cartesian functions: 122
    Spherical Harmonics?: true
    Max angular momentum: 2

  ==> CGRSolver (by Rob Parrish) <==

   Number of roots    =         1
   Preconditioning    =    JACOBI
   Convergence cutoff =     1E-06
   Maximum iterations =       100

  ==> CPHFRHamiltonian (by Rob Parrish) <== 

  ==> DFJK: Density-Fitted J/K Matrices <==

    J tasked:                  Yes
    K tasked:                  Yes
    wK tasked:                  No
    OpenMP threads:              1
    Integrals threads:           1
    Memory (MB):               715
    Algorithm:                Core
    Integral Cache:           NONE
    Schwarz Cutoff:          1E-12
    Fitting Condition:       1E-12

   => Auxiliary Basis Set <=

  Basis Set: (AUG-CC-PVDZ AUX)
    Blend: AUG-CC-PVDZ-JKFIT
    Number of shells: 152
    Number of basis function: 428
    Number of Cartesian functions: 482
    Spherical Harmonics?: true
    Max angular momentum: 3

  ==> CPHF Iterations <==

  => Iterations <=

             Iter  Converged  Remaining    Residual
  CGR           1          0          1   7.291E-02
  CGR           2          0          1   1.274E-02
  CGR           3          0          1   1.126E-03
  CGR           4          0          1   9.321E-05
  CGR           5          0          1   1.579E-05
  CGR           6          0          1   1.838E-06
  CGR           7          1          0   1.595E-07

    CGRSolver converged.

  ==> DFCorrGrad: Density-Fitted Correlated Gradients <==

    OpenMP threads:              1
    Integrals threads:           1
    Memory (MB):               715
    Schwarz Cutoff:          0E+00
    Fitting Condition:       1E-12

   => Auxiliary Basis Set <=

  Basis Set: (AUG-CC-PVDZ AUX)
    Blend: AUG-CC-PVDZ-JKFIT
    Number of shells: 152
    Number of basis function: 428
    Number of Cartesian functions: 482
    Spherical Harmonics?: true
    Max angular momentum: 3

	-----------------------------------------------------------
	 ==================> DF-MP2 Energies <==================== 
	-----------------------------------------------------------
	 Reference Energy          =     -80.3958225896733154 [Eh]
	 Singles Energy            =      -0.0000000000000000 [Eh]
	 Same-Spin Energy          =      -0.0672009843708679 [Eh]
	 Opposite-Spin Energy      =      -0.2790400993714183 [Eh]
	 Correlation Energy        =      -0.3462410837422862 [Eh]
	 Total Energy              =     -80.7420636734156005 [Eh]
	-----------------------------------------------------------
	 ================> DF-SCS-MP2 Energies <================== 
	-----------------------------------------------------------
	 SCS Same-Spin Scale       =       0.3333333333333333 [-]
	 SCS Opposite-Spin Scale   =       1.2000000000000000 [-]
	 SCS Same-Spin Energy      =      -0.0224003281236226 [Eh]
	 SCS Opposite-Spin Energy  =      -0.3348481192457019 [Eh]
	 SCS Correlation Energy    =      -0.3572484473693245 [Eh]
	 SCS Total Energy          =     -80.7530710370426448 [Eh]
	-----------------------------------------------------------


  -Total Gradient:
     Atom            X                  Y                   Z
    ------   -----------------  -----------------  -----------------
       1       -0.000006295245    -0.002216623216     0.000000000097
       2        0.000006390393     0.001919202104    -0.000000000090
       3        0.000267168927     0.001297806055     0.000465018121
       4        0.000267168621     0.001297806448    -0.000465017919
       5       -0.000534210845     0.001290714640    -0.000000000170
       6        0.000006294543     0.002216623572    -0.000000000153
       7       -0.000006389921    -0.001919203005     0.000000000044
       8       -0.000267168615    -0.001297805985     0.000465018556
       9       -0.000267168903    -0.001297805849    -0.000465018675
      10        0.000534211044    -0.001290714764     0.000000000189


*** tstop() called on psinet at Mon May 15 16:07:58 2017
Module time:
	user time   =       7.33 seconds =       0.12 minutes
	system time =       0.10 seconds =       0.00 minutes
	total time  =          8 seconds =       0.13 minutes
Total time:
	user time   =      15.31 seconds =       0.26 minutes
	system time =       0.29 seconds =       0.00 minutes
	total time  =         16 seconds =       0.27 minutes

			-----------------------------------------
			 OPTKING 2.0: for geometry optimizations 
			  - R.A. King,  Bethel University        
			-----------------------------------------

	Previous internal coordinate definitions found.
	---Fragment 1 Geometry and Gradient---
	 C           0.0000224407       -3.0183378487       -0.0000001637
	 H          -0.0000651219       -5.0850703946       -0.0000001660
	 H          -0.9730538342       -2.3064497226       -1.6855227720
	 H          -0.9730538355       -2.3064497210        1.6855224434
	 H           1.9463895358       -2.3067774160       -0.0000001654
	            -0.0000062952       -0.0022166232        0.0000000001
	             0.0000063904        0.0019192021       -0.0000000001
	             0.0002671689        0.0012978061        0.0004650181
	             0.0002671686        0.0012978064       -0.0004650179
	            -0.0005342108        0.0012907146       -0.0000000002

	---Fragment 2 Geometry and Gradient---
	 C          -0.0000224421        3.0183378486        0.0000001642
	 H           0.0000651291        5.0850703933        0.0000001629
	 H           0.9730538396        2.3064497249       -1.6855224411
	 H           0.9730538396        2.3064497237        1.6855227689
	 H          -1.9463895367        2.3067774139        0.0000001639
	             0.0000062945        0.0022166236       -0.0000000002
	            -0.0000063899       -0.0019192030        0.0000000000
	            -0.0002671686       -0.0012978060        0.0004650186
	            -0.0002671689       -0.0012978058       -0.0004650187
	             0.0005342110       -0.0012907148        0.0000000002

	---Fragment 1 Intrafragment Coordinates---
	 - Coordinate -           - BOHR/RAD -       - ANG/DEG -
	 R(1,2)           =         2.066733	       1.093668
	 R(1,3)           =         2.072353	       1.096642
	 R(1,4)           =         2.072353	       1.096642
	 R(1,5)           =         2.072357	       1.096644
	 B(2,1,3)         =         1.921434	     110.090066
	 B(2,1,4)         =         1.921434	     110.090066
	 B(2,1,5)         =         1.921329	     110.084025
	 B(3,1,4)         =         1.899732	     108.846604
	 B(3,1,5)         =         1.899753	     108.847810
	 B(4,1,5)         =         1.899753	     108.847810

	---Fragment 2 Intrafragment Coordinates---
	 - Coordinate -           - BOHR/RAD -       - ANG/DEG -
	 R(6,7)           =         2.066733	       1.093668
	 R(6,8)           =         2.072353	       1.096642
	 R(6,9)           =         2.072353	       1.096642
	 R(6,10)          =         2.072357	       1.096644
	 B(7,6,8)         =         1.921434	     110.090066
	 B(7,6,9)         =         1.921434	     110.090066
	 B(7,6,10)        =         1.921329	     110.084025
	 B(8,6,9)         =         1.899732	     108.846604
	 B(8,6,10)        =         1.899753	     108.847810
	 B(9,6,10)        =         1.899753	     108.847810

	---Interfragment Coordinates Between Fragments 1 and 2---
	 * Reference Points *
		 1 A3 : 4/1.000
		 2 A2 : 3/1.000
		 3 A1 : 2/0.250 3/0.250 4/0.250 5/0.250
		 4 B1 : 7/0.250 8/0.250 9/0.250 10/0.250
		 5 B2 : 9/1.000
		 6 B3 : 8/1.000
	 - Coordinate -           - BOHR/RAD -       - ANG/DEG -
	 R(3,4)           =         6.002374	       3.176319
	 B(2,3,4)         =         1.227925	      70.354945
	 B(3,4,5)         =         1.227925	      70.354945
	 D(2,3,4,5)       =         3.141593	     180.000000
	 D(1,2,3,4)       =        -1.043473	     -59.786602
	 D(3,4,5,6)       =         1.043473	      59.786602

	Current energy   :       -80.7420636734

	Energy change for the previous step:
		Projected    :        -0.0064366628
		Actual       :        -0.0037784305

	Performing BFGS update.
	Previous computed or guess Hessian on step 1.
	Steps to be used in Hessian update: 1
	Taking RFO optimization step.
	Going to follow RFO solution 1.
	Using RFO vector 1.
	Norm of target step-size    0.22212
	Projected energy change by RFO approximation:        -0.0002376113

	Back-transformation to cartesian coordinates...
	Successfully converged to displaced geometry.

	--- Internal Coordinate Step in ANG or DEG, aJ/ANG or AJ/DEG ---
	 ---------------------------------------------------------------------------
	   Coordinate                Previous        Force       Change         New 
	   ----------                --------       ------       ------       ------
	    1 R(1,2)          =      1.093668     0.008421     0.001732     1.095400
	    2 R(1,3)          =      1.096642     0.003016     0.000133     1.096776
	    3 R(1,4)          =      1.096642     0.003016     0.000133     1.096776
	    4 R(1,5)          =      1.096644     0.003020     0.000152     1.096796
	    5 B(2,1,3)        =    110.090066    -0.000043    -0.324757   109.765309
	    6 B(2,1,4)        =    110.090066    -0.000043    -0.324757   109.765309
	    7 B(2,1,5)        =    110.084025    -0.000042    -0.319200   109.764825
	    8 B(3,1,4)        =    108.846604     0.000044     0.328455   109.175059
	    9 B(3,1,5)        =    108.847810     0.000044     0.328212   109.176022
	   10 B(4,1,5)        =    108.847810     0.000044     0.328212   109.176022
	 ---------------------------------------------------------------------------

	Back-transformation to cartesian coordinates...
	Successfully converged to displaced geometry.

	--- Internal Coordinate Step in ANG or DEG, aJ/ANG or AJ/DEG ---
	 ---------------------------------------------------------------------------
	   Coordinate                Previous        Force       Change         New 
	   ----------                --------       ------       ------       ------
	    1 R(6,7)          =      1.093668     0.008421     0.001732     1.095400
	    2 R(6,8)          =      1.096642     0.003016     0.000133     1.096776
	    3 R(6,9)          =      1.096642     0.003016     0.000133     1.096776
	    4 R(6,10)         =      1.096644     0.003020     0.000152     1.096796
	    5 B(7,6,8)        =    110.090066    -0.000043    -0.324757   109.765309
	    6 B(7,6,9)        =    110.090066    -0.000043    -0.324757   109.765309
	    7 B(7,6,10)       =    110.084025    -0.000042    -0.319200   109.764825
	    8 B(8,6,9)        =    108.846604     0.000044     0.328456   109.175059
	    9 B(8,6,10)       =    108.847810     0.000044     0.328212   109.176022
	   10 B(9,6,10)       =    108.847810     0.000044     0.328212   109.176022
	 ---------------------------------------------------------------------------
	---Interfragment coordinates between fragments 1 and 2
	---Internal Coordinate Step in ANG or DEG, aJ/ANG or AJ/DEG ---
	 ----------------------------------------------------------------------
	 Coordinate             Previous        Force       Change         New 
	 ----------             --------       ------       ------       ------
	R_AB                     3.17822      0.02957      0.11705      3.29527
	theta_A                 70.44458      0.00000     -0.02366     70.42092
	theta_B                 70.44458      0.00000     -0.02366     70.42092
	tau                    180.00000      0.00000      0.00000    180.00000
	phi_A                  -59.89572     -0.00000      0.00070    -59.89502
	phi_B                   59.89572      0.00000     -0.00069     59.89502
	 ----------------------------------------------------------------------
	Difference from target, |x_target - x_achieved| = 2.68e-07
	Successfully symmetrized geometry.

  ==> Convergence Check <==

  Measures of convergence in internal coordinates in au.
  Criteria marked as inactive (o), active & met (*), and active & unmet ( ).
  ---------------------------------------------------------------------------------------------
   Step     Total Energy     Delta E     MAX Force     RMS Force      MAX Disp      RMS Disp   
  ---------------------------------------------------------------------------------------------
    Convergence Criteria    1.00e-06 *    3.00e-04 *             o    1.20e-03 *             o
  ---------------------------------------------------------------------------------------------
      2     -80.74206367   -3.78e-03      3.59e-03      8.70e-04 o    2.21e-01      4.36e-02 o  ~
  ---------------------------------------------------------------------------------------------

	Writing optimization data to binary file.
	Structure for next step:
	Cartesian Geometry (in Angstrom)
	    C     0.0000223241  -1.5934312368  -0.0000000874
	    H    -0.0000680304  -2.6888313862  -0.0000000872
	    H    -0.5160315726  -1.2224940798  -0.8938740216
	    H    -0.5160315713  -1.2224940797   0.8938738466
	    H     1.0322354213  -1.2226234567  -0.0000000864
	    C    -0.0007374796   1.7104802439  -0.0011594814
	    H    -0.0006471255   2.8058803945  -0.0011594828
	    H     0.5153164162   1.3395430870  -0.8950334167
	    H     0.5153164180   1.3395430863   0.8927144532
	    H    -1.0329505774   1.3396724642  -0.0011594833
			--------------------------
			 OPTKING Finished Execution 
			--------------------------

    Structure for next step:
    Molecular point group: c1
    Full point group: Ci

    Geometry (in Angstrom), charge = 0, multiplicity = 1:

    C            0.000379901829    -1.651955740399     0.000579697090
    H            0.000289547312    -2.747355889770     0.000579697272
    H           -0.515673994850    -1.281018583445    -0.893294237067
    H           -0.515673993552    -1.281018583317     0.894453631066
    H            1.032592999042    -1.281147960273     0.000579698124
    C           -0.000379901838     1.651955740329    -0.000579696894
    H           -0.000289547737     2.747355890944    -0.000579698334
    H            0.515673993892     1.281018583379    -0.894453632204
    H            0.515673995716     1.281018582725     0.893294237662
    H           -1.032592999709     1.281147960593    -0.000579698850

gradient() will perform analytic gradient computation.

*** tstart() called on psinet
*** at Mon May 15 16:07:58 2017

    SCF Algorithm Type (re)set to DF.

*** tstart() called on psinet
*** at Mon May 15 16:07:58 2017

   => Loading Basis Set <=

    Name: AUG-CC-PVDZ
    Role: ORBITAL
    Keyword: BASIS
    atoms 1, 6      entry C          line   171 file /home/psilocaluser/gits/hrw-direct/objdir4/stage/usr/local/psi4/share/psi4/basis/aug-cc-pvdz.gbs 
    atoms 2-5, 7-10 entry H          line    35 file /home/psilocaluser/gits/hrw-direct/objdir4/stage/usr/local/psi4/share/psi4/basis/aug-cc-pvdz.gbs 


         ---------------------------------------------------------
                                   SCF
            by Justin Turney, Rob Parrish, and Andy Simmonett
                              RHF Reference
                        1 Threads,    953 MiB Core
         ---------------------------------------------------------

  ==> Geometry <==

    Molecular point group: c1
    Full point group: Ci

    Geometry (in Angstrom), charge = 0, multiplicity = 1:

       Center              X                  Y                   Z               Mass       
    ------------   -----------------  -----------------  -----------------  -----------------
           C          0.000379901829    -1.651955740399     0.000579697090    12.000000000000
           H          0.000289547312    -2.747355889770     0.000579697272     1.007825032070
           H         -0.515673994850    -1.281018583445    -0.893294237067     1.007825032070
           H         -0.515673993552    -1.281018583317     0.894453631066     1.007825032070
           H          1.032592999042    -1.281147960273     0.000579698124     1.007825032070
           C         -0.000379901838     1.651955740329    -0.000579696894    12.000000000000
           H         -0.000289547737     2.747355890944    -0.000579698334     1.007825032070
           H          0.515673993892     1.281018583379    -0.894453632204     1.007825032070
           H          0.515673995716     1.281018582725     0.893294237662     1.007825032070
           H         -1.032592999709     1.281147960593    -0.000579698850     1.007825032070

  Running in c1 symmetry.

  Rotational constants: A =      2.61674  B =      0.17962  C =      0.17962 [cm^-1]
  Rotational constants: A =  78447.76305  B =   5384.74316  C =   5384.73554 [MHz]
  Nuclear repulsion =   42.541113118119398

  Charge       = 0
  Multiplicity = 1
  Electrons    = 20
  Nalpha       = 10
  Nbeta        = 10

  ==> Algorithm <==

  SCF Algorithm Type is DF.
  DIIS enabled.
  MOM disabled.
  Fractional occupation disabled.
  Guess Type is READ.
  Energy threshold   = 1.00e-10
  Density threshold  = 1.00e-10
  Integral threshold = 0.00e+00

  ==> Primary Basis <==

  Basis Set: AUG-CC-PVDZ
    Blend: AUG-CC-PVDZ
    Number of shells: 58
    Number of basis function: 118
    Number of Cartesian functions: 122
    Spherical Harmonics?: true
    Max angular momentum: 2

   => Loading Basis Set <=

    Name: (AUG-CC-PVDZ AUX)
    Role: JKFIT
    Keyword: DF_BASIS_SCF
    atoms 1, 6      entry C          line   153 file /home/psilocaluser/gits/hrw-direct/objdir4/stage/usr/local/psi4/share/psi4/basis/aug-cc-pvdz-jkfit.gbs 
    atoms 2-5, 7-10 entry H          line    69 file /home/psilocaluser/gits/hrw-direct/objdir4/stage/usr/local/psi4/share/psi4/basis/aug-cc-pvdz-jkfit.gbs 

  Reading orbitals from file 180, no projection.

  ==> Pre-Iterations <==

   -------------------------------------------------------
    Irrep   Nso     Nmo     Nalpha   Nbeta   Ndocc  Nsocc
   -------------------------------------------------------
     A        118     118       0       0       0       0
   -------------------------------------------------------
    Total     118     118      10      10      10       0
   -------------------------------------------------------

  ==> Integral Setup <==

  ==> DFJK: Density-Fitted J/K Matrices <==

    J tasked:                  Yes
    K tasked:                  Yes
    wK tasked:                  No
    OpenMP threads:              1
    Integrals threads:           1
    Memory (MB):               715
    Algorithm:                Core
    Integral Cache:           NONE
    Schwarz Cutoff:          1E-12
    Fitting Condition:       1E-12

   => Auxiliary Basis Set <=

  Basis Set: (AUG-CC-PVDZ AUX)
    Blend: AUG-CC-PVDZ-JKFIT
    Number of shells: 152
    Number of basis function: 428
    Number of Cartesian functions: 482
    Spherical Harmonics?: true
    Max angular momentum: 3

  Minimum eigenvalue in the overlap matrix is 3.4126032571E-04.
  Using Symmetric Orthogonalization.

  SCF Guess: Orbitals guess was supplied from a previous computation.

  ==> Iterations <==

                           Total Energy        Delta E     RMS |[F,P]|

   @DF-RHF iter   0:   -80.39675777008644   -8.03968e+01   1.50570e-04 
   @DF-RHF iter   1:   -80.39697493090864   -2.17161e-04   1.44511e-05 
   @DF-RHF iter   2:   -80.39697692550183   -1.99459e-06   4.38586e-06 DIIS
   @DF-RHF iter   3:   -80.39697708352088   -1.58019e-07   1.19731e-06 DIIS
   @DF-RHF iter   4:   -80.39697710052440   -1.70035e-08   2.18692e-07 DIIS
   @DF-RHF iter   5:   -80.39697710153550   -1.01110e-09   4.56856e-08 DIIS
   @DF-RHF iter   6:   -80.39697710157725   -4.17515e-11   6.59501e-09 DIIS
   @DF-RHF iter   7:   -80.39697710157783   -5.82645e-13   5.04485e-10 DIIS
   @DF-RHF iter   8:   -80.39697710157799   -1.56319e-13   4.87745e-11 DIIS

  ==> Post-Iterations <==

    Orbital Energies (a.u.)
    -----------------------

    Doubly Occupied:                                                      

       1A    -11.216935     2A    -11.216932     3A     -0.945794  
       4A     -0.933806     5A     -0.555175     6A     -0.547470  
       7A     -0.547460     8A     -0.533522     9A     -0.533515  
      10A     -0.529235  

    Virtual:                                                              

      11A      0.035512    12A      0.045817    13A      0.059800  
      14A      0.059807    15A      0.068472    16A      0.083236  
      17A      0.083239    18A      0.099075    19A      0.132028  
      20A      0.132033    21A      0.167582    22A      0.167912  
      23A      0.167915    24A      0.177535    25A      0.199799  
      26A      0.240960    27A      0.269639    28A      0.269644  
      29A      0.289532    30A      0.298034    31A      0.298053  
      32A      0.331912    33A      0.331940    34A      0.389644  
      35A      0.389665    36A      0.402504    37A      0.410283  
      38A      0.435758    39A      0.435772    40A      0.441572  
      41A      0.464771    42A      0.464772    43A      0.471107  
      44A      0.486123    45A      0.542195    46A      0.542228  
      47A      0.565934    48A      0.566031    49A      0.569012  
      50A      0.573737    51A      0.580025    52A      0.599464  
      53A      0.613573    54A      0.642711    55A      0.642758  
      56A      0.680343    57A      0.680415    58A      0.718454  
      59A      0.718479    60A      0.719806    61A      0.724234  
      62A      0.724247    63A      0.738142    64A      0.763544  
      65A      0.775087    66A      0.775130    67A      0.829765  
      68A      0.829873    69A      0.990403    70A      0.990441  
      71A      1.019619    72A      1.140373    73A      1.140376  
      74A      1.148284    75A      1.159464    76A      1.268230  
      77A      1.365233    78A      1.365299    79A      1.366604  
      80A      1.366609    81A      1.569175    82A      1.705388  
      83A      1.723908    84A      1.724047    85A      1.801775  
      86A      1.801886    87A      1.881984    88A      1.904676  
      89A      1.920301    90A      1.920310    91A      1.954443  
      92A      1.954549    93A      2.037646    94A      2.068185  
      95A      2.186406    96A      2.221379    97A      2.221407  
      98A      2.241268    99A      2.241328   100A      2.259244  
     101A      2.293648   102A      2.293700   103A      2.316254  
     104A      2.316260   105A      2.326878   106A      2.469598  
     107A      2.637441   108A      2.637553   109A      2.659760  
     110A      2.659814   111A      2.814339   112A      2.840179  
     113A      2.922889   114A      2.922932   115A      2.951534  
     116A      2.951558   117A      2.995333   118A      3.045699  

    Final Occupation by Irrep:
              A 
    DOCC [    10 ]

  Energy converged.

  @DF-RHF Final Energy:   -80.39697710157799

   => Energetics <=

    Nuclear Repulsion Energy =             42.5411131181193980
    One-Electron Energy =                -190.7564918818314084
    Two-Electron Energy =                  67.8184016621340220
    DFT Exchange-Correlation Energy =       0.0000000000000000
    Empirical Dispersion Energy =           0.0000000000000000
    PCM Polarization Energy =               0.0000000000000000
    EFP Energy =                            0.0000000000000000
    Total Energy =                        -80.3969771015779884



Properties will be evaluated at   0.000000,   0.000000,   0.000000 Bohr

Properties computed using the SCF density matrix

  Nuclear Dipole Moment: (a.u.)
     X:     0.0000      Y:     0.0000      Z:    -0.0000

  Electronic Dipole Moment: (a.u.)
     X:    -0.0000      Y:    -0.0000      Z:     0.0000

  Dipole Moment: (a.u.)
     X:    -0.0000      Y:    -0.0000      Z:    -0.0000     Total:     0.0000

  Dipole Moment: (Debye)
     X:    -0.0000      Y:    -0.0000      Z:    -0.0000     Total:     0.0000


*** tstop() called on psinet at Mon May 15 16:07:59 2017
Module time:
	user time   =       1.63 seconds =       0.03 minutes
	system time =       0.02 seconds =       0.00 minutes
	total time  =          1 seconds =       0.02 minutes
Total time:
	user time   =      16.95 seconds =       0.28 minutes
	system time =       0.31 seconds =       0.01 minutes
	total time  =         17 seconds =       0.28 minutes

  //>>>>>>>>>>>>>>>>>>>>>>>>>>>>>>>>>>>//
  //               DFMP2               //
  //<<<<<<<<<<<<<<<<<<<<<<<<<<<<<<<<<<<//

   => Loading Basis Set <=

    Name: (AUG-CC-PVDZ AUX)
    Role: RIFIT
    Keyword: DF_BASIS_MP2
    atoms 1, 6      entry C          line   111 file /home/psilocaluser/gits/hrw-direct/objdir4/stage/usr/local/psi4/share/psi4/basis/aug-cc-pvdz-ri.gbs 
    atoms 2-5, 7-10 entry H          line    29 file /home/psilocaluser/gits/hrw-direct/objdir4/stage/usr/local/psi4/share/psi4/basis/aug-cc-pvdz-ri.gbs 

	 --------------------------------------------------------
	                          DF-MP2                         
	      2nd-Order Density-Fitted Moller-Plesset Theory     
	              RMP2 Wavefunction,   1 Threads             
	                                                         
	        Rob Parrish, Justin Turney, Andy Simmonett,      
	           Ed Hohenstein, and C. David Sherrill          
	 --------------------------------------------------------

   => Auxiliary Basis Set <=

  Basis Set: (AUG-CC-PVDZ AUX)
    Blend: AUG-CC-PVDZ-RI
    Number of shells: 116
    Number of basis function: 328
    Number of Cartesian functions: 372
    Spherical Harmonics?: true
    Max angular momentum: 3

	 --------------------------------------------------------
	                 NBF =   118, NAUX =   328
	 --------------------------------------------------------
	   CLASS    FOCC     OCC    AOCC    AVIR     VIR    FVIR
	   PAIRS       0      10      10     108     108       0
	 --------------------------------------------------------


         ------------------------------------------------------------
                                     CPHF                           
                                  Rob Parrish                       
         ------------------------------------------------------------

  ==> Geometry <==

    Molecular point group: c1
    Full point group: Ci

    Geometry (in Angstrom), charge = 0, multiplicity = 1:

       Center              X                  Y                   Z               Mass       
    ------------   -----------------  -----------------  -----------------  -----------------
           C          0.000379901829    -1.651955740399     0.000579697090    12.000000000000
           H          0.000289547312    -2.747355889770     0.000579697272     1.007825032070
           H         -0.515673994850    -1.281018583445    -0.893294237067     1.007825032070
           H         -0.515673993552    -1.281018583317     0.894453631066     1.007825032070
           H          1.032592999042    -1.281147960273     0.000579698124     1.007825032070
           C         -0.000379901838     1.651955740329    -0.000579696894    12.000000000000
           H         -0.000289547737     2.747355890944    -0.000579698334     1.007825032070
           H          0.515673993892     1.281018583379    -0.894453632204     1.007825032070
           H          0.515673995716     1.281018582725     0.893294237662     1.007825032070
           H         -1.032592999709     1.281147960593    -0.000579698850     1.007825032070

  Nuclear repulsion =   42.541113118119398
  Reference energy  =  -80.396977101577988

  ==> Basis Set <==

  Basis Set: AUG-CC-PVDZ
    Blend: AUG-CC-PVDZ
    Number of shells: 58
    Number of basis function: 118
    Number of Cartesian functions: 122
    Spherical Harmonics?: true
    Max angular momentum: 2

  ==> CGRSolver (by Rob Parrish) <==

   Number of roots    =         1
   Preconditioning    =    JACOBI
   Convergence cutoff =     1E-06
   Maximum iterations =       100

  ==> CPHFRHamiltonian (by Rob Parrish) <== 

  ==> DFJK: Density-Fitted J/K Matrices <==

    J tasked:                  Yes
    K tasked:                  Yes
    wK tasked:                  No
    OpenMP threads:              1
    Integrals threads:           1
    Memory (MB):               715
    Algorithm:                Core
    Integral Cache:           NONE
    Schwarz Cutoff:          1E-12
    Fitting Condition:       1E-12

   => Auxiliary Basis Set <=

  Basis Set: (AUG-CC-PVDZ AUX)
    Blend: AUG-CC-PVDZ-JKFIT
    Number of shells: 152
    Number of basis function: 428
    Number of Cartesian functions: 482
    Spherical Harmonics?: true
    Max angular momentum: 3

  ==> CPHF Iterations <==

  => Iterations <=

             Iter  Converged  Remaining    Residual
  CGR           1          0          1   7.351E-02
  CGR           2          0          1   1.279E-02
  CGR           3          0          1   1.113E-03
  CGR           4          0          1   8.133E-05
  CGR           5          0          1   1.408E-05
  CGR           6          0          1   1.804E-06
  CGR           7          1          0   1.807E-07

    CGRSolver converged.

  ==> DFCorrGrad: Density-Fitted Correlated Gradients <==

    OpenMP threads:              1
    Integrals threads:           1
    Memory (MB):               715
    Schwarz Cutoff:          0E+00
    Fitting Condition:       1E-12

   => Auxiliary Basis Set <=

  Basis Set: (AUG-CC-PVDZ AUX)
    Blend: AUG-CC-PVDZ-JKFIT
    Number of shells: 152
    Number of basis function: 428
    Number of Cartesian functions: 482
    Spherical Harmonics?: true
    Max angular momentum: 3

	-----------------------------------------------------------
	 ==================> DF-MP2 Energies <==================== 
	-----------------------------------------------------------
	 Reference Energy          =     -80.3969771015779884 [Eh]
	 Singles Energy            =      -0.0000000000000000 [Eh]
	 Same-Spin Energy          =      -0.0669653315882704 [Eh]
	 Opposite-Spin Energy      =      -0.2787592024483109 [Eh]
	 Correlation Energy        =      -0.3457245340365813 [Eh]
	 Total Energy              =     -80.7427016356145657 [Eh]
	-----------------------------------------------------------
	 ================> DF-SCS-MP2 Energies <================== 
	-----------------------------------------------------------
	 SCS Same-Spin Scale       =       0.3333333333333333 [-]
	 SCS Opposite-Spin Scale   =       1.2000000000000000 [-]
	 SCS Same-Spin Energy      =      -0.0223217771960901 [Eh]
	 SCS Opposite-Spin Energy  =      -0.3345110429379730 [Eh]
	 SCS Correlation Energy    =      -0.3568328201340631 [Eh]
	 SCS Total Energy          =     -80.7538099217120475 [Eh]
	-----------------------------------------------------------


  -Total Gradient:
     Atom            X                  Y                   Z
    ------   -----------------  -----------------  -----------------
       1       -0.000011362587    -0.000681728383     0.000000588312
       2       -0.000000095871     0.000937292043    -0.000000432967
       3        0.000127971795     0.000558099353     0.000223787922
       4        0.000128674097     0.000557348357    -0.000224313850
       5       -0.000245072734     0.000561145823     0.000000345283
       6        0.000011362419     0.000681729061    -0.000000586893
       7        0.000000095779    -0.000937289671     0.000000432348
       8       -0.000128673237    -0.000557349392     0.000224311868
       9       -0.000127970720    -0.000558100456    -0.000223786351
      10        0.000245071059    -0.000561146736    -0.000000345672


*** tstop() called on psinet at Mon May 15 16:08:05 2017
Module time:
	user time   =       7.28 seconds =       0.12 minutes
	system time =       0.08 seconds =       0.00 minutes
	total time  =          7 seconds =       0.12 minutes
Total time:
	user time   =      22.60 seconds =       0.38 minutes
	system time =       0.37 seconds =       0.01 minutes
	total time  =         23 seconds =       0.38 minutes

			-----------------------------------------
			 OPTKING 2.0: for geometry optimizations 
			  - R.A. King,  Bethel University        
			-----------------------------------------

	Previous internal coordinate definitions found.
	---Fragment 1 Geometry and Gradient---
	 C           0.0007179104       -3.1217439330        0.0010954687
	 H           0.0005471651       -5.1917502212        0.0010954691
	 H          -0.9744826241       -2.4207742938       -1.6880814641
	 H          -0.9744826217       -2.4207742936        1.6902724013
	 H           1.9513179749       -2.4210187806        0.0010954707
	            -0.0000113626       -0.0006817284        0.0000005883
	            -0.0000000959        0.0009372920       -0.0000004330
	             0.0001279718        0.0005580994        0.0002237879
	             0.0001286741        0.0005573484       -0.0002243138
	            -0.0002450727        0.0005611458        0.0000003453

	---Fragment 2 Geometry and Gradient---
	 C          -0.0007179104        3.1217439329       -0.0010954684
	 H          -0.0005471659        5.1917502235       -0.0010954711
	 H           0.9744826223        2.4207742937       -1.6902724034
	 H           0.9744826258        2.4207742925        1.6880814653
	 H          -1.9513179762        2.4210187812       -0.0010954721
	             0.0000113624        0.0006817291       -0.0000005869
	             0.0000000958       -0.0009372897        0.0000004323
	            -0.0001286732       -0.0005573494        0.0002243119
	            -0.0001279707       -0.0005581005       -0.0002237864
	             0.0002450711       -0.0005611467       -0.0000003457

	---Fragment 1 Intrafragment Coordinates---
	 - Coordinate -           - BOHR/RAD -       - ANG/DEG -
	 R(1,2)           =         2.070006	       1.095400
	 R(1,3)           =         2.072605	       1.096776
	 R(1,4)           =         2.072605	       1.096776
	 R(1,5)           =         2.072645	       1.096796
	 B(2,1,3)         =         1.915766	     109.765309
	 B(2,1,4)         =         1.915766	     109.765309
	 B(2,1,5)         =         1.915758	     109.764825
	 B(3,1,4)         =         1.905464	     109.175059
	 B(3,1,5)         =         1.905481	     109.176022
	 B(4,1,5)         =         1.905481	     109.176022

	---Fragment 2 Intrafragment Coordinates---
	 - Coordinate -           - BOHR/RAD -       - ANG/DEG -
	 R(6,7)           =         2.070006	       1.095400
	 R(6,8)           =         2.072605	       1.096776
	 R(6,9)           =         2.072605	       1.096776
	 R(6,10)          =         2.072645	       1.096796
	 B(7,6,8)         =         1.915766	     109.765309
	 B(7,6,9)         =         1.915766	     109.765309
	 B(7,6,10)        =         1.915758	     109.764825
	 B(8,6,9)         =         1.905464	     109.175059
	 B(8,6,10)        =         1.905481	     109.176022
	 B(9,6,10)        =         1.905481	     109.176022

	---Interfragment Coordinates Between Fragments 1 and 2---
	 * Reference Points *
		 1 A3 : 4/1.000
		 2 A2 : 3/1.000
		 3 A1 : 2/0.250 3/0.250 4/0.250 5/0.250
		 4 B1 : 7/0.250 8/0.250 9/0.250 10/0.250
		 5 B2 : 9/1.000
		 6 B3 : 8/1.000
	 - Coordinate -           - BOHR/RAD -       - ANG/DEG -
	 R(3,4)           =         6.227159	       3.295271
	 B(2,3,4)         =         1.229077	      70.420918
	 B(3,4,5)         =         1.229077	      70.420918
	 D(2,3,4,5)       =         3.141593	     180.000000
[...]

  Dipole Moment: (Debye)
     X:     0.0000      Y:    -0.0000      Z:     0.0000     Total:     0.0000


*** tstop() called on psinet at Mon May 15 16:08:36 2017
Module time:
	user time   =       1.62 seconds =       0.03 minutes
	system time =       0.02 seconds =       0.00 minutes
	total time  =          2 seconds =       0.03 minutes
Total time:
	user time   =      53.39 seconds =       0.89 minutes
	system time =       0.72 seconds =       0.01 minutes
	total time  =         54 seconds =       0.90 minutes

  //>>>>>>>>>>>>>>>>>>>>>>>>>>>>>>>>>>>//
  //               DFMP2               //
  //<<<<<<<<<<<<<<<<<<<<<<<<<<<<<<<<<<<//

   => Loading Basis Set <=

    Name: (AUG-CC-PVDZ AUX)
    Role: RIFIT
    Keyword: DF_BASIS_MP2
    atoms 1, 6      entry C          line   111 file /home/psilocaluser/gits/hrw-direct/objdir4/stage/usr/local/psi4/share/psi4/basis/aug-cc-pvdz-ri.gbs 
    atoms 2-5, 7-10 entry H          line    29 file /home/psilocaluser/gits/hrw-direct/objdir4/stage/usr/local/psi4/share/psi4/basis/aug-cc-pvdz-ri.gbs 

	 --------------------------------------------------------
	                          DF-MP2                         
	      2nd-Order Density-Fitted Moller-Plesset Theory     
	              RMP2 Wavefunction,   1 Threads             
	                                                         
	        Rob Parrish, Justin Turney, Andy Simmonett,      
	           Ed Hohenstein, and C. David Sherrill          
	 --------------------------------------------------------

   => Auxiliary Basis Set <=

  Basis Set: (AUG-CC-PVDZ AUX)
    Blend: AUG-CC-PVDZ-RI
    Number of shells: 116
    Number of basis function: 328
    Number of Cartesian functions: 372
    Spherical Harmonics?: true
    Max angular momentum: 3

	 --------------------------------------------------------
	                 NBF =   118, NAUX =   328
	 --------------------------------------------------------
	   CLASS    FOCC     OCC    AOCC    AVIR     VIR    FVIR
	   PAIRS       0      10      10     108     108       0
	 --------------------------------------------------------


         ------------------------------------------------------------
                                     CPHF                           
                                  Rob Parrish                       
         ------------------------------------------------------------

  ==> Geometry <==

    Molecular point group: c1
    Full point group: C1

    Geometry (in Angstrom), charge = 0, multiplicity = 1:

       Center              X                  Y                   Z               Mass       
    ------------   -----------------  -----------------  -----------------  -----------------
           C         -0.011716283309    -1.783139389630     0.006442687763    12.000000000000
           H         -0.011789736888    -2.880077073077     0.006427753511     1.007825032070
           H         -0.528683890108    -1.416470988430    -0.889023832924     1.007825032070
           H         -0.528671580978    -1.416453301292     0.901901128159     1.007825032070
           H          1.022314370521    -1.416608580671     0.006449306494     1.007825032070
           C          0.011716282955     1.783139390060    -0.006442687601    12.000000000000
           H          0.011789684826     2.880077075292    -0.006427845457     1.007825032070
           H          0.528671598023     1.416453251148    -0.901901099828     1.007825032070
           H          0.528683912325     1.416471084937     0.889023860966     1.007825032070
           H         -1.022314353502     1.416608526976    -0.006449272860     1.007825032070

  Nuclear repulsion =   41.382794688310476
  Reference energy  =  -80.398313412145470

  ==> Basis Set <==

  Basis Set: AUG-CC-PVDZ
    Blend: AUG-CC-PVDZ
    Number of shells: 58
    Number of basis function: 118
    Number of Cartesian functions: 122
    Spherical Harmonics?: true
    Max angular momentum: 2

  ==> CGRSolver (by Rob Parrish) <==

   Number of roots    =         1
   Preconditioning    =    JACOBI
   Convergence cutoff =     1E-06
   Maximum iterations =       100

  ==> CPHFRHamiltonian (by Rob Parrish) <== 

  ==> DFJK: Density-Fitted J/K Matrices <==

    J tasked:                  Yes
    K tasked:                  Yes
    wK tasked:                  No
    OpenMP threads:              1
    Integrals threads:           1
    Memory (MB):               715
    Algorithm:                Core
    Integral Cache:           NONE
    Schwarz Cutoff:          1E-12
    Fitting Condition:       1E-12

   => Auxiliary Basis Set <=

  Basis Set: (AUG-CC-PVDZ AUX)
    Blend: AUG-CC-PVDZ-JKFIT
    Number of shells: 152
    Number of basis function: 428
    Number of Cartesian functions: 482
    Spherical Harmonics?: true
    Max angular momentum: 3

  ==> CPHF Iterations <==

  => Iterations <=

             Iter  Converged  Remaining    Residual
  CGR           1          0          1   7.441E-02
  CGR           2          0          1   1.286E-02
  CGR           3          0          1   1.096E-03
  CGR           4          0          1   6.649E-05
  CGR           5          0          1   1.019E-05
  CGR           6          0          1   1.618E-06
  CGR           7          1          0   1.810E-07

    CGRSolver converged.

  ==> DFCorrGrad: Density-Fitted Correlated Gradients <==

    OpenMP threads:              1
    Integrals threads:           1
    Memory (MB):               715
    Schwarz Cutoff:          0E+00
    Fitting Condition:       1E-12

   => Auxiliary Basis Set <=

  Basis Set: (AUG-CC-PVDZ AUX)
    Blend: AUG-CC-PVDZ-JKFIT
    Number of shells: 152
    Number of basis function: 428
    Number of Cartesian functions: 482
    Spherical Harmonics?: true
    Max angular momentum: 3

	-----------------------------------------------------------
	 ==================> DF-MP2 Energies <==================== 
	-----------------------------------------------------------
	 Reference Energy          =     -80.3983134121454697 [Eh]
	 Singles Energy            =      -0.0000000000000000 [Eh]
	 Same-Spin Energy          =      -0.0665643413039838 [Eh]
	 Opposite-Spin Energy      =      -0.2782387400296910 [Eh]
	 Correlation Energy        =      -0.3448030813336747 [Eh]
	 Total Energy              =     -80.7431164934791497 [Eh]
	-----------------------------------------------------------
	 ================> DF-SCS-MP2 Energies <================== 
	-----------------------------------------------------------
	 SCS Same-Spin Scale       =       0.3333333333333333 [-]
	 SCS Opposite-Spin Scale   =       1.2000000000000000 [-]
	 SCS Same-Spin Energy      =      -0.0221881137679946 [Eh]
	 SCS Opposite-Spin Energy  =      -0.3338864880356291 [Eh]
	 SCS Correlation Energy    =      -0.3560746018036237 [Eh]
	 SCS Total Energy          =     -80.7543880139490966 [Eh]
	-----------------------------------------------------------


  -Total Gradient:
     Atom            X                  Y                   Z
    ------   -----------------  -----------------  -----------------
       1       -0.000014568659     0.000001513023     0.000009477808
       2        0.000007898185     0.000000213759    -0.000005202958
       3       -0.000004271827     0.000000674697     0.000003538061
       4        0.000003120642     0.000001128807    -0.000008913949
       5        0.000003266806     0.000001180438     0.000003714999
       6        0.000014568159    -0.000001511858    -0.000009478864
       7       -0.000007897965    -0.000000214213     0.000005203579
       8       -0.000003120181    -0.000001129055     0.000008914193
       9        0.000004271505    -0.000000674777    -0.000003538460
      10       -0.000003266665    -0.000001180821    -0.000003714410


*** tstop() called on psinet at Mon May 15 16:08:42 2017
Module time:
	user time   =       7.28 seconds =       0.12 minutes
	system time =       0.08 seconds =       0.00 minutes
	total time  =          8 seconds =       0.13 minutes
Total time:
	user time   =      59.05 seconds =       0.98 minutes
	system time =       0.78 seconds =       0.01 minutes
	total time  =         60 seconds =       1.00 minutes

			-----------------------------------------
			 OPTKING 2.0: for geometry optimizations 
			  - R.A. King,  Bethel University        
			-----------------------------------------

	Previous internal coordinate definitions found.
	---Fragment 1 Geometry and Gradient---
	 C          -0.0221405668       -3.3696451032        0.0121749154
	 H          -0.0222793739       -5.4425569097        0.0121466938
	 H          -0.9990677632       -2.6767422433       -1.6800115698
	 H          -0.9990445023       -2.6767088195        1.7043461312
	 H           1.9318941820       -2.6770022550        0.0121874230
	            -0.0000145687        0.0000015130        0.0000094778
	             0.0000078982        0.0000002138       -0.0000052030
	            -0.0000042718        0.0000006747        0.0000035381
	             0.0000031206        0.0000011288       -0.0000089139
	             0.0000032668        0.0000011804        0.0000037150

	---Fragment 2 Geometry and Gradient---
	 C           0.0221405661        3.3696451040       -0.0121749151
	 H           0.0222792755        5.4425569139       -0.0121468675
	 H           0.9990445345        2.6767087247       -1.7043460776
	 H           0.9990678052        2.6767424257        1.6800116228
	 H          -1.9318941498        2.6770021535       -0.0121873595
	             0.0000145682       -0.0000015119       -0.0000094789
	            -0.0000078980       -0.0000002142        0.0000052036
	            -0.0000031202       -0.0000011291        0.0000089142
	             0.0000042715       -0.0000006748       -0.0000035385
	            -0.0000032667       -0.0000011808       -0.0000037144

	---Fragment 1 Intrafragment Coordinates---
	 - Coordinate -           - BOHR/RAD -       - ANG/DEG -
	 R(1,2)           =         2.072912	       1.096938
	 R(1,3)           =         2.073161	       1.097070
	 R(1,4)           =         2.073149	       1.097063
	 R(1,5)           =         2.073163	       1.097071
	 B(2,1,3)         =         1.911534	     109.522843
	 B(2,1,4)         =         1.911577	     109.525294
	 B(2,1,5)         =         1.911513	     109.521626
	 B(3,1,4)         =         1.909723	     109.419065
	 B(3,1,5)         =         1.909737	     109.419897
	 B(4,1,5)         =         1.909712	     109.418449

	---Fragment 2 Intrafragment Coordinates---
	 - Coordinate -           - BOHR/RAD -       - ANG/DEG -
	 R(6,7)           =         2.072912	       1.096938
	 R(6,8)           =         2.073149	       1.097063
	 R(6,9)           =         2.073161	       1.097070
	 R(6,10)          =         2.073163	       1.097071
	 B(7,6,8)         =         1.911577	     109.525294
	 B(7,6,9)         =         1.911534	     109.522843
	 B(7,6,10)        =         1.911513	     109.521626
	 B(8,6,9)         =         1.909723	     109.419065
	 B(8,6,10)        =         1.909712	     109.418449
	 B(9,6,10)        =         1.909737	     109.419897

	---Interfragment Coordinates Between Fragments 1 and 2---
	 * Reference Points *
		 1 A3 : 4/1.000
		 2 A2 : 3/1.000
		 3 A1 : 2/0.250 3/0.250 4/0.250 5/0.250
		 4 B1 : 7/0.250 8/0.250 9/0.250 10/0.250
		 5 B2 : 9/1.000
		 6 B3 : 8/1.000
	 - Coordinate -           - BOHR/RAD -       - ANG/DEG -
	 R(3,4)           =         6.736694	       3.564905
	 B(2,3,4)         =         1.230812	      70.520351
	 B(3,4,5)         =         1.230812	      70.520357
	 D(2,3,4,5)       =         3.141593	     180.000000
	 D(1,2,3,4)       =        -1.054727	     -60.431411
	 D(3,4,5,6)       =         1.054727	      60.431411

	Current energy   :       -80.7431164935

	Energy change for the previous step:
		Projected    :        -0.0000020011
		Actual       :        -0.0000004612
	Energy ratio indicates iffy step: Trust radius decreased to 6.250e-02.


	Performing BFGS update.
	Previous computed or guess Hessian on step 1.
	Steps to be used in Hessian update: 7 6
	Taking RFO optimization step.
	Going to follow RFO solution 1.
	Using RFO vector 1.
	Norm of target step-size    0.01114
	Projected energy change by RFO approximation:        -0.0000000385

	Back-transformation to cartesian coordinates...
	Successfully converged to displaced geometry.

	--- Internal Coordinate Step in ANG or DEG, aJ/ANG or AJ/DEG ---
	 ---------------------------------------------------------------------------
	   Coordinate                Previous        Force       Change         New 
	   ----------                --------       ------       ------       ------
	    1 R(1,2)          =      1.096938    -0.000027    -0.000001     1.096937
	    2 R(1,3)          =      1.097070     0.000009     0.000001     1.097071
	    3 R(1,4)          =      1.097063     0.000076     0.000007     1.097070
	    4 R(1,5)          =      1.097071    -0.000010    -0.000000     1.097071
	    5 B(2,1,3)        =    109.522843     0.000000    -0.000168   109.522675
	    6 B(2,1,4)        =    109.525294    -0.000001    -0.002510   109.522784
	    7 B(2,1,5)        =    109.521626     0.000001     0.001200   109.522826
	    8 B(3,1,4)        =    109.419065     0.000000     0.000585   109.419650
	    9 B(3,1,5)        =    109.419897    -0.000000    -0.000264   109.419633
	   10 B(4,1,5)        =    109.418449     0.000000     0.001160   109.419608
	 ---------------------------------------------------------------------------

	Back-transformation to cartesian coordinates...
	Successfully converged to displaced geometry.

	--- Internal Coordinate Step in ANG or DEG, aJ/ANG or AJ/DEG ---
	 ---------------------------------------------------------------------------
	   Coordinate                Previous        Force       Change         New 
	   ----------                --------       ------       ------       ------
	    1 R(6,7)          =      1.096938    -0.000027    -0.000001     1.096937
	    2 R(6,8)          =      1.097063     0.000076     0.000007     1.097070
	    3 R(6,9)          =      1.097070     0.000009     0.000001     1.097071
	    4 R(6,10)         =      1.097071    -0.000010    -0.000000     1.097071
	    5 B(7,6,8)        =    109.525294    -0.000001    -0.002510   109.522784
	    6 B(7,6,9)        =    109.522843     0.000000    -0.000168   109.522675
	    7 B(7,6,10)       =    109.521626     0.000001     0.001199   109.522826
	    8 B(8,6,9)        =    109.419065     0.000000     0.000585   109.419650
	    9 B(8,6,10)       =    109.418449     0.000000     0.001160   109.419608
	   10 B(9,6,10)       =    109.419897    -0.000000    -0.000264   109.419633
	 ---------------------------------------------------------------------------
	---Interfragment coordinates between fragments 1 and 2
	---Internal Coordinate Step in ANG or DEG, aJ/ANG or AJ/DEG ---
	 ----------------------------------------------------------------------
	 Coordinate             Previous        Force       Change         New 
	 ----------             --------       ------       ------       ------
	R_AB                     3.56491      0.00004      0.00097      3.56588
	theta_A                 70.52034     -0.00000     -0.00075     70.51959
	theta_B                 70.52035     -0.00000     -0.00074     70.51960
	tau                    180.00000      0.00000      0.00000    180.00000
	phi_A                  -60.43205      0.00000      0.44525    -59.98680
	phi_B                   60.43205     -0.00000     -0.44527     59.98677
	 ----------------------------------------------------------------------
	Difference from target, |x_target - x_achieved| = 8.16e-07
	Successfully symmetrized geometry.

  ==> Convergence Check <==

  Measures of convergence in internal coordinates in au.
  Criteria marked as inactive (o), active & met (*), and active & unmet ( ).
  ---------------------------------------------------------------------------------------------
   Step     Total Energy     Delta E     MAX Force     RMS Force      MAX Disp      RMS Disp   
  ---------------------------------------------------------------------------------------------
    Convergence Criteria    1.00e-06 *    3.00e-04 *             o    1.20e-03 *             o
  ---------------------------------------------------------------------------------------------
      8     -80.74311649   -4.61e-07 *    1.68e-05 *    7.14e-06 o    7.77e-03      2.19e-03 o  ~
  ---------------------------------------------------------------------------------------------


  **** Optimization is complete! (in 8 steps) ****

  ==> Optimization Summary <==

  Measures of convergence in internal coordinates in au.
  --------------------------------------------------------------------------------------------------------------- ~
   Step         Total Energy             Delta E       MAX Force       RMS Force        MAX Disp        RMS Disp  ~
  --------------------------------------------------------------------------------------------------------------- ~
      1     -80.738285242899    -80.738285242899      0.01167376      0.00371853      0.49752047      0.09806122  ~
      2     -80.742063673416     -0.003778430517      0.00358891      0.00087035      0.22119112      0.04356042  ~
      3     -80.742701635615     -0.000637962199      0.00193216      0.00042669      0.23995402      0.04716582  ~
      4     -80.743021613438     -0.000319977824      0.00078251      0.00019330      0.11952204      0.02348234  ~
      5     -80.743089310543     -0.000067697104      0.00038021      0.00012898      0.08309294      0.01654450  ~
      6     -80.743111398646     -0.000022088103      0.00015365      0.00006074      0.04900647      0.01084809  ~
      7     -80.743116032284     -0.000004633639      0.00003835      0.00001821      0.01881618      0.00601555  ~
      8     -80.743116493479     -0.000000461195      0.00001679      0.00000714      0.00777150      0.00218521  ~
  --------------------------------------------------------------------------------------------------------------- ~

	Writing optimization data to binary file.
	Final energy is    -80.7431164934791
	Final (previous) structure:
	Cartesian Geometry (in Angstrom)
	    C    -0.0117162833  -1.7831393896   0.0064426878
	    H    -0.0117897369  -2.8800770731   0.0064277535
	    H    -0.5286838901  -1.4164709884  -0.8890238329
	    H    -0.5286715810  -1.4164533013   0.9019011282
	    H     1.0223143705  -1.4166085807   0.0064493065
	    C     0.0117162830   1.7831393901  -0.0064426876
	    H     0.0117896848   2.8800770753  -0.0064278455
	    H     0.5286715980   1.4164532511  -0.9019010998
	    H     0.5286839123   1.4164710849   0.8890238610
	    H    -1.0223143535   1.4166085270  -0.0064492729
	Saving final (previous) structure.
			--------------------------
			 OPTKING Finished Execution 
			--------------------------

    Final optimized geometry and variables:
    Molecular point group: c1
    Full point group: C1

    Geometry (in Angstrom), charge = 0, multiplicity = 1:

    C           -0.011716283309    -1.783139389630     0.006442687763
    H           -0.011789736888    -2.880077073077     0.006427753511
    H           -0.528683890108    -1.416470988430    -0.889023832924
    H           -0.528671580978    -1.416453301292     0.901901128159
    H            1.022314370521    -1.416608580671     0.006449306494
    C            0.011716282955     1.783139390060    -0.006442687601
    H            0.011789684826     2.880077075292    -0.006427845457
    H            0.528671598023     1.416453251148    -0.901901099828
    H            0.528683912325     1.416471084937     0.889023860966
    H           -1.022314353502     1.416608526976    -0.006449272860

	Cleaning optimization helper files.
	aug-cc-pVDZ MP2 CH4 Dimer Energy..................................PASSED

*** Psi4 exiting successfully. Buy a developer a beer!
