
    -----------------------------------------------------------------------
          Psi4: An Open-Source Ab Initio Electronic Structure Package
                               Psi4 1.1rc3.dev5 

                         Git: Rev {master} 3fbd859 


    R. M. Parrish, L. A. Burns, D. G. A. Smith, A. C. Simmonett,
    A. E. DePrince III, E. G. Hohenstein, U. Bozkaya, A. Yu. Sokolov,
    R. Di Remigio, R. M. Richard, J. F. Gonthier, A. M. James,
    H. R. McAlexander, A. Kumar, M. Saitow, X. Wang, B. P. Pritchard,
    P. Verma, H. F. Schaefer III, K. Patkowski, R. A. King, E. F. Valeev,
    F. A. Evangelista, J. M. Turney, T. D. Crawford, and C. D. Sherrill,
    J. Chem. Theory Comput. in press (2017).
    (doi: 10.1021/acs.jctc.7b00174)

    -----------------------------------------------------------------------


    Psi4 started on: Monday, 15 May 2017 03:40PM

    Process ID:  20965
    PSIDATADIR: /home/psilocaluser/gits/hrw-direct/objdir4/stage/usr/local/psi4/share/psi4
    Memory:     500.0 MiB
    Threads:    1
    
  ==> Input File <==

--------------------------------------------------------------------------
#! EFP on mixed QM (water) and EFP (water + 2 * ammonia) system.
#! An EFP-only calc performed first to test vales against q-chem,
#! both for a native 6D and native 5D basis.

# from Q-Chem (new libefp Q-Chem, not Q-Chem home-brewed EFP)
qc_nre        =   9.1793879214                                         #TEST
qc_elst       =  -0.0168338165  # ELECTROSTATIC ENERGY                 #TEST
qc_indc_631   =  -0.0923997025  # POLARIZATION ENERGY                  #TEST
qc_indc_dz    =  -0.0845266725  # "                                    #TEST
qc_disp       =  -0.0029213180  # DISPERSION ENERGY                    #TEST
qc_exch       =   0.0127949942  # EXCHANGE-REPULSION ENERGY            #TEST
qc_qelst      =   0.1635272065  # QM-NUC/EFP ELECTROSTATIC ENERGY      #TEST
qc_efptot_631 =   0.0641673637  # TOTAL EFP ENERGY                     #TEST
qc_efptot_dz  =   0.0720403937  # "                                    #TEST
qc_efpcor     =   0.1565670662  # EFP CORRECTION TO SCF ENERGY         #TEST
qc_scftot_631 = -76.0058354285  # Total energy in the final basis set  #TEST
qc_scftot_dz  = -76.0237793795  # "                                    #TEST


molecule qmefp {
# QM fragment
0 1
O    0         0.0   0.118720
H   -0.753299, 0.0, -0.474880
H    0.753299, 0.0, -0.474880
# EFP as EFP fragments
--
efp water
    -2.13972    1.28964   -0.96418
    -2.66865    0.51034   -1.14473
    -1.33300    0.93113   -0.58956
--
efp ammonia
     0.98792    1.87681    2.85174
     1.68798    1.18856    3.09517
     1.45873    2.55904    2.27226
--
efp ammonia
    -4.12794   -0.92466   -1.28394
    -4.69278   -1.09557   -2.10539
    -3.59191   -1.76923   -1.13470
}

set basis 6-31g*
set e_convergence 12
set d_convergence 12
set scf_type pk
energy('scf')
print_variables()

print('      basis 6-31G*')
compare_values(qc_nre, qmefp.nuclear_repulsion_energy(), 6, 'QM NRE')  #TEST
compare_values(qc_elst + qc_qelst, get_variable('EFP ELST ENERGY'), 6, 'Tot Elst')  #TEST
compare_values(qc_disp, get_variable('EFP DISP ENERGY'), 6, 'efp Disp')  #TEST
compare_values(qc_exch, get_variable('EFP EXCH ENERGY'), 6, 'efp Exch')  #TEST
compare_values(qc_efpcor, get_variable('EFP ELST ENERGY') + get_variable('EFP EXCH ENERGY') + get_variable('EFP DISP ENERGY'), 6, 'Corr EFP')  #TEST
compare_values(qc_indc_631, get_variable('EFP IND ENERGY'), 6, 'Tot Indc')  #TEST
compare_values(qc_efptot_631, get_variable('EFP TOTAL ENERGY'), 6, 'Tot EFP')  #TEST
compare_values(qc_scftot_631, get_variable('SCF TOTAL ENERGY'), 6, 'Tot SCF')  #TEST

clean()

set basis cc-pvdz
set e_convergence 10
set d_convergence 7
set guess sad
set scf_type pk
energy('scf')
print_variables()

print('      basis cc-pVDZ')
compare_values(qc_nre, qmefp.nuclear_repulsion_energy(), 6, 'QM NRE')  #TEST
compare_values(qc_elst + qc_qelst, get_variable('EFP ELST ENERGY'), 6, 'Tot Elst')  #TEST
compare_values(qc_disp, get_variable('EFP DISP ENERGY'), 6, 'efp Disp')  #TEST
compare_values(qc_exch, get_variable('EFP EXCH ENERGY'), 6, 'efp Exch')  #TEST
compare_values(qc_efpcor, get_variable('EFP ELST ENERGY') + get_variable('EFP EXCH ENERGY') + get_variable('EFP DISP ENERGY'), 6, 'Corr EFP')  #TEST
compare_values(qc_indc_dz, get_variable('EFP IND ENERGY'), 6, 'Tot Indc')  #TEST
compare_values(qc_efptot_dz, get_variable('EFP TOTAL ENERGY'), 6, 'Tot EFP')  #TEST
compare_values(qc_scftot_dz, get_variable('SCF TOTAL ENERGY'), 6, 'Tot SCF')  #TEST

--------------------------------------------------------------------------
  EFP fragment ammonia read from /home/psilocaluser/miniconda3/envs/p4deps27/share/libefp/fraglib/ammonia.efp
  EFP fragment water read from /home/psilocaluser/miniconda3/envs/p4deps27/share/libefp/fraglib/water.efp

*** tstart() called on psinet
*** at Mon May 15 15:40:39 2017



LIBEFP ver. 1.4.2
Copyright (c) 2012-2017 Ilya Kaliman

Journal References:
  - Kaliman and Slipchenko, JCC 2013.
    DOI: http://dx.doi.org/10.1002/jcc.23375
  - Kaliman and Slipchenko, JCC 2015.
    DOI: http://dx.doi.org/10.1002/jcc.23772

Project web site: https://libefp.github.io/


  ==> EFP/EFP Setup <==

  Number of EFP fragments:            3
  Electrostatics enabled?:         true
  Polarization enabled?:           true
  Dispersion enabled?:             true
  Exchange enabled?:               true
  Electrostatics damping:        SCREEN
  Polarization damping:              TT
  Dispersion damping:           OVERLAP
  Gradient enabled?:              false

  ==> QM/EFP Setup <==

  Number of QM fragments:             1
  Electrostatics enabled?:         true
  Polarization enabled?:           true
  Dispersion enabled?:        undefined
  Exchange enabled?:          undefined

  ==> EFP Geometry <==

    Geometry (in Angstrom):

       Center              X                  Y                   Z       
    ------------   -----------------  -----------------  -----------------
           O         -2.139720000000     1.289640000000    -0.964180000000 (EFP   1)
           H         -2.668649229713     0.510341134904    -1.144729737063 (EFP   1)
           H         -1.332998158716     0.931129001774    -0.589559133411 (EFP   1)
           N          0.987920000000     1.876810000000     2.851740000000 (EFP   2)
           H          1.687981153688     1.188558865774     3.095170401169 (EFP   2)
           H          1.458724430011     2.559045320917     2.272258163830 (EFP   2)
           H          0.757521872514     2.355222149198     3.712518462339 (EFP   2)
           N         -4.127940000000    -0.924660000000    -1.283940000000 (EFP   3)
           H         -4.692779736825    -1.095569920368    -2.105389617263 (EFP   3)
           H         -3.591908731520    -1.769229987144    -1.134698387493 (EFP   3)
           H         -4.775182994204    -0.865933341154    -0.509002112895 (EFP   3)

  ==> QM Geometry <==

    Molecular point group: c1
    Full point group: C2v

    Geometry (in Angstrom), charge = 0, multiplicity = 1:

       Center              X                  Y                   Z               Mass       
    ------------   -----------------  -----------------  -----------------  -----------------
           O          0.000000000000     0.000000000000     0.118720000000    15.994914619560
           H         -0.753299000000     0.000000000000    -0.474880000000     1.007825032070
           H          0.753299000000     0.000000000000    -0.474880000000     1.007825032070

   => Loading Basis Set <=

    Name: 6-31G*
    Role: ORBITAL
    Keyword: BASIS
    atoms 1   entry O          line   136 file /home/psilocaluser/gits/hrw-direct/objdir4/stage/usr/local/psi4/share/psi4/basis/6-31gs.gbs 
    atoms 2-3 entry H          line    35 file /home/psilocaluser/gits/hrw-direct/objdir4/stage/usr/local/psi4/share/psi4/basis/6-31gs.gbs 


         ---------------------------------------------------------
                                   SCF
            by Justin Turney, Rob Parrish, and Andy Simmonett
                              RHF Reference
                        1 Threads,    500 MiB Core
         ---------------------------------------------------------

  ==> Geometry <==

    Molecular point group: c1
    Full point group: C2v

    Geometry (in Angstrom), charge = 0, multiplicity = 1:

       Center              X                  Y                   Z               Mass       
    ------------   -----------------  -----------------  -----------------  -----------------
           O          0.000000000000     0.000000000000     0.118720000000    15.994914619560
           H         -0.753299000000     0.000000000000    -0.474880000000     1.007825032070
           H          0.753299000000     0.000000000000    -0.474880000000     1.007825032070

  Running in c1 symmetry.

  Rotational constants: A =     24.79097  B =     14.73827  C =      9.24318 [cm^-1]
  Rotational constants: A = 743214.66076  B = 441842.28634  C = 277103.70017 [MHz]
  Nuclear repulsion =    9.179387883023500

  Charge       = 0
  Multiplicity = 1
  Electrons    = 10
  Nalpha       = 5
  Nbeta        = 5

  ==> Algorithm <==

  SCF Algorithm Type is PK.
  DIIS enabled.
  MOM disabled.
  Fractional occupation disabled.
  Guess Type is SAD.
  Energy threshold   = 1.00e-12
  Density threshold  = 1.00e-12
  Integral threshold = 0.00e+00

  ==> Primary Basis <==

  Basis Set: 6-31G*
    Blend: 6-31G*
    Number of shells: 10
    Number of basis function: 19
    Number of Cartesian functions: 19
    Spherical Harmonics?: false
    Max angular momentum: 2

  ==> Pre-Iterations <==

   -------------------------------------------------------
    Irrep   Nso     Nmo     Nalpha   Nbeta   Ndocc  Nsocc
   -------------------------------------------------------
     A         19      19       0       0       0       0
   -------------------------------------------------------
    Total      19      19       5       5       5       0
   -------------------------------------------------------

  ==> Integral Setup <==

  Using in-core PK algorithm.
   Calculation information:
      Number of atoms:                   3
      Number of AO shells:              10
      Number of primitives:             23
      Number of atomic orbitals:        19
      Number of basis functions:        19

      Integral cutoff                 1.00e-12
      Number of threads:                 1

  Performing in-core PK
  Using 36290 doubles for integral storage.
  We computed 1540 shell quartets total.
  Whereas there are 1540 unique shell quartets.
  ==> DiskJK: Disk-Based J/K Matrices <==

    J tasked:                  Yes
    K tasked:                  Yes
    wK tasked:                  No
    Memory (MB):               375
    Schwarz Cutoff:          1E-12

    OpenMP threads:              1
  QM/EFP: iterating Total Energy including QM/EFP Induction
  Minimum eigenvalue in the overlap matrix is 2.2347036283E-02.
  Using Symmetric Orthogonalization.

  SCF Guess: Superposition of Atomic Densities via on-the-fly atomic UHF.

  ==> Iterations <==

                        Total Energy        Delta E     RMS |[F,P]|

   @RHF iter   0:   -76.31011611462267   -7.63101e+01   8.94306e-02 
   @RHF iter   1:   -76.14459449672543    1.65522e-01   1.69714e-02 
   @RHF iter   2:   -76.13738748375143    7.20701e-03   8.79505e-03 DIIS
   @RHF iter   3:   -76.16455073336809   -2.71632e-02   1.71753e-03 DIIS
   @RHF iter   4:   -76.16116027038994    3.39046e-03   4.27684e-04 DIIS
   @RHF iter   5:   -76.16227136929223   -1.11110e-03   8.59620e-05 DIIS
   @RHF iter   6:   -76.16234671984532   -7.53506e-05   1.63487e-05 DIIS
   @RHF iter   7:   -76.16240283642610   -5.61166e-05   4.06783e-06 DIIS
   @RHF iter   8:   -76.16239847552033    4.36091e-06   9.20832e-07 DIIS
   @RHF iter   9:   -76.16240231270216   -3.83718e-06   2.05562e-07 DIIS
   @RHF iter  10:   -76.16240221743769    9.52645e-08   5.18916e-08 DIIS
   @RHF iter  11:   -76.16240238693386   -1.69496e-07   5.38856e-09 DIIS
   @RHF iter  12:   -76.16240247316870   -8.62348e-08   1.38479e-09 DIIS
   @RHF iter  13:   -76.16240248060397   -7.43528e-09   3.23861e-10 DIIS
   @RHF iter  14:   -76.16240248610920   -5.50523e-09   1.02460e-10 DIIS
   @RHF iter  15:   -76.16240248639460   -2.85397e-10   2.10276e-11 DIIS
   @RHF iter  16:   -76.16240248676183   -3.67237e-10   3.63926e-12 DIIS
   @RHF iter  17:   -76.16240248676773   -5.89750e-12   8.89278e-13 DIIS
   @RHF iter  18:   -76.16240248677212   -4.39115e-12   3.09198e-13 DIIS
   @RHF iter  19:   -76.16240248676883    3.29692e-12   7.97077e-14 DIIS
   @RHF iter  20:   -76.16240248676948   -6.53699e-13   2.52084e-14 DIIS

    EFP Results
  ------------------------------------------------------------
    Electrostatics                      0.146693388001 [Eh] *
      EFP/EFP                          -0.016833816209 [Eh] *
      QM-Nuc/EFP                        0.163527204210 [Eh] *

    Exchange                            0.012794993715 [Eh] *
      EFP/EFP                           0.012794993715 [Eh] *
      QM/EFP                            0.000000000000 [Eh] 

    Induction                          -0.092399700064 [Eh] *
      QM/EFP                           -0.092399700064 [Eh] *

    Dispersion                         -0.002921317951 [Eh] *
      EFP/EFP                          -0.002921317951 [Eh] *
      QM/EFP                            0.000000000000 [Eh] 

    Total EFP                           0.064167363701 [Eh]
    EFP excluding EFP Induction         0.156567063765 [Eh]
    SCF including EFP Induction       -76.162402486769 [Eh]
    Total SCF including Total EFP     -76.005835423005 [Eh]

  ==> Post-Iterations <==

    Orbital Energies (a.u.)
    -----------------------

    Doubly Occupied:                                                      

       1A    -20.570202     2A     -1.350966     3A     -0.715480  
       4A     -0.576518     5A     -0.505430  

    Virtual:                                                              

       6A      0.207457     7A      0.300769     8A      1.010320  
       9A      1.132749    10A      1.160958    11A      1.167969  
      12A      1.376422    13A      1.432522    14A      2.013288  
      15A      2.027148    16A      2.063034    17A      2.612568  
      18A      2.935769    19A      3.963597  

    Final Occupation by Irrep:
              A 
    DOCC [     5 ]

  Energy converged.

  @RHF Final Energy:   -76.00583542300454

   => Energetics <=

    Nuclear Repulsion Energy =              9.1793878830234998
    One-Electron Energy =                -123.0615887051467325
    Two-Electron Energy =                  37.8121980354181630
    DFT Exchange-Correlation Energy =       0.0000000000000000
    Empirical Dispersion Energy =           0.0000000000000000
    PCM Polarization Energy =               0.0000000000000000
    EFP Energy =                            0.0641673637005531
    Total Energy =                        -76.0058354230045268

    Alert: EFP and PCM quantities not currently incorporated into SCF psivars.

Properties will be evaluated at   0.000000,   0.000000,   0.000000 Bohr

Properties computed using the SCF density matrix

  Nuclear Dipole Moment: (a.u.)
     X:     0.0000      Y:     0.0000      Z:     0.0000

  Electronic Dipole Moment: (a.u.)
     X:     0.0656      Y:    -0.0071      Z:    -0.8371

  Dipole Moment: (a.u.)
     X:     0.0656      Y:    -0.0071      Z:    -0.8371     Total:     0.8397

  Dipole Moment: (Debye)
     X:     0.1668      Y:    -0.0180      Z:    -2.1278     Total:     2.1344


*** tstop() called on psinet at Mon May 15 15:40:40 2017
Module time:
	user time   =       0.62 seconds =       0.01 minutes
	system time =       0.11 seconds =       0.00 minutes
	total time  =          1 seconds =       0.02 minutes
Total time:
	user time   =       0.62 seconds =       0.01 minutes
	system time =       0.11 seconds =       0.00 minutes
	total time  =          1 seconds =       0.02 minutes


  Variable Map:
  ----------------------------------------------------------------------------
  "CURRENT DIPOLE X"         =>       0.166835976920
  "CURRENT DIPOLE Y"         =>      -0.017970451362
  "CURRENT DIPOLE Z"         =>      -2.127757960943
  "CURRENT ENERGY"           =>     -76.005835423005
  "CURRENT REFERENCE ENERGY" =>     -76.005835423005
  "EFP DISP ENERGY"          =>      -0.002921317951
  "EFP ELST ENERGY"          =>       0.146693388001
  "EFP EXCH ENERGY"          =>       0.012794993715
  "EFP IND ENERGY"           =>      -0.092399700064
  "EFP TOTAL ENERGY"         =>       0.064167363701
  "HF TOTAL ENERGY"          =>     -76.070002786705
  "NUCLEAR REPULSION ENERGY" =>       9.179387883023
  "ONE-ELECTRON ENERGY"      =>    -123.061588705147
  "PCM POLARIZATION ENERGY"  =>       0.000000000000
  "SCF DIPOLE X"             =>       0.166835976920
  "SCF DIPOLE Y"             =>      -0.017970451362
  "SCF DIPOLE Z"             =>      -2.127757960943
  "SCF ITERATION ENERGY"     =>     -76.162402486769
  "SCF ITERATIONS"           =>      20.000000000000
  "SCF TOTAL ENERGY"         =>     -76.005835423005
  "TWO-ELECTRON ENERGY"      =>      37.812198035418


	QM NRE............................................................PASSED
	Tot Elst..........................................................PASSED
	efp Disp..........................................................PASSED
	efp Exch..........................................................PASSED
	Corr EFP..........................................................PASSED
	Tot Indc..........................................................PASSED
	Tot EFP...........................................................PASSED
	Tot SCF...........................................................PASSED

*** tstart() called on psinet
*** at Mon May 15 15:40:40 2017



LIBEFP ver. 1.4.2
Copyright (c) 2012-2017 Ilya Kaliman

Journal References:
  - Kaliman and Slipchenko, JCC 2013.
    DOI: http://dx.doi.org/10.1002/jcc.23375
  - Kaliman and Slipchenko, JCC 2015.
    DOI: http://dx.doi.org/10.1002/jcc.23772

Project web site: https://libefp.github.io/


  ==> EFP/EFP Setup <==

  Number of EFP fragments:            3
  Electrostatics enabled?:         true
  Polarization enabled?:           true
  Dispersion enabled?:             true
  Exchange enabled?:               true
  Electrostatics damping:        SCREEN
  Polarization damping:              TT
  Dispersion damping:           OVERLAP
  Gradient enabled?:              false

  ==> QM/EFP Setup <==

  Number of QM fragments:             1
  Electrostatics enabled?:         true
  Polarization enabled?:           true
  Dispersion enabled?:        undefined
  Exchange enabled?:          undefined

  ==> EFP Geometry <==

    Geometry (in Angstrom):

       Center              X                  Y                   Z       
    ------------   -----------------  -----------------  -----------------
           O         -2.139720000000     1.289640000000    -0.964180000000 (EFP   1)
           H         -2.668649229713     0.510341134904    -1.144729737063 (EFP   1)
           H         -1.332998158716     0.931129001774    -0.589559133411 (EFP   1)
           N          0.987920000000     1.876810000000     2.851740000000 (EFP   2)
           H          1.687981153688     1.188558865774     3.095170401169 (EFP   2)
           H          1.458724430011     2.559045320917     2.272258163830 (EFP   2)
           H          0.757521872514     2.355222149198     3.712518462339 (EFP   2)
           N         -4.127940000000    -0.924660000000    -1.283940000000 (EFP   3)
           H         -4.692779736825    -1.095569920368    -2.105389617263 (EFP   3)
           H         -3.591908731520    -1.769229987144    -1.134698387493 (EFP   3)
           H         -4.775182994204    -0.865933341154    -0.509002112895 (EFP   3)

  ==> QM Geometry <==

    Molecular point group: c1
    Full point group: C2v

    Geometry (in Angstrom), charge = 0, multiplicity = 1:

       Center              X                  Y                   Z               Mass       
    ------------   -----------------  -----------------  -----------------  -----------------
           O          0.000000000000     0.000000000000     0.118720000000    15.994914619560
           H         -0.753299000000     0.000000000000    -0.474880000000     1.007825032070
           H          0.753299000000     0.000000000000    -0.474880000000     1.007825032070

   => Loading Basis Set <=

    Name: CC-PVDZ
    Role: ORBITAL
    Keyword: BASIS
    atoms 1   entry O          line   190 file /home/psilocaluser/gits/hrw-direct/objdir4/stage/usr/local/psi4/share/psi4/basis/cc-pvdz.gbs 
    atoms 2-3 entry H          line    20 file /home/psilocaluser/gits/hrw-direct/objdir4/stage/usr/local/psi4/share/psi4/basis/cc-pvdz.gbs 


         ---------------------------------------------------------
                                   SCF
            by Justin Turney, Rob Parrish, and Andy Simmonett
                              RHF Reference
                        1 Threads,    500 MiB Core
         ---------------------------------------------------------

  ==> Geometry <==

    Molecular point group: c1
    Full point group: C2v

    Geometry (in Angstrom), charge = 0, multiplicity = 1:

       Center              X                  Y                   Z               Mass       
    ------------   -----------------  -----------------  -----------------  -----------------
           O          0.000000000000     0.000000000000     0.118720000000    15.994914619560
           H         -0.753299000000     0.000000000000    -0.474880000000     1.007825032070
           H          0.753299000000     0.000000000000    -0.474880000000     1.007825032070

  Running in c1 symmetry.

  Rotational constants: A =     24.79097  B =     14.73827  C =      9.24318 [cm^-1]
  Rotational constants: A = 743214.66076  B = 441842.28634  C = 277103.70017 [MHz]
  Nuclear repulsion =    9.179387883023500

  Charge       = 0
  Multiplicity = 1
  Electrons    = 10
  Nalpha       = 5
  Nbeta        = 5

  ==> Algorithm <==

  SCF Algorithm Type is PK.
  DIIS enabled.
  MOM disabled.
  Fractional occupation disabled.
  Guess Type is SAD.
  Energy threshold   = 1.00e-10
  Density threshold  = 1.00e-07
  Integral threshold = 0.00e+00

  ==> Primary Basis <==

  Basis Set: CC-PVDZ
    Blend: CC-PVDZ
    Number of shells: 12
    Number of basis function: 24
    Number of Cartesian functions: 25
    Spherical Harmonics?: true
    Max angular momentum: 2

  ==> Pre-Iterations <==

   -------------------------------------------------------
    Irrep   Nso     Nmo     Nalpha   Nbeta   Ndocc  Nsocc
   -------------------------------------------------------
     A         24      24       0       0       0       0
   -------------------------------------------------------
    Total      24      24       5       5       5       0
   -------------------------------------------------------

  ==> Integral Setup <==

  Using in-core PK algorithm.
   Calculation information:
      Number of atoms:                   3
      Number of AO shells:              12
      Number of primitives:             32
      Number of atomic orbitals:        25
      Number of basis functions:        24

      Integral cutoff                 1.00e-12
      Number of threads:                 1

  Performing in-core PK
  Using 90300 doubles for integral storage.
  We computed 3081 shell quartets total.
  Whereas there are 3081 unique shell quartets.
  ==> DiskJK: Disk-Based J/K Matrices <==

    J tasked:                  Yes
    K tasked:                  Yes
    wK tasked:                  No
    Memory (MB):               375
    Schwarz Cutoff:          1E-12

    OpenMP threads:              1
  QM/EFP: iterating Total Energy including QM/EFP Induction
  Minimum eigenvalue in the overlap matrix is 3.4173222416E-02.
  Using Symmetric Orthogonalization.

  SCF Guess: Superposition of Atomic Densities via on-the-fly atomic UHF.

  ==> Iterations <==

                        Total Energy        Delta E     RMS |[F,P]|

   @RHF iter   0:   -76.05334734253273   -7.60533e+01   6.95739e-02 
   @RHF iter   1:   -76.17086423315655   -1.17517e-01   9.52669e-03 
   @RHF iter   2:   -76.16511462423202    5.74961e-03   4.51267e-03 DIIS
   @RHF iter   3:   -76.18303844843244   -1.79238e-02   7.76812e-04 DIIS
   @RHF iter   4:   -76.17968957423889    3.34887e-03   1.94547e-04 DIIS
   @RHF iter   5:   -76.18039934531252   -7.09771e-04   5.27049e-05 DIIS
   @RHF iter   6:   -76.18031373631358    8.56090e-05   9.46538e-06 DIIS
   @RHF iter   7:   -76.18035134268150   -3.76064e-05   2.13623e-06 DIIS
   @RHF iter   8:   -76.18034258074012    8.76194e-06   6.04039e-07 DIIS
   @RHF iter   9:   -76.18034562121304   -3.04047e-06   1.29168e-07 DIIS
   @RHF iter  10:   -76.18034611858437   -4.97371e-07   2.06862e-08 DIIS
   @RHF iter  11:   -76.18034637355376   -2.54969e-07   4.03954e-09 DIIS
   @RHF iter  12:   -76.18034641807512   -4.45214e-08   8.16828e-10 DIIS
   @RHF iter  13:   -76.18034643463140   -1.65563e-08   2.70891e-10 DIIS
   @RHF iter  14:   -76.18034643610781   -1.47641e-09   5.34537e-11 DIIS
   @RHF iter  15:   -76.18034643797016   -1.86235e-09   1.63278e-11 DIIS
   @RHF iter  16:   -76.18034643794854    2.16147e-11   4.13955e-12 DIIS

    EFP Results
  ------------------------------------------------------------
    Electrostatics                      0.146693388001 [Eh] *
      EFP/EFP                          -0.016833816209 [Eh] *
      QM-Nuc/EFP                        0.163527204210 [Eh] *

    Exchange                            0.012794993715 [Eh] *
      EFP/EFP                           0.012794993715 [Eh] *
      QM/EFP                            0.000000000000 [Eh] 

    Induction                          -0.084526670399 [Eh] *
      QM/EFP                           -0.084526670399 [Eh] *

    Dispersion                         -0.002921317951 [Eh] *
      EFP/EFP                          -0.002921317951 [Eh] *
      QM/EFP                            0.000000000000 [Eh] 

    Total EFP                           0.072040393366 [Eh]
    EFP excluding EFP Induction         0.156567063765 [Eh]
    SCF including EFP Induction       -76.180346437949 [Eh]
    Total SCF including Total EFP     -76.023779374184 [Eh]

  ==> Post-Iterations <==

    Orbital Energies (a.u.)
    -----------------------

    Doubly Occupied:                                                      

       1A    -20.561504     2A     -1.346945     3A     -0.709188  
       4A     -0.573115     5A     -0.502012  

    Virtual:                                                              

       6A      0.185146     7A      0.259139     8A      0.777027  
       9A      0.845836    10A      1.162555    11A      1.192444  
      12A      1.252153    13A      1.430623    14A      1.452923  
      15A      1.651165    16A      1.859195    17A      1.927973  
      18A      2.432761    19A      2.476304    20A      3.279176  
      21A      3.322076    22A      3.504570    23A      3.848544  
      24A      4.144271  

    Final Occupation by Irrep:
              A 
    DOCC [     5 ]

  Energy converged.

  @RHF Final Energy:   -76.02377937418360

   => Energetics <=

    Nuclear Repulsion Energy =              9.1793878830234998
    One-Electron Energy =                -123.1648852719797702
    Two-Electron Energy =                  37.8896776214093762
    DFT Exchange-Correlation Energy =       0.0000000000000000
    Empirical Dispersion Energy =           0.0000000000000000
    PCM Polarization Energy =               0.0000000000000000
    EFP Energy =                            0.0720403933659696
    Total Energy =                        -76.0237793741809327

    Alert: EFP and PCM quantities not currently incorporated into SCF psivars.

Properties will be evaluated at   0.000000,   0.000000,   0.000000 Bohr

Properties computed using the SCF density matrix

  Nuclear Dipole Moment: (a.u.)
     X:     0.0000      Y:     0.0000      Z:     0.0000

  Electronic Dipole Moment: (a.u.)
     X:     0.0746      Y:    -0.0198      Z:    -0.7703

  Dipole Moment: (a.u.)
     X:     0.0746      Y:    -0.0198      Z:    -0.7703     Total:     0.7741

  Dipole Moment: (Debye)
     X:     0.1896      Y:    -0.0504      Z:    -1.9579     Total:     1.9677


*** tstop() called on psinet at Mon May 15 15:40:40 2017
Module time:
	user time   =       0.66 seconds =       0.01 minutes
	system time =       0.08 seconds =       0.00 minutes
	total time  =          0 seconds =       0.00 minutes
Total time:
	user time   =       1.29 seconds =       0.02 minutes
	system time =       0.19 seconds =       0.00 minutes
	total time  =          1 seconds =       0.02 minutes


  Variable Map:
  ----------------------------------------------------------------------------
  "CURRENT DIPOLE X"         =>       0.189630122746
  "CURRENT DIPOLE Y"         =>      -0.050447123685
  "CURRENT DIPOLE Z"         =>      -1.957873725340
  "CURRENT ENERGY"           =>     -76.023779374184
  "CURRENT REFERENCE ENERGY" =>     -76.023779374184
  "EFP DISP ENERGY"          =>      -0.002921317951
  "EFP ELST ENERGY"          =>       0.146693388001
  "EFP EXCH ENERGY"          =>       0.012794993715
  "EFP IND ENERGY"           =>      -0.084526670399
  "EFP TOTAL ENERGY"         =>       0.072040393366
  "HF TOTAL ENERGY"          =>     -76.095819767547
  "NUCLEAR REPULSION ENERGY" =>       9.179387883023
  "ONE-ELECTRON ENERGY"      =>    -123.164885271980
  "PCM POLARIZATION ENERGY"  =>       0.000000000000
  "SCF DIPOLE X"             =>       0.189630122746
  "SCF DIPOLE Y"             =>      -0.050447123685
  "SCF DIPOLE Z"             =>      -1.957873725340
  "SCF ITERATION ENERGY"     =>     -76.180346437949
  "SCF ITERATIONS"           =>      16.000000000000
  "SCF TOTAL ENERGY"         =>     -76.023779374184
  "TWO-ELECTRON ENERGY"      =>      37.889677621409


	QM NRE............................................................PASSED
	Tot Elst..........................................................PASSED
	efp Disp..........................................................PASSED
	efp Exch..........................................................PASSED
	Corr EFP..........................................................PASSED
	Tot Indc..........................................................PASSED
	Tot EFP...........................................................PASSED
	Tot SCF...........................................................PASSED

*** Psi4 exiting successfully. Buy a developer a beer!
