    -----------------------------------------------------------------------
          Psi4: An Open-Source Ab Initio Electronic Structure Package
                              Psi4 0.5 Driver

                          Git: Rev {master} ad94c93

    J. M. Turney, A. C. Simmonett, R. M. Parrish, E. G. Hohenstein,
    F. A. Evangelista, J. T. Fermann, B. J. Mintz, L. A. Burns, J. J. Wilke,
    M. L. Abrams, N. J. Russ, M. L. Leininger, C. L. Janssen, E. T. Seidl,
    W. D. Allen, H. F. Schaefer, R. A. King, E. F. Valeev, C. D. Sherrill,
    and T. D. Crawford, WIREs Comput. Mol. Sci. 2, 556-565 (2012)
    (doi: 10.1002/wcms.93)

                         Additional Contributions by
    A. E. DePrince, M. Saitow, U. Bozkaya, A. Yu. Sokolov
    -----------------------------------------------------------------------


    Psi4 started on: Fri Mar 18 13:36:42 2016

    Process ID:    432
    PSI4DATADIR: /home/dsmith/Gits/dgas_psi/share
    Memory level set to 256.000 MB

  ==> Input File <==

--------------------------------------------------------------------------
#! EFP on mixed QM (water) and EFP (water + 2 * ammonia) system.
#! An EFP-only calc performed first to test vales against q-chem,
#! both for a native 6D and native 5D basis.

# from Q-Chem (new libefp Q-Chem, not Q-Chem home-brewed EFP)
qc_nre        =   9.1793879214                                         #TEST
qc_elst       =  -0.0168338165  # ELECTROSTATIC ENERGY                 #TEST
qc_indc_631   =  -0.0923997025  # POLARIZATION ENERGY                  #TEST
qc_indc_dz    =  -0.0845266725  # "                                    #TEST
qc_disp       =  -0.0029213180  # DISPERSION ENERGY                    #TEST
qc_exch       =   0.0127949942  # EXCHANGE-REPULSION ENERGY            #TEST
qc_qelst      =   0.1635272065  # QM-NUC/EFP ELECTROSTATIC ENERGY      #TEST
qc_efptot_631 =   0.0641673637  # TOTAL EFP ENERGY                     #TEST
qc_efptot_dz  =   0.0720403937  # "                                    #TEST
qc_efpcor     =   0.1565670662  # EFP CORRECTION TO SCF ENERGY         #TEST
qc_scftot_631 = -76.0058354285  # Total energy in the final basis set  #TEST
qc_scftot_dz  = -76.0237793795  # "                                    #TEST


molecule qmefp {
# QM fragment
0 1
O    0         0.0   0.118720
H   -0.753299, 0.0, -0.474880
H    0.753299, 0.0, -0.474880
# EFP as EFP fragments
--
efp water
    -2.13972    1.28964   -0.96418
    -2.66865    0.51034   -1.14473
    -1.33300    0.93113   -0.58956
--
efp ammonia
     0.98792    1.87681    2.85174
     1.68798    1.18856    3.09517
     1.45873    2.55904    2.27226
--
efp ammonia
    -4.12794   -0.92466   -1.28394
    -4.69278   -1.09557   -2.10539
    -3.59191   -1.76923   -1.13470
}

set basis 6-31g*
set e_convergence 12
set d_convergence 12
set scf_type pk
energy('scf')
print_variables()

print('      basis 6-31G*')
compare_values(qc_nre, qmefp.nuclear_repulsion_energy(), 6, 'QM NRE')  #TEST
compare_values(qc_elst + qc_qelst, get_variable('EFP ELST ENERGY'), 6, 'Tot Elst')  #TEST
compare_values(qc_disp, get_variable('EFP DISP ENERGY'), 6, 'efp Disp')  #TEST
compare_values(qc_exch, get_variable('EFP EXCH ENERGY'), 6, 'efp Exch')  #TEST
compare_values(qc_efpcor, get_variable('EFP ELST ENERGY') + get_variable('EFP EXCH ENERGY') + get_variable('EFP DISP ENERGY'), 6, 'Corr EFP')  #TEST
compare_values(qc_indc_631, get_variable('EFP IND ENERGY'), 6, 'Tot Indc')  #TEST
compare_values(qc_efptot_631, get_variable('EFP TOTAL ENERGY'), 6, 'Tot EFP')  #TEST
compare_values(qc_scftot_631, get_variable('SCF TOTAL ENERGY'), 6, 'Tot SCF')  #TEST

clean()

set basis cc-pvdz
set e_convergence 10
set d_convergence 7
set guess sad
set scf_type pk
energy('scf')
print_variables()

print('      basis cc-pVDZ')
compare_values(qc_nre, qmefp.nuclear_repulsion_energy(), 6, 'QM NRE')  #TEST
compare_values(qc_elst + qc_qelst, get_variable('EFP ELST ENERGY'), 6, 'Tot Elst')  #TEST
compare_values(qc_disp, get_variable('EFP DISP ENERGY'), 6, 'efp Disp')  #TEST
compare_values(qc_exch, get_variable('EFP EXCH ENERGY'), 6, 'efp Exch')  #TEST
compare_values(qc_efpcor, get_variable('EFP ELST ENERGY') + get_variable('EFP EXCH ENERGY') + get_variable('EFP DISP ENERGY'), 6, 'Corr EFP')  #TEST
compare_values(qc_indc_dz, get_variable('EFP IND ENERGY'), 6, 'Tot Indc')  #TEST
compare_values(qc_efptot_dz, get_variable('EFP TOTAL ENERGY'), 6, 'Tot EFP')  #TEST
compare_values(qc_scftot_dz, get_variable('SCF TOTAL ENERGY'), 6, 'Tot SCF')  #TEST

--------------------------------------------------------------------------
  EFP fragment ammonia read from /home/dsmith/Gits/dgas_psi/share/efpfrag/ammonia.efp
  EFP fragment water read from /home/dsmith/Gits/dgas_psi/share/efpfrag/water.efp


LIBEFP ver. 1.2.1
Copyright (c) 2012-2014 Ilya Kaliman

Journal Reference:
    Kaliman and Slipchenko, JCC 2013.
    DOI: http://dx.doi.org/10.1002/jcc.23375

Project web site: http://www.libefp.org/


  ==> EFP/EFP Setup <==

  Number of EFP fragments:            3
  Electrostatics enabled?:         true
  Polarization enabled?:           true
  Dispersion enabled?:             true
  Exchange enabled?:               true
  Electrostatics damping:        SCREEN
  Polarization damping:              TT
  Dispersion damping:           OVERLAP
  Gradient enabled?:              false

  ==> QM/EFP Setup <==

  Number of QM fragments:             1
  Electrostatics enabled?:         true
  Polarization enabled?:           true
  Dispersion enabled?:        undefined
  Exchange enabled?:          undefined

  ==> EFP Geometry <==

    Geometry (in Angstrom):

       Center              X                  Y                   Z       
    ------------   -----------------  -----------------  -----------------
           O         -2.139720000000     1.289640000000    -0.964180000000 (EFP   1)
           H         -2.668649229713     0.510341134904    -1.144729737063 (EFP   1)
           H         -1.332998158716     0.931129001774    -0.589559133411 (EFP   1)
           N          0.987920000000     1.876810000000     2.851740000000 (EFP   2)
           H          1.687981153688     1.188558865774     3.095170401169 (EFP   2)
           H          1.458724430011     2.559045320917     2.272258163830 (EFP   2)
           H          0.757521872514     2.355222149198     3.712518462339 (EFP   2)
           N         -4.127940000000    -0.924660000000    -1.283940000000 (EFP   3)
           H         -4.692779736825    -1.095569920368    -2.105389617263 (EFP   3)
           H         -3.591908731520    -1.769229987144    -1.134698387493 (EFP   3)
           H         -4.775182994204    -0.865933341154    -0.509002112895 (EFP   3)

  ==> QM Geometry <==

    Molecular point group: c1
    Full point group: C2v

    Geometry (in Angstrom), charge = 0, multiplicity = 1:

       Center              X                  Y                   Z               Mass       
    ------------   -----------------  -----------------  -----------------  -----------------
           O          0.000000000000     0.000000000000     0.118720000000    15.994914619560
           H         -0.753299000000     0.000000000000    -0.474880000000     1.007825032070
           H          0.753299000000     0.000000000000    -0.474880000000     1.007825032070


*** tstart() called on ds1.sherrill.chemistry.gatech.edu
*** at Fri Mar 18 13:36:42 2016


         ---------------------------------------------------------
                                   SCF
            by Justin Turney, Rob Parrish, and Andy Simmonett
                              RHF Reference
                        1 Threads,    256 MiB Core
         ---------------------------------------------------------

  ==> Geometry <==

    Molecular point group: c1
    Full point group: C2v

    Geometry (in Angstrom), charge = 0, multiplicity = 1:

       Center              X                  Y                   Z               Mass       
    ------------   -----------------  -----------------  -----------------  -----------------
           O          0.000000000000     0.000000000000     0.118720000000    15.994914619560
           H         -0.753299000000     0.000000000000    -0.474880000000     1.007825032070
           H          0.753299000000     0.000000000000    -0.474880000000     1.007825032070

  Running in c1 symmetry.

  Rotational constants: A =     24.79097  B =     14.73827  C =      9.24318 [cm^-1]
  Rotational constants: A = 743214.66076  B = 441842.28634  C = 277103.70017 [MHz]
  Nuclear repulsion =    9.179387883023500

  Charge       = 0
  Multiplicity = 1
  Electrons    = 10
  Nalpha       = 5
  Nbeta        = 5

  ==> Algorithm <==

  SCF Algorithm Type is PK.
  DIIS enabled.
  MOM disabled.
  Fractional occupation disabled.
  Guess Type is CORE.
  Energy threshold   = 1.00e-12
  Density threshold  = 1.00e-12
  Integral threshold = 0.00e+00

  ==> Primary Basis <==

  Basis Set: 6-31G*
    Number of shells: 10
    Number of basis function: 19
    Number of Cartesian functions: 19
    Spherical Harmonics?: false
    Max angular momentum: 2

  ==> Pre-Iterations <==

   -------------------------------------------------------
    Irrep   Nso     Nmo     Nalpha   Nbeta   Ndocc  Nsocc
   -------------------------------------------------------
     A         19      19       0       0       0       0
   -------------------------------------------------------
    Total      19      19       5       5       5       0
   -------------------------------------------------------

  ==> Integral Setup <==

	Batch   1 pq = [       0,     190] index = [             0,18145]
  ==> DiskJK: Disk-Based J/K Matrices <==

    J tasked:                  Yes
    K tasked:                  Yes
    wK tasked:                  No
    Memory (MB):               183
    Schwarz Cutoff:          1E-12

  QM/EFP: iterating Total Energy including QM/EFP Induction
  Minimum eigenvalue in the overlap matrix is 2.2347036283E-02.
  Using Symmetric Orthogonalization.
  SCF Guess: Core (One-Electron) Hamiltonian.

  ==> Iterations <==

                        Total Energy        Delta E     RMS |[F,P]|

   @RHF iter   1:   -69.18378400783759   -6.91838e+01   1.74114e-01 
   @RHF iter   2:   -70.59725475748712   -1.41347e+00   1.29461e-01 DIIS
   @RHF iter   3:   -76.03185018586008   -5.43460e+00   4.52802e-02 DIIS
   @RHF iter   4:   -76.11996322230502   -8.81130e-02   1.02856e-02 DIIS
   @RHF iter   5:   -76.15662364658571   -3.66604e-02   1.73267e-03 DIIS
   @RHF iter   6:   -76.15945587695494   -2.83223e-03   5.65839e-04 DIIS
   @RHF iter   7:   -76.16088874690803   -1.43287e-03   1.59139e-04 DIIS
   @RHF iter   8:   -76.16215746378573   -1.26872e-03   4.71770e-05 DIIS
   @RHF iter   9:   -76.16228682700068   -1.29363e-04   4.96703e-06 DIIS
   @RHF iter  10:   -76.16238443952697   -9.76125e-05   2.03815e-06 DIIS
   @RHF iter  11:   -76.16239545637545   -1.10168e-05   3.53941e-07 DIIS
   @RHF iter  12:   -76.16240221473326   -6.75836e-06   1.04086e-07 DIIS
   @RHF iter  13:   -76.16240226767897   -5.29457e-08   2.16372e-08 DIIS
   @RHF iter  14:   -76.16240248121260   -2.13534e-07   2.77190e-09 DIIS
   @RHF iter  15:   -76.16240248152577   -3.13179e-10   5.91729e-10 DIIS
   @RHF iter  16:   -76.16240248685648   -5.33070e-09   1.85255e-10 DIIS
   @RHF iter  17:   -76.16240248656312    2.93355e-10   4.59062e-11 DIIS
   @RHF iter  18:   -76.16240248666315   -1.00030e-10   7.08282e-12 DIIS
   @RHF iter  19:   -76.16240248677367   -1.10518e-10   1.56487e-12 DIIS
   @RHF iter  20:   -76.16240248676966    4.00746e-12   4.21978e-13 DIIS
   @RHF iter  21:   -76.16240248677016   -4.97380e-13   1.12442e-13 DIIS

    EFP Results
  ------------------------------------------------------------
    Electrostatics                      0.146693388002 [H] *
      EFP/EFP                          -0.016833816209 [H] *
      QM-Nuc/EFP                        0.163527204210 [H] *

    Exchange                            0.012794993715 [H] *
      EFP/EFP                           0.012794993715 [H] *
      QM/EFP                            0.000000000000 [H] 

    Induction                          -0.092399700064 [H] *
      QM/EFP                           -0.092399700064 [H] *

    Dispersion                         -0.002921317951 [H] *
      EFP/EFP                          -0.002921317951 [H] *
      QM/EFP                            0.000000000000 [H] 

    Total EFP                           0.064167363701 [H]
    EFP excluding EFP Induction         0.156567063765 [H]
    SCF including EFP Induction       -76.162402486770 [H]
    Total SCF including Total EFP     -76.005835423005 [H]

  ==> Post-Iterations <==

    Orbital Energies (a.u.)
    -----------------------

    Doubly Occupied:                                                      

       1A    -20.570202     2A     -1.350966     3A     -0.715480  
       4A     -0.576518     5A     -0.505430  

    Virtual:                                                              

       6A      0.207457     7A      0.300769     8A      1.010320  
       9A      1.132749    10A      1.160958    11A      1.167969  
      12A      1.376422    13A      1.432522    14A      2.013288  
      15A      2.027148    16A      2.063034    17A      2.612568  
      18A      2.935769    19A      3.963597  

    Final Occupation by Irrep:
              A 
    DOCC [     5 ]

  Energy converged.

  @RHF Final Energy:   -76.00583542300522

   => Energetics <=

    Nuclear Repulsion Energy =              9.1793878830234998
    One-Electron Energy =                -123.0615887051462494
    Two-Electron Energy =                  37.8121980354166709
    DFT Exchange-Correlation Energy =       0.0000000000000000
    Empirical Dispersion Energy =           0.0000000000000000
    PCM Polarization Energy =               0.0000000000000000
    EFP Energy =                            0.0641673637006669
    Total Energy =                        -76.0058354230054221

    Alert: EFP and PCM quantities not currently incorporated into SCF psivars.

Properties will be evaluated at   0.000000,   0.000000,   0.000000 Bohr
  ==> Properties <==


Properties computed using the SCF density matrix

  Nuclear Dipole Moment: (a.u.)
     X:     0.0000      Y:     0.0000      Z:     0.0000

  Electronic Dipole Moment: (a.u.)
     X:     0.0656      Y:    -0.0071      Z:    -0.8371

  Dipole Moment: (a.u.)
     X:     0.0656      Y:    -0.0071      Z:    -0.8371     Total:     0.8397

  Dipole Moment: (Debye)
     X:     0.1668      Y:    -0.0180      Z:    -2.1278     Total:     2.1344


  Saving occupied orbitals to File 180.

*** tstop() called on ds1.sherrill.chemistry.gatech.edu at Fri Mar 18 13:36:42 2016
Module time:
	user time   =       0.20 seconds =       0.00 minutes
	system time =       0.07 seconds =       0.00 minutes
	total time  =          0 seconds =       0.00 minutes
Total time:
	user time   =       0.20 seconds =       0.00 minutes
	system time =       0.07 seconds =       0.00 minutes
	total time  =          0 seconds =       0.00 minutes


  Variable Map:
  ----------------------------------------------------------------------------
  "CURRENT DIPOLE X"         =>       0.166835976922
  "CURRENT DIPOLE Y"         =>      -0.017970451362
  "CURRENT DIPOLE Z"         =>      -2.127757960944
  "CURRENT ENERGY"           =>     -76.005835423005
  "CURRENT REFERENCE ENERGY" =>     -76.005835423005
  "EFP DISP ENERGY"          =>      -0.002921317951
  "EFP ELST ENERGY"          =>       0.146693388002
  "EFP EXCH ENERGY"          =>       0.012794993715
  "EFP IND ENERGY"           =>      -0.092399700064
  "EFP TOTAL ENERGY"         =>       0.064167363701
  "HF TOTAL ENERGY"          =>     -76.070002786706
  "NUCLEAR REPULSION ENERGY" =>       9.179387883023
  "ONE-ELECTRON ENERGY"      =>    -123.061588705146
  "SCF DIPOLE X"             =>       0.166835976922
  "SCF DIPOLE Y"             =>      -0.017970451362
  "SCF DIPOLE Z"             =>      -2.127757960944
  "SCF ITERATION ENERGY"     =>     -76.162402486770
  "SCF TOTAL ENERGY"         =>     -76.005835423005
  "TWO-ELECTRON ENERGY"      =>      37.812198035417


	QM NRE............................................................PASSED
	Tot Elst..........................................................PASSED
	efp Disp..........................................................PASSED
	efp Exch..........................................................PASSED
	Corr EFP..........................................................PASSED
	Tot Indc..........................................................PASSED
	Tot EFP...........................................................PASSED
	Tot SCF...........................................................PASSED


LIBEFP ver. 1.2.1
Copyright (c) 2012-2014 Ilya Kaliman

Journal Reference:
    Kaliman and Slipchenko, JCC 2013.
    DOI: http://dx.doi.org/10.1002/jcc.23375

Project web site: http://www.libefp.org/


  ==> EFP/EFP Setup <==

  Number of EFP fragments:            3
  Electrostatics enabled?:         true
  Polarization enabled?:           true
  Dispersion enabled?:             true
  Exchange enabled?:               true
  Electrostatics damping:        SCREEN
  Polarization damping:              TT
  Dispersion damping:           OVERLAP
  Gradient enabled?:              false

  ==> QM/EFP Setup <==

  Number of QM fragments:             1
  Electrostatics enabled?:         true
  Polarization enabled?:           true
  Dispersion enabled?:        undefined
  Exchange enabled?:          undefined

  ==> EFP Geometry <==

    Geometry (in Angstrom):

       Center              X                  Y                   Z       
    ------------   -----------------  -----------------  -----------------
           O         -2.139720000000     1.289640000000    -0.964180000000 (EFP   1)
           H         -2.668649229713     0.510341134904    -1.144729737063 (EFP   1)
           H         -1.332998158716     0.931129001774    -0.589559133411 (EFP   1)
           N          0.987920000000     1.876810000000     2.851740000000 (EFP   2)
           H          1.687981153688     1.188558865774     3.095170401169 (EFP   2)
           H          1.458724430011     2.559045320917     2.272258163830 (EFP   2)
           H          0.757521872514     2.355222149198     3.712518462339 (EFP   2)
           N         -4.127940000000    -0.924660000000    -1.283940000000 (EFP   3)
           H         -4.692779736825    -1.095569920368    -2.105389617263 (EFP   3)
           H         -3.591908731520    -1.769229987144    -1.134698387493 (EFP   3)
           H         -4.775182994204    -0.865933341154    -0.509002112895 (EFP   3)

  ==> QM Geometry <==

    Molecular point group: c1
    Full point group: C2v

    Geometry (in Angstrom), charge = 0, multiplicity = 1:

       Center              X                  Y                   Z               Mass       
    ------------   -----------------  -----------------  -----------------  -----------------
           O          0.000000000000     0.000000000000     0.118720000000    15.994914619560
           H         -0.753299000000     0.000000000000    -0.474880000000     1.007825032070
           H          0.753299000000     0.000000000000    -0.474880000000     1.007825032070


*** tstart() called on ds1.sherrill.chemistry.gatech.edu
*** at Fri Mar 18 13:36:42 2016


         ---------------------------------------------------------
                                   SCF
            by Justin Turney, Rob Parrish, and Andy Simmonett
                              RHF Reference
                        1 Threads,    256 MiB Core
         ---------------------------------------------------------

  ==> Geometry <==

    Molecular point group: c1
    Full point group: C2v

    Geometry (in Angstrom), charge = 0, multiplicity = 1:

       Center              X                  Y                   Z               Mass       
    ------------   -----------------  -----------------  -----------------  -----------------
           O          0.000000000000     0.000000000000     0.118720000000    15.994914619560
           H         -0.753299000000     0.000000000000    -0.474880000000     1.007825032070
           H          0.753299000000     0.000000000000    -0.474880000000     1.007825032070

  Running in c1 symmetry.

  Rotational constants: A =     24.79097  B =     14.73827  C =      9.24318 [cm^-1]
  Rotational constants: A = 743214.66076  B = 441842.28634  C = 277103.70017 [MHz]
  Nuclear repulsion =    9.179387883023500

  Charge       = 0
  Multiplicity = 1
  Electrons    = 10
  Nalpha       = 5
  Nbeta        = 5

  ==> Algorithm <==

  SCF Algorithm Type is PK.
  DIIS enabled.
  MOM disabled.
  Fractional occupation disabled.
  Guess Type is SAD.
  Energy threshold   = 1.00e-10
  Density threshold  = 1.00e-07
  Integral threshold = 0.00e+00

  ==> Primary Basis <==

  Basis Set: CC-PVDZ
    Number of shells: 12
    Number of basis function: 24
    Number of Cartesian functions: 25
    Spherical Harmonics?: true
    Max angular momentum: 2

  ==> Pre-Iterations <==

   -------------------------------------------------------
    Irrep   Nso     Nmo     Nalpha   Nbeta   Ndocc  Nsocc
   -------------------------------------------------------
     A         24      24       0       0       0       0
   -------------------------------------------------------
    Total      24      24       5       5       5       0
   -------------------------------------------------------

  ==> Integral Setup <==

	Batch   1 pq = [       0,     300] index = [             0,45150]
  ==> DiskJK: Disk-Based J/K Matrices <==

    J tasked:                  Yes
    K tasked:                  Yes
    wK tasked:                  No
    Memory (MB):               183
    Schwarz Cutoff:          1E-12

  QM/EFP: iterating Total Energy including QM/EFP Induction
  Minimum eigenvalue in the overlap matrix is 3.4173222416E-02.
  Using Symmetric Orthogonalization.
  SCF Guess: Superposition of Atomic Densities via on-the-fly atomic UHF.

  ==> Iterations <==

                        Total Energy        Delta E     RMS |[F,P]|

   @RHF iter   0:   -76.18944999075404   -7.61894e+01   7.06120e-02 
   @RHF iter   1:   -76.18362018648301    5.82980e-03   1.28625e-02 
   @RHF iter   2:   -76.13824783939937    4.53723e-02   6.42402e-03 DIIS
   @RHF iter   3:   -76.18139437830419   -4.31465e-02   1.24199e-03 DIIS
   @RHF iter   4:   -76.17627074633907    5.12363e-03   3.28577e-04 DIIS
   @RHF iter   5:   -76.17928763982290   -3.01689e-03   6.08339e-05 DIIS
   @RHF iter   6:   -76.18005744802007   -7.69808e-04   1.22054e-05 DIIS
   @RHF iter   7:   -76.18029620959673   -2.38762e-04   1.98821e-06 DIIS
   @RHF iter   8:   -76.18034162348944   -4.54139e-05   5.67224e-07 DIIS
   @RHF iter   9:   -76.18034541714118   -3.79365e-06   1.11460e-07 DIIS
   @RHF iter  10:   -76.18034705702134   -1.63988e-06   2.88146e-08 DIIS
   @RHF iter  11:   -76.18034643097056    6.26051e-07   1.00752e-08 DIIS
   @RHF iter  12:   -76.18034650845554   -7.74850e-08   1.79114e-09 DIIS
   @RHF iter  13:   -76.18034644751526    6.09403e-08   4.59490e-10 DIIS
   @RHF iter  14:   -76.18034644120961    6.30565e-09   1.29818e-10 DIIS
   @RHF iter  15:   -76.18034643885217    2.35744e-09   2.79262e-11 DIIS
   @RHF iter  16:   -76.18034643801408    8.38085e-10   4.75571e-12 DIIS
   @RHF iter  17:   -76.18034643802754   -1.34577e-11   9.68859e-13 DIIS

    EFP Results
  ------------------------------------------------------------
    Electrostatics                      0.146693388002 [H] *
      EFP/EFP                          -0.016833816209 [H] *
      QM-Nuc/EFP                        0.163527204210 [H] *

    Exchange                            0.012794993715 [H] *
      EFP/EFP                           0.012794993715 [H] *
      QM/EFP                            0.000000000000 [H] 

    Induction                          -0.084526670401 [H] *
      QM/EFP                           -0.084526670401 [H] *

    Dispersion                         -0.002921317951 [H] *
      EFP/EFP                          -0.002921317951 [H] *
      QM/EFP                            0.000000000000 [H] 

    Total EFP                           0.072040393364 [H]
    EFP excluding EFP Induction         0.156567063765 [H]
    SCF including EFP Induction       -76.180346438028 [H]
    Total SCF including Total EFP     -76.023779374263 [H]

  ==> Post-Iterations <==

    Orbital Energies (a.u.)
    -----------------------

    Doubly Occupied:                                                      

       1A    -20.561504     2A     -1.346945     3A     -0.709188  
       4A     -0.573115     5A     -0.502012  

    Virtual:                                                              

       6A      0.185146     7A      0.259139     8A      0.777027  
       9A      0.845836    10A      1.162555    11A      1.192444  
      12A      1.252153    13A      1.430623    14A      1.452923  
      15A      1.651165    16A      1.859195    17A      1.927973  
      18A      2.432761    19A      2.476304    20A      3.279176  
      21A      3.322076    22A      3.504570    23A      3.848544  
      24A      4.144271  

    Final Occupation by Irrep:
              A 
    DOCC [     5 ]

  Energy converged.

  @RHF Final Energy:   -76.02377937426260

   => Energetics <=

    Nuclear Repulsion Energy =              9.1793878830234998
    One-Electron Energy =                -123.1648852722803866
    Two-Electron Energy =                  37.8896776216328206
    DFT Exchange-Correlation Energy =       0.0000000000000000
    Empirical Dispersion Energy =           0.0000000000000000
    PCM Polarization Energy =               0.0000000000000000
    EFP Energy =                            0.0720403933643198
    Total Energy =                        -76.0237793742597603

    Alert: EFP and PCM quantities not currently incorporated into SCF psivars.

Properties will be evaluated at   0.000000,   0.000000,   0.000000 Bohr
  ==> Properties <==


Properties computed using the SCF density matrix

  Nuclear Dipole Moment: (a.u.)
     X:     0.0000      Y:     0.0000      Z:     0.0000

  Electronic Dipole Moment: (a.u.)
     X:     0.0746      Y:    -0.0198      Z:    -0.7703

  Dipole Moment: (a.u.)
     X:     0.0746      Y:    -0.0198      Z:    -0.7703     Total:     0.7741

  Dipole Moment: (Debye)
     X:     0.1896      Y:    -0.0504      Z:    -1.9579     Total:     1.9677


  Saving occupied orbitals to File 180.

*** tstop() called on ds1.sherrill.chemistry.gatech.edu at Fri Mar 18 13:36:43 2016
Module time:
	user time   =       0.40 seconds =       0.01 minutes
	system time =       0.06 seconds =       0.00 minutes
	total time  =          1 seconds =       0.02 minutes
Total time:
	user time   =       0.63 seconds =       0.01 minutes
	system time =       0.13 seconds =       0.00 minutes
	total time  =          1 seconds =       0.02 minutes


  Variable Map:
  ----------------------------------------------------------------------------
  "CURRENT DIPOLE X"         =>       0.189630122662
  "CURRENT DIPOLE Y"         =>      -0.050447123731
  "CURRENT DIPOLE Z"         =>      -1.957873725316
  "CURRENT ENERGY"           =>     -76.023779374263
  "CURRENT REFERENCE ENERGY" =>     -76.023779374263
  "EFP DISP ENERGY"          =>      -0.002921317951
  "EFP ELST ENERGY"          =>       0.146693388002
  "EFP EXCH ENERGY"          =>       0.012794993715
  "EFP IND ENERGY"           =>      -0.084526670401
  "EFP TOTAL ENERGY"         =>       0.072040393364
  "HF TOTAL ENERGY"          =>     -76.095819767624
  "NUCLEAR REPULSION ENERGY" =>       9.179387883023
  "ONE-ELECTRON ENERGY"      =>    -123.164885272280
  "SCF DIPOLE X"             =>       0.189630122662
  "SCF DIPOLE Y"             =>      -0.050447123731
  "SCF DIPOLE Z"             =>      -1.957873725316
  "SCF ITERATION ENERGY"     =>     -76.180346438028
  "SCF TOTAL ENERGY"         =>     -76.023779374263
  "TWO-ELECTRON ENERGY"      =>      37.889677621633


	QM NRE............................................................PASSED
	Tot Elst..........................................................PASSED
	efp Disp..........................................................PASSED
	efp Exch..........................................................PASSED
	Corr EFP..........................................................PASSED
	Tot Indc..........................................................PASSED
	Tot EFP...........................................................PASSED
	Tot SCF...........................................................PASSED

*** PSI4 exiting successfully. Buy a developer a beer!
