    -----------------------------------------------------------------------
          PSI4: An Open-Source Ab Initio Electronic Structure Package
                              PSI 4.0.0-beta4+ Driver

               Git: Rev {c4} ef7097b1d82a7804b2d78ad28247f837c1527697

    J. M. Turney, A. C. Simmonett, R. M. Parrish, E. G. Hohenstein,
    F. A. Evangelista, J. T. Fermann, B. J. Mintz, L. A. Burns, J. J. Wilke,
    M. L. Abrams, N. J. Russ, M. L. Leininger, C. L. Janssen, E. T. Seidl,
    W. D. Allen, H. F. Schaefer, R. A. King, E. F. Valeev, C. D. Sherrill,
    and T. D. Crawford, WIREs Comput. Mol. Sci., (2011) (doi: 10.1002/wcms.93)

                         Additional Contributions by
    A. E. DePrince, M. Saitow, U. Bozkaya, A. Yu. Sokolov
    -----------------------------------------------------------------------

    Process ID:  17578
    PSI4DATADIR: /theoryfs2/ds/loriab/chem/psi4_trials/c4/psi4/lib

    Using LocalCommunicator (Number of processes = 1)

    Memory level set to 256.000 MB

  ==> Input File <==

--------------------------------------------------------------------------
#! single-point CCSD/qz2p on NH2

print '        <<< Literal ZMAT to Cfour >>>'

cfour {
ROHF-CCSD energy calculation 
N
H 1 R
H 1 R 2 A

R=1.008
A=105.0

*ACES2(CALC=CCSD,BASIS=qz2p
MULT=2,REF=ROHF
OCCUPATION=3-1-1-0/3-0-1-0
SCF_CONV=12
PRINT=2
MEMORY=20000000)
}

energy('cfour')

compare_values(-55.5847372601, get_variable('scf total energy'), 6, 'SCF')  #TEST
compare_values(-0.002983751786, get_variable('mp2 singles energy'), 6, 'MP2 singles')  #TEST
compare_values(-0.155770420921, get_variable('mp2 opposite-spin energy'), 6, 'MP2 OS corl')  #TEST
compare_values(-0.041785354569, get_variable('mp2 same-spin energy'), 6, 'MP2 SS corl')  #TEST
compare_values(-0.200539527276, get_variable('mp2 correlation energy'), 6, 'MP2 corl')  #TEST
compare_values(-55.785276787341, get_variable('mp2 total energy'), 6, 'MP2')  #TEST
compare_values(-0.1745752, get_variable('ccsd opposite-spin energy'), 6, 'CCSD OS corl')  #TEST
compare_values(-0.0432743, get_variable('ccsd same-spin energy'), 6, 'CCSD SS corl')  #TEST
compare_values(-0.217849506326, get_variable('ccsd correlation energy'), 6, 'CCSD corl')  #TEST
compare_values(-55.802586766392, get_variable('ccsd total energy'), 6, 'CCSD')  #TEST
compare_values(-0.217849506326, get_variable('current correlation energy'), 6, 'Current corl')  #TEST
compare_values(-55.802586766392, get_variable('current energy'), 6, 'Current')  #TEST

clean()
clean_variables()
cfour {}

print '        <<< Translation of ZMAT to Psi4 format to Cfour >>>'

molecule {
0 2
N
H 1 R
H 1 R 2 A

R=1.008
A=105.0
}

set {
cfour_CALC_level=CCSD
cfour_BASIS=qz2p
cfour_REFerence=ROHF
cfour_OCCUPATION= [[3,1,1,0],[3,0,1,0]]
cfour_SCF_CONV=12
cfour_PRINT=2
}

energy('cfour')

compare_values(-55.5847372601, get_variable('scf total energy'), 6, 'SCF')  #TEST
compare_values(-0.002983751786, get_variable('mp2 singles energy'), 6, 'MP2 singles')  #TEST
compare_values(-0.155770420921, get_variable('mp2 opposite-spin energy'), 6, 'MP2 OS corl')  #TEST
compare_values(-0.041785354569, get_variable('mp2 same-spin energy'), 6, 'MP2 SS corl')  #TEST
compare_values(-0.200539527276, get_variable('mp2 correlation energy'), 6, 'MP2 corl')  #TEST
compare_values(-55.785276787341, get_variable('mp2 total energy'), 6, 'MP2')  #TEST
compare_values(-0.1745752, get_variable('ccsd opposite-spin energy'), 6, 'CCSD OS corl')  #TEST
compare_values(-0.0432743, get_variable('ccsd same-spin energy'), 6, 'CCSD SS corl')  #TEST
compare_values(-0.217849506326, get_variable('ccsd correlation energy'), 6, 'CCSD corl')  #TEST
compare_values(-55.802586766392, get_variable('ccsd total energy'), 6, 'CCSD')  #TEST
compare_values(-0.217849506326, get_variable('current correlation energy'), 6, 'Current corl')  #TEST
compare_values(-55.802586766392, get_variable('current energy'), 6, 'Current')  #TEST

--------------------------------------------------------------------------

  GENBAS loaded from /theoryfs2/ds/cdsgroup/scripts/bin/GENBAS
  CFOUR to be run from /scratch/loriab//psi.17578..cfour.11884
 --invoking executable xjoda


   *************************************************************************
         <<<     CCCCCC     CCCCCC   |||     CCCCCC     CCCCCC   >>>
       <<<      CCC        CCC       |||    CCC        CCC         >>>
      <<<      CCC        CCC        |||   CCC        CCC            >>>
    <<<        CCC        CCC        |||   CCC        CCC              >>>
      <<<      CCC        CCC        |||   CCC        CCC            >>>
       <<<      CCC        CCC       |||    CCC        CCC         >>>
         <<<     CCCCCC     CCCCCC   |||     CCCCCC     CCCCCC   >>>
   *************************************************************************

     ****************************************************************
     * CFOUR Coupled-Cluster techniques for Computational Chemistry *
     ****************************************************************
 

   Department of Chemistry                Institut fuer Physikalische Chemie
   University of Texas at Austin          Universitaet Mainz
   Austin, TX  48792, USA                 D-55099 Mainz, Germany
 
                       version 1.2
 
                     john3                                             
                     Mon Oct 14 02:50:18 EDT 2013                      
                     integer*8 version is running
 
    -------------------------------------------------------------------
                    Input from ZMAT file
    -------------------------------------------------------------------
 
                                                                                
 ROHF-CCSD energy calculation                                                   
 N                                                                              
 H 1 R                                                                          
 H 1 R 2 A                                                                      
                                                                                
 R=1.008                                                                        
 A=105.0                                                                        
                                                                                
 *ACES2(CALC=CCSD,BASIS=qz2p                                                    
 MULT=2,REF=ROHF                                                                
 OCCUPATION=3-1-1-0/3-0-1-0                                                     
 SCF_CONV=12                                                                    
 PRINT=2                                                                        
 MEMORY=20000000)                                                               
                                                                                
 
    -------------------------------------------------------------------
                    CFOUR Control Parameters 
    -------------------------------------------------------------------
        External           Internal           Value            Units
          Name               Name
    -------------------------------------------------------------------
       PRINT                IPRNT               2               ***   
       CALCLEVEL            ICLLVL           CCSD       [ 10]   ***   
       DERIV_LEV            IDRLVL            ZERO      [  0]   ***   
       CC_CONV              ICCCNV          10D-  7             ***   
       SCF_CONV             ISCFCV          10D- 12             ***   
       XFORM_TOL            IXFTOL          10D- 11             ***   
       CC_MAXCYC            ICCCYC             50              cycles 
       LINDEP_TOL           ILINDP              8               ***   
       RDO                  IRDOFM             OFF      [  0]   ***   
  
       SCF_EXTRAPO          IRPP                ON      [  1]   ***   
       REFERENCE            IREFNC             ROHF     [  2]   ***   
       CC_EXPORDER          ICCEOR              5               ***   
       TAMP_SUM             IEVERY              5               ***   
       NTOP_TAMP            ITOPT2             15               ***   
       CCORBOPT             ICCORB             OFF      [  0] x 0.01  
       SCF_MAXCYC           ISCFCY            150              cycles 
       OCCUPATION           IOCCU  A   3,  1,  1,  0,
                                   B   3,  0,  1,  0,
       PROPS                IPROPS             OFF      [  0]   ***   
       RELAX_DENS           IRDENS             OFF      [  0]   ***   
  
       SCF_EXPORDE          IRPPOR              6               ***   
       CC_EXTRAPOL          ICCEXT             DIIS     [  1]   ***   
       BRUECKNER            IBRKNR             OFF      [  0]   ***   
       XFIELD               IXEFLD              0             x 10-6  
       YFIELD               IYEFLD              0             x 10-6  
       ZFIELD               IZEFLD              0             x 10-6  
       SAVE_INTS            ISVINT             OFF      [  0]   ***   
       DROPMO               IDRPMO      NONE         
       CHARGE               ICHRGE              0               ***   
       MULTIPLICTY          IMULTP              2               ***   
  
       CPHF_CONVER          ICPHFT          10D- 16             ***   
       CPHF_MAXCYC          ICPHFC             64              cycles 
       INCORE               INCORE             OFF      [  0]   ***   
       MEMORY_SIZE          IMEMSZ          20000000           words  
       FILE_RECSIZ          IFLREC              4096           words  
       NON-HF               INONHF              ON      [  1]   ***   
       ORBITALS             IORBTP         SEMICANONICAL[  1]   ***   
  
       SCF_EXPSTAR          IRPPLS              8               ***   
       LOCK_ORBOCC          ILOCOC             OFF      [  0]   ***   
       HBAR                 IHBAR              OFF      [  0]   ***   
       CACHE_RECS           ICHREC             10               ***   
       GUESS                IGUESS            MOREAD    [  0]   ***   
       JODA_PRINT           IJPRNT              0               ***   
       GEO_METHOD           INR            SINGLE_POINT [  5]   ***   
       GEO_CONV             ICONTL              5              H/bohr 
       EIGENVECTOR          IVEC                1               ***   
  
       NEGEVAL              IDIE             ABORT      [  0]   ***   
       CURVILINEAR          ICURVY            OFF       [  0]   ***   
       SCALE_ON             ISTCRT              0               ***   
       GEO_MAXSTEP          IMXSTP            300            millibohr
       VIBRATION            IVIB              NO        [  0]   ***   
       EVAL_HESS            IRECAL              0            # of cyc.
       INTEGRALS            INTTYP             VMOL     [  1]   ***   
       FD_STEPSIZE          IDISFD              0            10-4 bohr
       POINTS               IGRDFD              0               ***   
       CONTRACTION          ICNTYP          GENERAL     [  1]   ***   
  
       SYMMETRY             ISYM             ON         [  0]   ***   
       BASIS                IBASIS         qz2p         [ 32]   ***   
       SPHERICAL            IDFGHI             ON       [  1]   ***   
       RESET_FLAGS          IRESET             OFF      [  0]   ***   
       PERT_ORB             IPTORB         STANDARD     [  0]   ***   
       GENBAS_1             IGNBS1              0               ***   
       GENBAS_2             IGNBS2              0               ***   
       GENBAS_3             IGNBS3              0               ***   
       COORDINATES          ICOORD         INTERNAL     [  0]   ***   
       SYM_CHECK            ISYMCK         OVERRIDE     [  1]   ***   
  
       SCF_PRINT            ISCFPR              0               ***   
       ECP                  IECP           OFF          [  0]   ***   
       RESTART_CC           ICCRES         OFF          [  0]   ***   
       TRANS_INV            ITRAIN         USE          [  0]   ***   
       HFSTABILITY          ISTABL         OFF          [  0]   ***   
       ROT_EVEC             ROTVEC              0               ***   
       BRUCK_CONV           IBRTOL          10D-  4             ***   
       UNITS                IUNITS         ANGSTROM     [  0]   ***   
       FD_USEGROUP          IFDGRP         FULL         [  0]   ***   
  
       FD_PROJECT           IFDPRJ         ON           [  0]   ***   
       FD_CALTYPE           IFDCAL         GRADONLY     [  0]   ***   
       VTRAN                IVTRAN         FULL/PARTIAL [  0]   ***   
       HF2_FILE             IHF2Fl         USE          [  1]   ***   
       SUBGROUP             ISUBGP         DEFAULT      [  0]   ***   
       SUBGRPAXIS           ISBXYZ         X            [  0]   ***   
       EXCITE               IEXCIT         NONE         [  0]   ***   
       LINEQ_CONV           IZTACN          10D-  7           cycles  
  
       TREAT_PERT           ITREAT         SIMULTANEOUS [  0]   ***   
       ESTATE_PROP          IEXPRP         OFF          [  0]   ***   
       GEO_MAXCYC           IOPTCY             50               ***   
       ABCDTYPE             IABCDT         STANDARD     [  0]   ***   
       AO_LADDERS           IAOLAD         SINGLEPASS   [  1]   ***   
       FOCK                 IFOCK          AO           [  1]   ***   
       ESTATE_MAXC          IEXMXC             20               ***   
       ESTATE_CONV          IEXTOL          10D-  5             ***   
       DIRECT               IDIRCT         OFF          [  0]   ***   
  
       GAMMA_ABCD           IGABCD         STORE        [  0]   ***   
       LINEQ_TYPE           ILTYPE         DIIS         [  1]   ***   
       LINEQ_MAXCY          ILMAXC             50               ***   
       TRANGRAD             IRESRM         OFF          [  0]   ***   
       PSI                  IPSI           OFF          [  0]   ***   
       GAMMA_ABCI           IGABCI         STORE        [  0]   ***   
       ESTATE_DIAG          IEXDIG         ITERATIVE    [  0]   ***   
       FC_FIELD             IFINFC              0             x 10-6  
       SD_FIELD             IFINSD              0             x 10-6  
       DIFF_TYPE            IDIFTY         RELAXED      [  0]   ***   
  
       LINEQ_EXPOR          ILMAXD              5               ***   
       FINITE_PERT          IFIPER              0             x 10-6  
       ANHARMONIC           IANHAR         OFF          [  0]   ***   
       CC_PROGRAM           ICCPRO         VCC          [  0]   ***   
       OPEN-SHELL           IOPEN          SPIN-ORBITAL [  0]   ***   
       UIJ_THRESHO          IUIJTH             25               ***   
       SCF_DAMPING          IDAMP               0             x 10-3  
       PROP_INTEGR          IINTYP         INTERNAL     [  0]   ***   
       ANH_SYMMETR          IANHSM         ABELIAN      [  0]   ***   
       ANH_ALGORIT          IANALG         STANDARD     [  0]   ***   
  
       EOM_NONIT            EOMNON         OFF          [  0]   ***   
       VIB_ALGORIT          IGEALG         STANDARD     [  0]   ***   
       ANH_DERIVAT          IANDER         SECOND       [  1]   ***   
       SPINROTATIO          ISRCON         OFF          [  0]   ***   
       CIS_CONV             ICISTL              5               ***   
       ANH_STEPSIZ          ICUBST             50000          x 10-6  
       SPIN_FLIP            ISPFLP         OFF          [  0]   ***   
       GRID                 IGRID          OFF          [  0]   ***   
  
       DBOC                 IDBOC          OFF          [  0]   ***   
       EOMFOLLOW            IEOMSR         ENERGY       [  0]   ***   
       T3_EXTRAPOL          IT3EXT         OFF          [  0]   ***   
       ESTATE_LOCK          IESLOC         OFF          [  0]   ***   
       UNOS                 IUNOS          OFF          [  0]   ***   
       FREQ_ALGORI          IVIALG         STANDARD     [  0]   ***   
       RELATIVIST           IRELAT         OFF          [  0]   ***   
       FROZEN_CORE          IFROCO         OFF          [  0]   ***   
       EXCITATION           IEXCIT              0               ***   
       INPUT_MRCC           IMRCC          ON           [  1]   ***   
  
       GIAO                 IGIAO          OFF          [  1]   ***   
       EOM_NSING            IEOMSI          10D-  0             ***   
       EOM_NTRIP            IEOMTR          10D-  0             ***   
       EOM_NSTATES          IMRCCD         DAVIDSON     [  0]   ***   
       DIAG_MRCC            IEOMST          10D-  0             ***   
       NEWNORM              INEWNO         OFF          [  0]   ***   
       TESTSUITE            ITESTS         OFF          [  0]   ***   
       BUFFERSIZE           IBUFFS            600               ***   
       SPINORBIT            ISOCAL         OFF          [  0]   ***   
       DCT                  IDCT           OFF          [  0]   ***   
  
       PARALLEL             IPARAL         ON           [  1]   ***   
       PARA_PRINT           IPPRIN              0               ***   
       COMM_SIZE            IPSIZE            ***               ***   
       PARA_INT             IPINTS         ON           [  1]   ***   
       RAMAN_INT            IRAMIN         OFF          [  0]   ***   
       RAMAN_ORB            IRAMRE         UNRELAXED    [  0]   ***   
       BREIT                IBREIT         OFF          [  0]   ***   
       MEM_UNIT             IMEMU          INTEGERWORDS [  0]   ***   
       SPIN_ORBIT           ISPORB         OFF          [  0]   ***   
       GENBAS_4             IGNBS4              0               ***   
  
       SPIN_SCAL            ISCSMP         OFF          [  0]   ***   
       GRID_ALGO            IGALGO         SERIAL       [  0]   ***   
       VIBPHASE             ISETPH         STANDARD     [  0]   ***   
       SEQUENCE             ISEQUE         OFF          [  0]   ***   
       HESS_TYPE            IHESTP         SCF          [  0]   ***   
       CONTINUUM            ICONTU         NONE         [  0]   ***   
       SCF_NOSTOP           ISCFST         OFF          [  0]   ***   
       CONSTANT             ICONST         OLD          [  1]   ***   
  
       EOM_MRCC             IMRCCE         OLD          [  0]   ***   
       EOM_ORDER            IEXORD         ENERGY       [  0]   ***   
       GIMIC                IGIMIC         OFF          [  0]   ***   
    -------------------------------------------------------------------
   3 entries found in Z-matrix 
   Job Title : ROHF-CCSD energy calculation                                                    
   There are  2 unique internal coordinates.
   Of these,  0 will be optimized.
   User supplied Z-matrix: 
--------------------------------------------------------------------------------
       SYMBOL    BOND      LENGTH    ANGLE     ANGLE     DIHED     ANGLE
                  TO      (ANGST)    WRT      (DEG)      WRT      (DEG)
--------------------------------------------------------------------------------
        N    
        H          1         R    
        H          1         R          2        A    
                  *Initial values for internal coordinates* 
                      Name             Value
                        R               1.0080000000
                        A             105.0000000000
--------------------------------------------------------------------------------
  1  N          7    14.00307
  2  H          1     1.00783
  3  H          1     1.00783
   Rotational constants (in cm-1): 
          8.6337537305            13.0775697116            25.4080089639
   Rotational constants (in MHz): 
     258833.4615238860        392055.7317765497        761713.0527317039
********************************************************************************
   The full molecular point group is C2v .
   The largest Abelian subgroup of the full molecular point group is C2v .
   The computational point group is C2v .
********************************************************************************
--------------------------------------------------------------------------------
   Analysis of internal coordinates specified by Z-matrix 
--------------------------------------------------------------------------------
   *The nuclear repulsion energy is    7.68054 a.u.
   *There are   2 degrees of freedom within the tot. symm. molecular subspace.
   *Z-matrix requests optimization of   0 coordinates.
   *The optimization is constrained.
   *The following   2 parameters can have non-zero 
    derivatives within the totally symmetric subspace:
             A    [ 3]  R    [ 2]
   *The following   0 parameters are to be optimized:

   *The following coordinates must be varied in an  unconstrained optimization.
             A    [ 3]  R    [ 2]
--------------------------------------------------------------------------------
 ----------------------------------------------------------------
 Z-matrix   Atomic            Coordinates (in bohr)
  Symbol    Number           X              Y              Z
 ----------------------------------------------------------------
     N         7         0.00000000     0.00000000     0.14591295
     H         1         0.00000000    -1.51121461    -1.01368281
     H         1         0.00000000     1.51121461    -1.01368281
 ----------------------------------------------------------------
   Interatomic distance matrix (Angstroms) 
 
                 N             H             H    
                [ 1]        [ 2]        [ 3]
  N    [ 1]     0.00000
  H    [ 2]     1.00800     0.00000
  H    [ 3]     1.00800     1.59940     0.00000
   Rotational constants (in cm-1): 
          8.6337537305            25.4080089639            13.0775697116
   Rotational constants (in MHz): 
     258833.4615238862        761713.0527317049        392055.7317765501
  There are   48 basis functions.
 @GEOPT-W, Archive file not created for single-point calculation.
                0.25 seconds walltime passed
 --executable xjoda finished with status            0
  flag is                      5
 --invoking executable xvmol
 Serial version of molecule started
 
    -------------------------------------------------------------------
                    Input from MOL file
    -------------------------------------------------------------------
 INTGRL        1    0    1    0    0    0    0    0    0                        
          *** CFOUR Program System (Release V0.1) ***                           
 ROHF-CCSD energy calculation                                                   
     2    2 X  Y       0.10E-08              0    0                             
    9999.00      3.00                                                           
           7.00000000    1    3    3    3    2                                  
 N #1      0.000000000000      0.000000000000      0.145912949151               
     6    1                                                                     
    28016.0879410000      -2.032000000000000E-004                               
    4198.96948720000      -1.576600000000000E-003                               
    955.567460800000      -8.214400000000000E-003                               
    270.389752800000      -3.362630000000000E-002                               
    87.7881067000000      -0.112038400000000                                    
    31.0844836000000      -0.293401800000000                                    
     3    3                                                                     
    11.5261308000000        1.00000000000000       0.000000000000000E+000       
   0.000000000000000E+000                                                       
    4.35352640000000       0.000000000000000E+000   1.00000000000000            
   0.000000000000000E+000                                                       
    1.09984640000000       0.000000000000000E+000  0.000000000000000E+000       
    1.00000000000000                                                            
     2    2                                                                     
   0.452092200000000        1.00000000000000       0.000000000000000E+000       
   0.166425000000000       0.000000000000000E+000   1.00000000000000            
     4    1                                                                     
    87.2096736000000      -2.163300000000000E-003                               
    20.4806984000000      -1.608280000000000E-002                               
    6.34676190000000      -6.959799999999999E-002                               
    2.26225060000000      -0.203184300000000                                    
     2    2                                                                     
   0.861569800000000        1.00000000000000       0.000000000000000E+000       
   0.329709500000000       0.000000000000000E+000   1.00000000000000            
     1    1                                                                     
   0.122098700000000        1.00000000000000                                    
     1    1                                                                     
   0.580000000000000        1.00000000000000                                    
     1    1                                                                     
    1.73000000000000        1.00000000000000                                    
           1.00000000    1    2    3    2                                       
 H #2      0.000000000000     -1.511214614188     -1.013682808944               
     4    1                                                                     
    190.691690000000       7.082000000000000E-004                               
    28.6055320000000       5.467900000000000E-003                               
    6.50959430000000       2.796660000000000E-002                               
    1.84124550000000       0.107645380000000                                    
     2    2                                                                     
   0.598537250000000       0.298897100000000       0.000000000000000E+000       
   0.213976240000000       0.000000000000000E+000  0.474068000000000            
     1    1                                                                     
   8.031628600000000E-002   1.00000000000000                                    
     1    1                                                                     
   0.460000000000000        1.00000000000000                                    
     1    1                                                                     
    1.39000000000000        1.00000000000000                                    
 FINISH                                                                         
 
    -------------------------------------------------------------------
 
 One- and two-electron integrals over symmetry-adapted AOs are calculated.

  Spherical harmonics are used.
  
   2 types of atoms
   2 symmetry operations

   Reflection in the YZ-plane
   Reflection in the XZ-plane
  
  Integrals less than  0.10E-13 are neglected.

  Atomic type number  1 :
  -----------------------

    Nuclear charge:                        7
    number of symmetry independent atoms:  1
    highest orbital type:                  d

      3 groups of CGTOs of s type
      3 groups of CGTOs of p type
      2 groups of CGTOs of d type

    nuclear coordinates (in a.u.) are :

    N #1  0.000000000  0.000000000  0.145912949
  
   Basis function not normalized: 
   Center (as ordered in MOL file):   1
   Angular Momentum type          : s
   Offset within angular momentum :  1
   <chi|chi>                      :    2.4130970662
   Basis function not normalized: 
   Center (as ordered in MOL file):   1
   Angular Momentum type          : p
   Offset within angular momentum :  1
   <chi|chi>                      :    3.7689762524
  Atomic type number  2 :
  -----------------------

    Nuclear charge:                        1
    number of symmetry independent atoms:  1
    highest orbital type:                  p

      3 groups of CGTOs of s type
      2 groups of CGTOs of p type

    nuclear coordinates (in a.u.) are :

    H #2  0.000000000 -1.511214614 -1.013682809
  
   Basis function not normalized: 
   Center (as ordered in MOL file):   2
   Angular Momentum type          : s
   Offset within angular momentum :  1
   <chi|chi>                      :    7.5444806023
   Basis function not normalized: 
   Center (as ordered in MOL file):   2
   Angular Momentum type          : s
   Offset within angular momentum :  1
   <chi|chi>                      :    3.3456329954
   Basis function not normalized: 
   Center (as ordered in MOL file):   2
   Angular Momentum type          : s
   Offset within angular momentum :  2
   <chi|chi>                      :    2.1094020267
   Internuclear distances (A) :

     for atom N #1 (coordinates :   0.00000   0.00000   0.14591)

     H #2   1     distance is  1.008

     for atom H #2 (coordinates :   0.00000  -1.51121  -1.01368)

     H #2   3     distance is  1.599

   Group multiplication table :

         1   2   3   4
         2   1   4   3
         3   4   1   2
         4   3   2   1

   Gaussian basis information :

   atom                 exponent      coefficients

 N #1  1    S   
+                 1   28016.087941  -0.0002032
                  2    4198.969487  -0.0015766
                  3     955.567461  -0.0082144
                  4     270.389753  -0.0336263
                  5      87.788107  -0.1120384
                  6      31.084484  -0.2934018

 N #1  1    S   
+                 7      11.526131   1.0000000   0.0000000   0.0000000
                  8       4.353526   0.0000000   1.0000000   0.0000000
                  9       1.099846   0.0000000   0.0000000   1.0000000

 N #1  1    S   
+                10       0.452092   1.0000000   0.0000000
                 11       0.166425   0.0000000   1.0000000

 N #1  1    X   
+                12      87.209674  -0.0021633
                 13      20.480698  -0.0160828
                 14       6.346762  -0.0695980
                 15       2.262251  -0.2031843

 N #1  1    Y   
+                16      87.209674  -0.0021633
                 17      20.480698  -0.0160828
                 18       6.346762  -0.0695980
                 19       2.262251  -0.2031843

 N #1  1    Z   
+                20      87.209674  -0.0021633
                 21      20.480698  -0.0160828
                 22       6.346762  -0.0695980
                 23       2.262251  -0.2031843

 N #1  1    X   
+                24       0.861570   1.0000000   0.0000000
                 25       0.329709   0.0000000   1.0000000

 N #1  1    Y   
+                26       0.861570   1.0000000   0.0000000
                 27       0.329709   0.0000000   1.0000000

 N #1  1    Z   
+                28       0.861570   1.0000000   0.0000000
                 29       0.329709   0.0000000   1.0000000

 N #1  1    X   
+                30       0.122099   1.0000000

 N #1  1    Y   
+                31       0.122099   1.0000000

 N #1  1    Z   
+                32       0.122099   1.0000000

 N #1  1    XX  
+                33       0.580000   1.0000000

 N #1  1    XY  
+                34       0.580000   1.0000000

 N #1  1    XZ  
+                35       0.580000   1.0000000

 N #1  1    YY  
+                36       0.580000   1.0000000

 N #1  1    YZ  
+                37       0.580000   1.0000000

 N #1  1    ZZ  
+                38       0.580000   1.0000000

 N #1  1    XX  
+                39       1.730000   1.0000000

 N #1  1    XY  
+                40       1.730000   1.0000000

 N #1  1    XZ  
+                41       1.730000   1.0000000

 N #1  1    YY  
+                42       1.730000   1.0000000

 N #1  1    YZ  
+                43       1.730000   1.0000000

 N #1  1    ZZ  
+                44       1.730000   1.0000000

 H #2  1    S   
+                45     190.691690   0.0007082
                 46      28.605532   0.0054679
                 47       6.509594   0.0279666
                 48       1.841246   0.1076454

 H #2  3    S   
+                49     190.691690   0.0007082
                 50      28.605532   0.0054679
                 51       6.509594   0.0279666
                 52       1.841246   0.1076454

 H #2  1    S   
+                53       0.598537   0.2988971   0.0000000
                 54       0.213976   0.0000000   0.4740680

 H #2  3    S   
+                55       0.598537   0.2988971   0.0000000
                 56       0.213976   0.0000000   0.4740680

 H #2  1    S   
+                57       0.080316   1.0000000

 H #2  3    S   
+                58       0.080316   1.0000000

 H #2  1    X   
+                59       0.460000   1.0000000

 H #2  3    X   
+                60       0.460000   1.0000000

 H #2  1    Y   
+                61       0.460000   1.0000000

 H #2  3    Y   
+                62       0.460000   1.0000000

 H #2  1    Z   
+                63       0.460000   1.0000000

 H #2  3    Z   
+                64       0.460000   1.0000000

 H #2  1    X   
+                65       1.390000   1.0000000

 H #2  3    X   
+                66       1.390000   1.0000000

 H #2  1    Y   
+                67       1.390000   1.0000000

 H #2  3    Y   
+                68       1.390000   1.0000000

 H #2  1    Z   
+                69       1.390000   1.0000000

 H #2  3    Z   
+                70       1.390000   1.0000000
 50 48
  1  2  3  4  5  6  7  8  9 10 11 12*** 13 14*** 15 16 17 18 19 20 21 22 23
 24 25 26 27 28 29 30 31 32 33 34 35 36 37 38 39 40 41 42 43 44 45 46 47 48
1

             SYMMETRY TRANSFORMATION INFO
             48 SYMMETRY ADAPTED BASIS FUNCTIONS 


          irreducible representation number 1

    1    1  N #1     1s     1   1   1.0
    2    2  N #1     1s     1   2   1.0
    3    3  N #1     1s     1   3   1.0
    4    4  N #1     1s     1   4   1.0
    5    5  N #1     1s     1   5   1.0
    6    6  N #1     1s     1   6   1.0
    7    7  N #1     2pz    1   9   1.0
    8    8  N #1     2pz    1  14   1.0
    9    9  N #1     2pz    1  15   1.0
   10   10  N #1     2pz    1  18   1.0
   11   11  N #1     3d0    3  19  -1.0  22  -1.0  24   2.0
   12   12  N #1     3d2+   2  19   1.0  22  -1.0
   13   13  N #1     3d0    3  25  -1.0  28  -1.0  30   2.0
   14   14  N #1     3d2+   2  25   1.0  28  -1.0
   15   15  H #2     1s     2  31   1.0  32   1.0
   16   16  H #2     1s     2  33   1.0  34   1.0
   17   17  H #2     1s     2  35   1.0  36   1.0
   18   18  H #2     1s     2  37   1.0  38   1.0
   19   19  H #2     2py    2  41   1.0  42  -1.0
   20   20  H #2     2pz    2  43   1.0  44   1.0
   21   21  H #2     2py    2  47   1.0  48  -1.0
   22   22  H #2     2pz    2  49   1.0  50   1.0


          irreducible representation number 2

   23    1  N #1     2px    1   7   1.0
   24    2  N #1     2px    1  10   1.0
   25    3  N #1     2px    1  11   1.0
   26    4  N #1     2px    1  16   1.0
   27    5  N #1     3d1+   1  21   1.0
   28    6  N #1     3d1+   1  27   1.0
   29    7  H #2     2px    2  39   1.0  40   1.0
   30    8  H #2     2px    2  45   1.0  46   1.0


          irreducible representation number 3

   31    1  N #1     2py    1   8   1.0
   32    2  N #1     2py    1  12   1.0
   33    3  N #1     2py    1  13   1.0
   34    4  N #1     2py    1  17   1.0
   35    5  N #1     3d1-   1  23   1.0
   36    6  N #1     3d1-   1  29   1.0
   37    7  H #2     1s     2  31   1.0  32  -1.0
   38    8  H #2     1s     2  33   1.0  34  -1.0
   39    9  H #2     1s     2  35   1.0  36  -1.0
   40   10  H #2     1s     2  37   1.0  38  -1.0
   41   11  H #2     2py    2  41   1.0  42   1.0
   42   12  H #2     2pz    2  43   1.0  44  -1.0
   43   13  H #2     2py    2  47   1.0  48   1.0
   44   14  H #2     2pz    2  49   1.0  50  -1.0


          irreducible representation number 4

   45    1  N #1     3d2-   1  20   1.0
   46    2  N #1     3d2-   1  26   1.0
   47    3  H #2     2px    2  39   1.0  40  -1.0
   48    4  H #2     2px    2  45   1.0  46  -1.0
  Nuclear repulsion energy :    7.6805416353 a.u.
  required memory for a1 array                3002594  words 
  required memory for a2 array                2009125  words 
 basis number:   7    30
 basis number:   1    10
  @MOLECU-I, One electron integrals required         0.01000 seconds.
  @TWOEL-I,      33741 integrals of symmetry type  I I I I
  @TWOEL-I,      70314 integrals of symmetry type  I J I J
  @TWOEL-I,      40169 integrals of symmetry type  I I J J
  @TWOEL-I,      27760 integrals of symmetry type  I J K L
  @TWOEL-I, Total number of 2-e integrals     171984.
  @MOLECU-I, Two electron integrals required         0.27000 seconds.
  @CHECKOUT-I, Total execution time :       0.2900 seconds.
                0.25 seconds walltime passed
 --executable xvmol finished with status            0
 --invoking executable xvmol2ja
  @CHECKOUT-I, Total execution time :       0.0000 seconds.
                0.00 seconds walltime passed
 --executable xvmol2ja finished with status            0
 --invoking executable xvscf
 NSOSCF                     0
  There are   48 functions in the AO basis.

  There are 4 irreducible representations.

       Irrep        # of functions
         1                 22
         2                  8
         3                 14
         4                  4


  Parameters for SCF calculation: 
        SCF reference function: ROHF  
  Maximum number of iterations:  150
     Full symmetry point group: C2v 
     Computational point group: C2v 
        Initial density matrix: MOREAD                 
     SCF convergence tolerance: 10**(-12)
  DIIS convergence acceleration:  ON
          Latest start for DIIS:   8
                     DIIS order:   6

     Alpha population by irrep:   3    1    1    0
      Beta population by irrep:   3    0    1    0


  Memory information:     129881 words required.
  Fock matrices are constructed from AO integral file.
  Initialization and symmetry analysis required      0.000 seconds.

  --------------------------------------------------------------------
  Iteration         Total Energy            Largest Density Difference
  --------------------------------------------------------------------
       0             7.680541635254568              0.0000000000D+00
   current occupation vector 
     3  1  1  0
     3  0  1  0
  processed                  33741  ao basis integrals from 
                    57  buffers.
  processed                  40169  ao basis integrals from 
                    67  buffers.
  processed                  70314  ao basis integrals from 
                   118  buffers.
       1           -44.130432402828504              0.1028750960D+01
   current occupation vector 
     3  1  1  0
     3  0  1  0
  processed                  33741  ao basis integrals from 
                    57  buffers.
  processed                  40169  ao basis integrals from 
                    67  buffers.
  processed                  70314  ao basis integrals from 
                   118  buffers.
       2           -49.779045245375670              0.2095744167D+01
   current occupation vector 
     3  1  1  0
     3  0  1  0
  processed                  33741  ao basis integrals from 
                    57  buffers.
  processed                  40169  ao basis integrals from 
                    67  buffers.
  processed                  70314  ao basis integrals from 
                   118  buffers.
       3           -53.219019821726008              0.2093032116D+01
   current occupation vector 
     3  1  1  0
     3  0  1  0
  processed                  33741  ao basis integrals from 
                    57  buffers.
  processed                  40169  ao basis integrals from 
                    67  buffers.
  processed                  70314  ao basis integrals from 
                   118  buffers.
       4           -53.283278374534397              0.1808933337D+01
   current occupation vector 
     3  1  1  0
     3  0  1  0
 
 sum over diagonal and offdiagdiagonal of C(T)*S*C                              
                      for irrep                     1
  8.948397578478762E-014 -7.794976005892534E-014
 reorthoganalization of MOs is carried out
 sum over diagonal and offdiagdiagonal of C(T)*S*C                              
                      for irrep                     1
 -4.773959005888173E-015  1.771938314530211E-014
 
 sum over diagonal and offdiagdiagonal of C(T)*S*C                              
                      for irrep                     2
  2.065014825802791E-014 -1.146587165490320E-014
 reorthoganalization of MOs is carried out
 sum over diagonal and offdiagdiagonal of C(T)*S*C                              
                      for irrep                     2
  1.110223024625157E-015  8.606396845189934E-016
 
 sum over diagonal and offdiagdiagonal of C(T)*S*C                              
                      for irrep                     3
  1.058042542467774E-013  4.684465231626252E-014
 reorthoganalization of MOs is carried out
 sum over diagonal and offdiagdiagonal of C(T)*S*C                              
                      for irrep                     3
  2.220446049250313E-015 -2.346359868551917E-014
 
 sum over diagonal and offdiagdiagonal of C(T)*S*C                              
                      for irrep                     4
  6.439293542825908E-015  3.556183125752455E-015
 reorthoganalization of MOs is carried out
 sum over diagonal and offdiagdiagonal of C(T)*S*C                              
                      for irrep                     4
  1.110223024625157E-016  5.620504062164855E-016
  processed                  33741  ao basis integrals from 
                    57  buffers.
  processed                  40169  ao basis integrals from 
                    67  buffers.
  processed                  70314  ao basis integrals from 
                   118  buffers.
       5           -54.652457735299372              0.1787066804D+01
   current occupation vector 
     3  1  1  0
     3  0  1  0
  processed                  33741  ao basis integrals from 
                    57  buffers.
  processed                  40169  ao basis integrals from 
                    67  buffers.
  processed                  70314  ao basis integrals from 
                   118  buffers.
       6           -55.086847091960024              0.8047479203D+00
   current occupation vector 
     3  1  1  0
     3  0  1  0
  processed                  33741  ao basis integrals from 
                    57  buffers.
  processed                  40169  ao basis integrals from 
                    67  buffers.
  processed                  70314  ao basis integrals from 
                   118  buffers.
       7           -55.448455187457917              0.7627279564D+00
   current occupation vector 
     3  1  1  0
     3  0  1  0
  processed                  33741  ao basis integrals from 
                    57  buffers.
  processed                  40169  ao basis integrals from 
                    67  buffers.
  processed                  70314  ao basis integrals from 
                   118  buffers.
       8           -55.542676796663031              0.9897657917D-01
   current occupation vector 
     3  1  1  0
     3  0  1  0
  processed                  33741  ao basis integrals from 
                    57  buffers.
  processed                  40169  ao basis integrals from 
                    67  buffers.
  processed                  70314  ao basis integrals from 
                   118  buffers.
       9           -55.584468483277263              0.1040143417D+00
   current occupation vector 
     3  1  1  0
     3  0  1  0
 
 sum over diagonal and offdiagdiagonal of C(T)*S*C                              
                      for irrep                     1
  7.993605777301127E-014 -1.040418424019554E-015
 reorthoganalization of MOs is carried out
 sum over diagonal and offdiagdiagonal of C(T)*S*C                              
                      for irrep                     1
 -8.881784197001252E-015  7.217219497207286E-015
 
 sum over diagonal and offdiagdiagonal of C(T)*S*C                              
                      for irrep                     2
 -5.995204332975845E-015  8.537317073176610E-015
 reorthoganalization of MOs is carried out
 sum over diagonal and offdiagdiagonal of C(T)*S*C                              
                      for irrep                     2
 -1.776356839400250E-015 -5.695995873588895E-016
 
 sum over diagonal and offdiagdiagonal of C(T)*S*C                              
                      for irrep                     3
  2.020605904817785E-014  1.179520484105925E-014
 reorthoganalization of MOs is carried out
 sum over diagonal and offdiagdiagonal of C(T)*S*C                              
                      for irrep                     3
  1.887379141862766E-015 -8.011535770728606E-015
 
 sum over diagonal and offdiagdiagonal of C(T)*S*C                              
                      for irrep                     4
  5.551115123125783E-015 -4.792173602385930E-016
 reorthoganalization of MOs is carried out
 sum over diagonal and offdiagdiagonal of C(T)*S*C                              
                      for irrep                     4
  1.110223024625157E-015  6.500876226223085E-016
  processed                  33741  ao basis integrals from 
                    57  buffers.
  processed                  40169  ao basis integrals from 
                    67  buffers.
  processed                  70314  ao basis integrals from 
                   118  buffers.
      10           -55.584709435232647              0.1645131307D-01
   current occupation vector 
     3  1  1  0
     3  0  1  0
  processed                  33741  ao basis integrals from 
                    57  buffers.
  processed                  40169  ao basis integrals from 
                    67  buffers.
  processed                  70314  ao basis integrals from 
                   118  buffers.
      11           -55.584736646679893              0.4034275903D-02
   current occupation vector 
     3  1  1  0
     3  0  1  0
  processed                  33741  ao basis integrals from 
                    57  buffers.
  processed                  40169  ao basis integrals from 
                    67  buffers.
  processed                  70314  ao basis integrals from 
                   118  buffers.
      12           -55.584737246796074              0.2372529623D-03
   current occupation vector 
     3  1  1  0
     3  0  1  0
  processed                  33741  ao basis integrals from 
                    57  buffers.
  processed                  40169  ao basis integrals from 
                    67  buffers.
  processed                  70314  ao basis integrals from 
                   118  buffers.
      13           -55.584737259274526              0.3107737698D-04
   current occupation vector 
     3  1  1  0
     3  0  1  0
  processed                  33741  ao basis integrals from 
                    57  buffers.
  processed                  40169  ao basis integrals from 
                    67  buffers.
  processed                  70314  ao basis integrals from 
                   118  buffers.
      14           -55.584737259833183              0.7660299432D-05
   current occupation vector 
     3  1  1  0
     3  0  1  0
 
 sum over diagonal and offdiagdiagonal of C(T)*S*C                              
                      for irrep                     1
  3.641531520770513E-014  7.047823246521466E-014
 reorthoganalization of MOs is carried out
 sum over diagonal and offdiagdiagonal of C(T)*S*C                              
                      for irrep                     1
  1.187938636348917E-014 -4.021399468124297E-014
 
 sum over diagonal and offdiagdiagonal of C(T)*S*C                              
                      for irrep                     2
 -1.576516694967722E-014 -1.411892792350239E-014
 reorthoganalization of MOs is carried out
 sum over diagonal and offdiagdiagonal of C(T)*S*C                              
                      for irrep                     2
 -2.220446049250313E-016  6.471585826907031E-016
 
 sum over diagonal and offdiagdiagonal of C(T)*S*C                              
                      for irrep                     3
  4.118927421359331E-014  6.311764262287300E-015
 reorthoganalization of MOs is carried out
 sum over diagonal and offdiagdiagonal of C(T)*S*C                              
                      for irrep                     3
  1.998401444325282E-015  1.354278966530717E-014
 
 sum over diagonal and offdiagdiagonal of C(T)*S*C                              
                      for irrep                     4
 -2.442490654175344E-015 -2.453766356769194E-015
 reorthoganalization of MOs is carried out
 sum over diagonal and offdiagdiagonal of C(T)*S*C                              
                      for irrep                     4
  6.661338147750939E-016 -2.810252031082427E-016
  processed                  33741  ao basis integrals from 
                    57  buffers.
  processed                  40169  ao basis integrals from 
                    67  buffers.
  processed                  70314  ao basis integrals from 
                   118  buffers.
      15           -55.584737259883532              0.1500926106D-05
   current occupation vector 
     3  1  1  0
     3  0  1  0
  processed                  33741  ao basis integrals from 
                    57  buffers.
  processed                  40169  ao basis integrals from 
                    67  buffers.
  processed                  70314  ao basis integrals from 
                   118  buffers.
      16           -55.584737259885785              0.3581171972D-06
   current occupation vector 
     3  1  1  0
     3  0  1  0
  processed                  33741  ao basis integrals from 
                    57  buffers.
  processed                  40169  ao basis integrals from 
                    67  buffers.
  processed                  70314  ao basis integrals from 
                   118  buffers.
      17           -55.584737259885991              0.1380428107D-06
   current occupation vector 
     3  1  1  0
     3  0  1  0
  processed                  33741  ao basis integrals from 
                    57  buffers.
  processed                  40169  ao basis integrals from 
                    67  buffers.
  processed                  70314  ao basis integrals from 
                   118  buffers.
      18           -55.584737259885991              0.3288954667D-07
   current occupation vector 
     3  1  1  0
     3  0  1  0
  processed                  33741  ao basis integrals from 
                    57  buffers.
  processed                  40169  ao basis integrals from 
                    67  buffers.
  processed                  70314  ao basis integrals from 
                   118  buffers.
      19           -55.584737259885834              0.7609571195D-08
   current occupation vector 
     3  1  1  0
     3  0  1  0
 
 sum over diagonal and offdiagdiagonal of C(T)*S*C                              
                      for irrep                     1
 -1.521005543736464E-014 -7.288476905232090E-014
 reorthoganalization of MOs is carried out
 sum over diagonal and offdiagdiagonal of C(T)*S*C                              
                      for irrep                     1
 -1.165734175856414E-014  1.495469724830851E-014
 
 sum over diagonal and offdiagdiagonal of C(T)*S*C                              
                      for irrep                     2
  5.551115123125783E-015  5.398213817685120E-015
 reorthoganalization of MOs is carried out
 sum over diagonal and offdiagdiagonal of C(T)*S*C                              
                      for irrep                     2
  4.440892098500626E-016 -2.512791000665662E-016
 
 sum over diagonal and offdiagdiagonal of C(T)*S*C                              
                      for irrep                     3
  3.708144902248023E-014  2.255942828377488E-014
 reorthoganalization of MOs is carried out
 sum over diagonal and offdiagdiagonal of C(T)*S*C                              
                      for irrep                     3
 -1.110223024625157E-015  1.680479486034642E-015
 
 sum over diagonal and offdiagdiagonal of C(T)*S*C                              
                      for irrep                     4
 -6.661338147750939E-016 -1.647987302177967E-016
 reorthoganalization of MOs is carried out
 sum over diagonal and offdiagdiagonal of C(T)*S*C                              
                      for irrep                     4
  0.000000000000000E+000 -6.591949208711867E-016
  processed                  33741  ao basis integrals from 
                    57  buffers.
  processed                  40169  ao basis integrals from 
                    67  buffers.
  processed                  70314  ao basis integrals from 
                   118  buffers.
      20           -55.584737259886005              0.5521436086D-09
   current occupation vector 
     3  1  1  0
     3  0  1  0
  processed                  33741  ao basis integrals from 
                    57  buffers.
  processed                  40169  ao basis integrals from 
                    67  buffers.
  processed                  70314  ao basis integrals from 
                   118  buffers.
      21           -55.584737259886104              0.2277052435D-09
   current occupation vector 
     3  1  1  0
     3  0  1  0
  processed                  33741  ao basis integrals from 
                    57  buffers.
  processed                  40169  ao basis integrals from 
                    67  buffers.
  processed                  70314  ao basis integrals from 
                   118  buffers.
      22           -55.584737259886133              0.5747885501D-10
   current occupation vector 
     3  1  1  0
     3  0  1  0
  processed                  33741  ao basis integrals from 
                    57  buffers.
  processed                  40169  ao basis integrals from 
                    67  buffers.
  processed                  70314  ao basis integrals from 
                   118  buffers.
      23           -55.584737259886175              0.5598424502D-11
   current occupation vector 
     3  1  1  0
     3  0  1  0
  processed                  33741  ao basis integrals from 
                    57  buffers.
  processed                  40169  ao basis integrals from 
                    67  buffers.
  processed                  70314  ao basis integrals from 
                   118  buffers.
      24           -55.584737259886317              0.2046363079D-11
   current occupation vector 
     3  1  1  0
     3  0  1  0
 
 sum over diagonal and offdiagdiagonal of C(T)*S*C                              
                      for irrep                     1
 -4.440892098500626E-015  4.349113044567136E-015
 reorthoganalization of MOs is carried out
 sum over diagonal and offdiagdiagonal of C(T)*S*C                              
                      for irrep                     1
 -6.106226635438361E-015  2.409100099895622E-014
 
 sum over diagonal and offdiagdiagonal of C(T)*S*C                              
                      for irrep                     2
  1.065814103640150E-014 -3.775955988312950E-015
 reorthoganalization of MOs is carried out
 sum over diagonal and offdiagdiagonal of C(T)*S*C                              
                      for irrep                     2
 -2.220446049250313E-016 -1.124088953971709E-015
 
 sum over diagonal and offdiagdiagonal of C(T)*S*C                              
                      for irrep                     3
 -1.443289932012704E-014  2.900543371567484E-014
 reorthoganalization of MOs is carried out
 sum over diagonal and offdiagdiagonal of C(T)*S*C                              
                      for irrep                     3
 -7.771561172376096E-015 -2.781806970647734E-014
 
 sum over diagonal and offdiagdiagonal of C(T)*S*C                              
                      for irrep                     4
  4.218847493575595E-015 -2.403025695096872E-015
 reorthoganalization of MOs is carried out
 sum over diagonal and offdiagdiagonal of C(T)*S*C                              
                      for irrep                     4
 -1.221245327087672E-015 -5.030698080332741E-017

  SCF has converged.

 save density matrix on hard disk
 total alpha spin electron number:   5.00000000000000     
 total  beta spin electron number:   4.00000000000000     
  processed                  33741  ao basis integrals from 
                    57  buffers.
  processed                  40169  ao basis integrals from 
                    67  buffers.
  processed                  70314  ao basis integrals from 
                   118  buffers.
      25           -55.584737259886140              0.5799805081D-12

  ORBITAL EIGENVECTORS

  SYMMETRY BLOCK 1 (ALPHA)

                          MO #  1       MO #  2       MO #  3       MO #  4

    BASIS/ORB E          -15.58777      -1.16084      -0.50349       0.11143
                        ----------    ----------    ----------    ----------
    1; N #1                0.34671       0.07128       0.02888       0.02144
    2; N #1               -0.42966      -0.12205      -0.05123      -0.03162
    3; N #1               -0.32279      -0.13543      -0.05428      -0.05762
    4; N #1               -0.03546       0.19103       0.07771       0.15409
    5; N #1                0.01358       0.46783       0.23922      -0.14174
    6; N #1               -0.00275       0.20546       0.29439       1.14739
    7; N #1               -0.00224       0.03978      -0.20693       0.04497
    8; N #1               -0.00101      -0.06494       0.28621      -0.07436
    9; N #1               -0.00154      -0.04227       0.28071      -0.06095
   10; N #1                0.00033      -0.00383       0.18713      -0.20223
   11; N #1                0.00000       0.00128      -0.00643       0.00114
   12; N #1               -0.00033      -0.00350       0.00072      -0.00283
   13; N #1               -0.00003       0.00046      -0.00142       0.00029
   14; N #1                0.00012      -0.00320       0.00226      -0.00002
   15; H #2               -0.00003       0.05885      -0.04365       0.00880
   16; H #2               -0.00150       0.10715      -0.09377      -0.08153
   17; H #2               -0.00100       0.05503      -0.11842       0.21930
   18; H #2                0.00058       0.00276      -0.00796      -1.05095
   19; H #2               -0.00105       0.00871      -0.02001       0.00144
   20; H #2               -0.00076       0.00264       0.01014      -0.00288
   21; H #2                0.00000       0.01192      -0.00717       0.01141
   22; H #2                0.00004       0.00861      -0.00003       0.00795


                          MO #  5       MO #  6       MO #  7       MO #  8

    BASIS/ORB E            0.36364       0.45828       0.70287       0.87213
                        ----------    ----------    ----------    ----------
    1; N #1                0.01776       0.01209       0.04486       0.00589
    2; N #1               -0.02988      -0.02553      -0.10303      -0.00847
    3; N #1               -0.03967      -0.01228      -0.02842      -0.01762
    4; N #1                0.09103      -0.05202      -0.22888       0.07226
    5; N #1                0.02882       0.36684       1.93483      -0.06703
    6; N #1                1.93262       2.34274      -5.21446      -2.16931
    7; N #1               -0.09480       0.16006       0.02724      -0.04453
    8; N #1                0.00049      -0.05633      -0.12838      -0.00819
    9; N #1                0.42855      -1.24958       0.76364       0.97323
   10; N #1               -1.96984      -0.12789       0.85659       0.77737
   11; N #1                0.00466       0.01041      -0.00917      -0.00082
   12; N #1               -0.00611      -0.03642       0.07572       0.02947
   13; N #1               -0.00225      -0.00020       0.00142       0.00893
   14; N #1                0.00774       0.01303      -0.01399       0.00345
   15; H #2               -0.04215      -0.05563      -0.03203      -0.02263
   16; H #2                0.10050      -0.00303       0.25236      -0.02713
   17; H #2               -1.55680      -2.38965       1.23971       1.51904
   18; H #2                0.07358       0.65103       0.75194      -0.09024
   19; H #2               -0.07392      -0.17943       0.39198       0.75502
   20; H #2               -0.02643      -0.15452       0.31168      -0.46587
   21; H #2                0.01257       0.01417      -0.02809      -0.07114
   22; H #2               -0.00190       0.01289      -0.02766       0.06355


                          MO #  9       MO # 10       MO # 11       MO # 12

    BASIS/ORB E            1.23383       1.48350       1.71530       2.07685
                        ----------    ----------    ----------    ----------
    1; N #1                0.01291       0.02175       0.00430       0.00308
    2; N #1               -0.01012      -0.06418      -0.00647      -0.00812
    3; N #1               -0.06149       0.02290      -0.01393       0.00036
    4; N #1                0.29843      -0.50188      -0.00463      -0.04839
    5; N #1               -1.06230       2.82444       0.73590       0.20343
    6; N #1               -2.50525       0.85664       0.99090       1.15519
    7; N #1                0.09244      -0.07663       0.21572      -0.05108
    8; N #1               -0.16890       0.43546      -1.19354       0.32313
    9; N #1                0.79369      -2.40751       1.37745      -1.38254
   10; N #1                0.69201       0.54841      -0.85500      -0.27997
   11; N #1               -0.02786      -0.04790       0.03362       0.39997
   12; N #1                0.17733       0.10881       0.12188       0.16316
   13; N #1                0.00199       0.00007       0.00226      -0.01513
   14; N #1               -0.00637       0.00093      -0.00798      -0.00407
   15; H #2               -0.06014       0.01468      -0.00999      -0.00085
   16; H #2               -1.12463      -0.55054       0.20785      -0.21680
   17; H #2                3.37940      -1.21152      -0.77378      -0.70669
   18; H #2               -0.60038       0.14073      -0.11209       0.03154
   19; H #2                0.54357      -1.12120      -0.59980      -0.70419
   20; H #2                0.56013      -0.79203      -0.43436       0.58347
   21; H #2               -0.01191       0.07106       0.09936       0.06260
   22; H #2               -0.04414       0.05717       0.06610      -0.08741


                          MO # 13       MO # 14       MO # 15       MO # 16

    BASIS/ORB E            2.22595       3.54955       4.18164       4.34714
                        ----------    ----------    ----------    ----------
    1; N #1                0.04926       0.11419       0.02393       0.02786
    2; N #1               -0.08129      -0.05455      -0.03040      -0.05859
    3; N #1               -0.13013      -0.74463      -0.10390      -0.05343
    4; N #1                0.12073       4.42793       0.58618       0.25777
    5; N #1                2.06673      -7.23811      -0.98732      -0.55129
    6; N #1                4.60316       0.38725       0.10842      -0.70763
    7; N #1                0.05083      -0.06151      -0.03549       0.29139
    8; N #1               -0.02048       0.02852      -0.19048       0.15715
    9; N #1               -2.83559       2.13948       0.44590       0.20690
   10; N #1               -0.49277      -0.21842      -0.25504       0.13656
   11; N #1                0.08490      -0.03685      -0.08231       0.03154
   12; N #1               -0.78655       0.45098      -0.12220      -0.16526
   13; N #1               -0.00407      -0.00895       0.03520      -0.03274
   14; N #1                0.04042      -0.02753       0.09575       0.20026
   15; H #2               -0.00929       0.07269       0.01525      -0.26956
   16; H #2               -1.63522       1.26250       0.05919       0.29804
   17; H #2               -2.36196       1.26142       0.14358       0.25573
   18; H #2               -0.15090      -0.38347      -0.02937       0.13064
   19; H #2               -1.49557       0.99776       0.04117       0.73128
   20; H #2               -1.03780       0.60944       0.57920       0.31668
   21; H #2                0.05012       0.10434       0.30160      -0.86061
   22; H #2                0.04016       0.21058      -0.92597      -0.25475


                          MO # 17       MO # 18       MO # 19       MO # 20

    BASIS/ORB E            5.66836       5.80035       5.92810       6.37514
                        ----------    ----------    ----------    ----------
    1; N #1                0.00489       0.01457       0.00169       0.01303
    2; N #1               -0.00912      -0.02673       0.00179      -0.04850
    3; N #1               -0.01162      -0.06075      -0.03320       0.02854
    4; N #1               -0.01634       0.84180       0.63813      -0.19167
    5; N #1                0.20866      -2.17357      -1.78729       0.39011
    6; N #1               -0.81013      -1.52516      -0.27578      -1.48261
    7; N #1                0.37768       0.78378      -0.46938      -1.10558
    8; N #1                0.39970       1.17985      -0.49262      -1.86209
    9; N #1               -0.08729       0.65007       1.58874       1.37490
   10; N #1                0.42903       0.28860      -0.29111       0.03330
   11; N #1               -0.25338      -0.00956      -0.18847      -0.01954
   12; N #1               -0.04338       0.56483       0.09165       0.17345
   13; N #1                0.33436      -0.00403       0.18114       0.03453
   14; N #1               -0.02169      -0.49406       0.12817      -0.37878
   15; H #2                0.48602      -0.54543      -1.08302       0.19551
   16; H #2               -0.78289       1.58302       2.26650      -0.52885
   17; H #2                0.90713       0.56936      -0.63917       1.16016
   18; H #2               -0.10842       0.13925       0.21201      -0.09056
   19; H #2                0.28084       0.66623       0.49494       0.44568
   20; H #2               -0.18287       0.63073       0.04146       0.23262
   21; H #2               -0.17399       0.01092       0.18221      -0.61675
   22; H #2                0.01614      -0.13370       0.14939      -0.32746


                          MO # 21       MO # 22

    BASIS\ORB E           15.13968      78.42214
                        ----------    ----------
    1; N #1                0.19112       1.78151
    2; N #1               -1.74144       3.11889
    3; N #1                3.32591      -2.36390
    4; N #1               -3.45256       1.54809
    5; N #1                3.39352      -1.43841
    6; N #1               -0.37515       0.18448
    7; N #1                0.01027      -0.00271
    8; N #1                0.04780      -0.01585
    9; N #1               -0.75457       0.30912
   10; N #1                0.11098      -0.05114
   11; N #1                0.01750      -0.00676
   12; N #1               -0.12173       0.04851
   13; N #1               -0.00640       0.00200
   14; N #1                0.03559      -0.01120
   15; H #2                0.02982      -0.01017
   16; H #2               -0.40360       0.16432
   17; H #2               -0.46279       0.18678
   18; H #2                0.16814      -0.07450
   19; H #2               -0.39777       0.15952
   20; H #2               -0.27364       0.10929
   21; H #2                0.07239      -0.02244
   22; H #2                0.06301      -0.02001


  SYMMETRY BLOCK 2 (ALPHA)

                          MO # 23       MO # 24       MO # 25       MO # 26

    BASIS/ORB E           -0.50334       0.36692       1.02492       1.61391
                        ----------    ----------    ----------    ----------
   23; N #1                0.24754       0.15779       0.05920       0.22007
   24; N #1               -0.34689      -0.00810      -0.05501      -1.22306
   25; N #1               -0.39307      -0.92677      -0.49380       1.94204
   26; N #1               -0.21864       1.43445      -0.29257      -0.86184
   27; N #1                0.02765       0.00364      -0.17306       0.34122
   28; N #1                0.00435       0.00455      -0.00495      -0.00677
   29; H #2               -0.01936      -0.02249       0.86751       0.07753
   30; H #2               -0.00741       0.00920      -0.11103      -0.01975


                          MO # 27       MO # 28       MO # 29       MO # 30

    BASIS/ORB E            1.83420       4.12243       5.50949       5.81785
                        ----------    ----------    ----------    ----------
   23; N #1                0.07512       0.13854       0.28541       1.44641
   24; N #1               -0.47581       0.18426       0.38102       2.06271
   25; N #1                1.24297      -0.03367      -0.08231      -1.44615
   26; N #1               -0.07805       0.25794       0.15846       0.38697
   27; N #1               -1.17186       0.11004      -0.83713       0.20651
   28; N #1                0.06647      -0.17940       1.25184      -0.24779
   29; H #2               -0.76978      -0.68642      -0.28962       0.20724
   30; H #2                0.06434       0.98889       0.14757      -0.16373


  SYMMETRY BLOCK 3 (ALPHA)

                          MO # 31       MO # 32       MO # 33       MO # 34

    BASIS/ORB E           -0.65820       0.15617       0.37110       0.55952
                        ----------    ----------    ----------    ----------
   31; N #1                0.18400       0.06769       0.02840       0.21104
   32; N #1               -0.25962      -0.15054      -0.09928      -0.07573
   33; N #1               -0.23440       0.26298       0.06098      -1.70023
   34; N #1               -0.06582      -0.91818      -2.11552       1.96512
   35; N #1                0.02786      -0.05602      -0.01965       0.15078
   36; N #1                0.01715       0.00959      -0.02367      -0.01956
   37; H #2                0.08339       0.01187      -0.06658      -0.03468
   38; H #2                0.16131      -0.01210       0.12487      -0.12015
   39; H #2                0.16912       0.49096      -1.63526      -1.25501
   40; H #2                0.03257      -2.39414      -0.33443       2.22557
   41; H #2                0.00663       0.07874      -0.02712      -0.15999
   42; H #2                0.01107       0.06634      -0.00418      -0.10132
   43; H #2                0.00801       0.00411       0.00096       0.00685
   44; H #2                0.01093       0.00656       0.00980      -0.00044


                          MO # 35       MO # 36       MO # 37       MO # 38

    BASIS/ORB E            1.14014       1.31950       1.55061       1.83761
                        ----------    ----------    ----------    ----------
   31; N #1                0.05443       0.08399       0.09943       0.22102
   32; N #1               -0.03706      -0.11220      -0.58571      -1.24488
   33; N #1                0.49852      -0.41271       4.47631       1.29078
   34; N #1                1.03023      -0.27256      -1.14507      -1.24249
   35; N #1               -0.30063      -0.12589      -0.47741      -0.15274
   36; N #1               -0.00109      -0.00069       0.07573       0.02561
   37; H #2               -0.03809      -0.01448      -0.02864      -0.02723
   38; H #2               -1.05467      -0.75609       0.56047       0.38077
   39; H #2                2.78529       0.93967       2.75193      -1.04686
   40; H #2               -0.65542      -0.57653      -1.26084      -0.57794
   41; H #2                0.03771       0.63813       1.46130      -0.90042
   42; H #2                0.59226      -0.73186       1.29504      -0.49159
   43; H #2                0.00763      -0.07752      -0.05169       0.14473
   44; H #2               -0.04814       0.08900      -0.04992       0.09191


                          MO # 39       MO # 40       MO # 41       MO # 42

    BASIS/ORB E            2.78016       4.16060       4.27043       5.69931
                        ----------    ----------    ----------    ----------
   31; N #1                0.06087       0.08236       0.32508       0.02201
   32; N #1                0.09027      -0.07775       0.17280      -0.30225
   33; N #1               -5.57799      -0.51795      -0.61802      -1.52336
   34; N #1                0.66268      -0.27734       0.40428       0.44654
   35; N #1                2.93237       0.71569       0.89326       0.84525
   36; N #1               -0.12591      -0.28399      -0.40005      -0.02838
   37; H #2                0.01426      -0.05448      -0.19218       1.30665
   38; H #2               -2.87840      -0.45694      -0.35941      -2.81800
   39; H #2               -2.14071      -0.03679       0.04244       1.01580
   40; H #2                0.68550      -0.03193       0.32904      -0.27179
   41; H #2               -1.74748       0.69125       0.08785      -0.38115
   42; H #2               -1.48889      -0.43600       0.59486      -0.32197
   43; H #2               -0.06492      -0.98323      -0.31454      -0.18891
   44; H #2               -0.02832       0.36709      -0.91568      -0.21326


                          MO # 43       MO # 44

    BASIS\ORB E            6.03689       6.88872
                        ----------    ----------
   31; N #1                1.10901       1.03185
   32; N #1                1.62053       1.88448
   33; N #1                0.82544      -2.24087
   34; N #1                0.41814       0.41218
   35; N #1               -1.49328       0.60540
   36; N #1                0.97166      -0.95568
   37; H #2               -0.02744       0.02951
   38; H #2                1.05091      -0.06797
   39; H #2                0.81789      -1.17623
   40; H #2                0.09732       0.49561
   41; H #2                0.73981      -0.65826
   42; H #2                0.51002      -0.58098
   43; H #2               -0.06132       0.58171
   44; H #2                0.04146       0.52376


  SYMMETRY BLOCK 4 (ALPHA)

                          MO # 45       MO # 46       MO # 47       MO # 48

    BASIS/ORB E            0.92009       1.85820       4.06254       5.55246
                        ----------    ----------    ----------    ----------
   45; N #1                0.10262       1.28673       0.18775       0.90334
   46; N #1                0.01569      -0.06500      -0.19588      -1.28439
   47; H #2               -0.77411       0.68622      -0.61600       0.31797
   48; H #2                0.09881      -0.06865       0.98419      -0.17352



  ORBITAL EIGENVECTORS

  SYMMETRY BLOCK 1 ( BETA)

                          MO #  1       MO #  2       MO #  3       MO #  4

    BASIS/ORB E          -15.56200      -1.05555      -0.46278       0.11780
                        ----------    ----------    ----------    ----------
    1; N #1                0.34671       0.07128       0.02888       0.02144
    2; N #1               -0.42966      -0.12205      -0.05123      -0.03162
    3; N #1               -0.32279      -0.13543      -0.05428      -0.05762
    4; N #1               -0.03546       0.19103       0.07771       0.15409
    5; N #1                0.01358       0.46783       0.23922      -0.14174
    6; N #1               -0.00275       0.20546       0.29439       1.14739
    7; N #1               -0.00224       0.03978      -0.20693       0.04497
    8; N #1               -0.00101      -0.06494       0.28621      -0.07436
    9; N #1               -0.00154      -0.04227       0.28071      -0.06095
   10; N #1                0.00033      -0.00383       0.18713      -0.20223
   11; N #1                0.00000       0.00128      -0.00643       0.00114
   12; N #1               -0.00033      -0.00350       0.00072      -0.00283
   13; N #1               -0.00003       0.00046      -0.00142       0.00029
   14; N #1                0.00012      -0.00320       0.00226      -0.00002
   15; H #2               -0.00003       0.05885      -0.04365       0.00880
   16; H #2               -0.00150       0.10715      -0.09377      -0.08153
   17; H #2               -0.00100       0.05503      -0.11842       0.21930
   18; H #2                0.00058       0.00276      -0.00796      -1.05095
   19; H #2               -0.00105       0.00871      -0.02001       0.00144
   20; H #2               -0.00076       0.00264       0.01014      -0.00288
   21; H #2                0.00000       0.01192      -0.00717       0.01141
   22; H #2                0.00004       0.00861      -0.00003       0.00795


                          MO #  5       MO #  6       MO #  7       MO #  8

    BASIS/ORB E            0.37469       0.47901       0.72832       0.87977
                        ----------    ----------    ----------    ----------
    1; N #1                0.01776       0.01209       0.04486       0.00589
    2; N #1               -0.02988      -0.02553      -0.10303      -0.00847
    3; N #1               -0.03967      -0.01228      -0.02842      -0.01762
    4; N #1                0.09103      -0.05202      -0.22888       0.07226
    5; N #1                0.02882       0.36684       1.93483      -0.06703
    6; N #1                1.93262       2.34274      -5.21446      -2.16931
    7; N #1               -0.09480       0.16006       0.02724      -0.04453
    8; N #1                0.00049      -0.05633      -0.12838      -0.00819
    9; N #1                0.42855      -1.24958       0.76364       0.97323
   10; N #1               -1.96984      -0.12789       0.85659       0.77737
   11; N #1                0.00466       0.01041      -0.00917      -0.00082
   12; N #1               -0.00611      -0.03642       0.07572       0.02947
   13; N #1               -0.00225      -0.00020       0.00142       0.00893
   14; N #1                0.00774       0.01303      -0.01399       0.00345
   15; H #2               -0.04215      -0.05563      -0.03203      -0.02263
   16; H #2                0.10050      -0.00303       0.25236      -0.02713
   17; H #2               -1.55680      -2.38965       1.23971       1.51904
   18; H #2                0.07358       0.65103       0.75194      -0.09024
   19; H #2               -0.07392      -0.17943       0.39198       0.75502
   20; H #2               -0.02643      -0.15452       0.31168      -0.46587
   21; H #2                0.01257       0.01417      -0.02809      -0.07114
   22; H #2               -0.00190       0.01289      -0.02766       0.06355


                          MO #  9       MO # 10       MO # 11       MO # 12

    BASIS/ORB E            1.25417       1.53138       1.73028       2.09120
                        ----------    ----------    ----------    ----------
    1; N #1                0.01291       0.02175       0.00430       0.00308
    2; N #1               -0.01012      -0.06418      -0.00647      -0.00812
    3; N #1               -0.06149       0.02290      -0.01393       0.00036
[...]
   After   9 iterations, amplitude changes are:
    -------------------------------------------------------------------
                 Spin      RMS          Max.      Max. change for
     Amplitude   Case     Change       Change       i    j    a    b
    -------------------------------------------------------------------
        T1        AA    0.0000000667 0.0000041834    3         6
        T1        BB    0.0000000749-0.0000045501    3         5
        T2        AA    0.0000000005 0.0000002760    4    2   26    6
        T2        BB    0.0000000007-0.0000004935    4    3   34    5
        T2        AB    0.0000000010 0.0000074619    4    3    6   24
    -------------------------------------------------------------------
   The AA contribution to the correlation energy is:   -0.0296408 a.u.
   The BB contribution to the correlation energy is:   -0.0136335 a.u.
   The AB contribution to the correlation energy is:   -0.1745752 a.u.
   The total correlation energy is -0.217849575288 a.u.
  Current DIIS expansion coefficients : 
 [   1] 0.0718783822 [   2]-0.0229645507 [   3]-0.7031483852 [   4] 1.6666975743
 [   5]-0.0124630206
  Convergence information after     9 iterations: 
  Largest element of residual vector :  0.74619475E-05.
  Largest element of DIIS residual   :  0.35842172E-05.
  W(mnij) AA contribution =  0.0036331773 a.u.
  W(mnij) BB contribution =  0.0014141117 a.u.
  W(mnij) AB contribution =  0.0347065400 a.u.
  W(abef) AA contribution =  0.0043122796 a.u.
  W(abef) BB contribution =  0.0017481913 a.u.
  W(abef) AB contribution =  0.0435296244 a.u.
  W(mbej) AA contribution =  -0.0081421950 a.u.
  W(mbej) BB contribution =  -0.0029407152 a.u.
  W(mbej) AB contribution = -0.1114018348 a.u.
   After  10 iterations, amplitude changes are:
    -------------------------------------------------------------------
                 Spin      RMS          Max.      Max. change for
     Amplitude   Case     Change       Change       i    j    a    b
    -------------------------------------------------------------------
        T1        AA    0.0000000322 0.0000019723    3         6
        T1        BB    0.0000000233-0.0000014892    3         5
        T2        AA    0.0000000002 0.0000000897    4    3   26    6
        T2        BB    0.0000000002-0.0000001121    4    3   34    5
        T2        AB    0.0000000003 0.0000025164    4    3    6   24
    -------------------------------------------------------------------
   The AA contribution to the correlation energy is:   -0.0296408 a.u.
   The BB contribution to the correlation energy is:   -0.0136335 a.u.
   The AB contribution to the correlation energy is:   -0.1745753 a.u.
   The total correlation energy is -0.217849564529 a.u.
  Current DIIS expansion coefficients : 
 [   1]-0.0084847248 [   2] 0.0360536614 [   3] 0.0337662003 [   4]-0.4927226825
 [   5] 1.4313875456
  Convergence information after    10 iterations: 
  Largest element of residual vector :  0.25164452E-05.
  Largest element of DIIS residual   :  0.14698952E-05.
   Largest T1 amplitudes for spin case AA:
   i       a                 i       a                 i       a    
-----------------------------------------------------------------------------
[  2       8    ] 0.01698 [  2      12    ] 0.01321 [  2      11    ] 0.01188
[  5      34    ] 0.01182 [  4      25    ]-0.00819 [  3      12    ] 0.00813
[  2       7    ] 0.00796 [  5      38    ] 0.00762 [  3       7    ] 0.00759
[  2       6    ] 0.00715 [  3      13    ]-0.00688 [  5      32    ] 0.00565
[  2      13    ] 0.00542 [  4      27    ] 0.00515 [  2      18    ] 0.00455
-----------------------------------------------------------------------------
   Norm of T1AA vector (       77 symmetry allowed elements):  0.0386187414.
-----------------------------------------------------------------------------
   Largest T2 amplitudes for spin case AA:
   i   j   a   b             i   j   a   b             i   j   a   b
-----------------------------------------------------------------------------
[  5   4  34  25]-0.01726 [  4   3  25   8] 0.01651 [  5   3  33  10]-0.01518
[  4   3  25   7]-0.01298 [  5   4  45   8]-0.01277 [  5   3  34   7]-0.01268
[  5   3  35  10]-0.01200 [  5   4  32  25]-0.01191 [  5   4  34  27]-0.01086
[  4   3  26  10]-0.01076 [  5   3  34  10]-0.01057 [  4   2  25   9]-0.01029
[  5   4  45  11]-0.01008 [  4   3  25  13] 0.00995 [  4   3  26   8] 0.00982
-----------------------------------------------------------------------------
   Norm of T2AA vector (     2375 symmetry allowed elements):  0.0844609385.
-----------------------------------------------------------------------------
   Largest T1 amplitudes for spin case BB:
   i       a                 i       a                 i       a    
-----------------------------------------------------------------------------
[  3       6    ]-0.01671 [  2       6    ]-0.01243 [  2       7    ]-0.01073
[  2      11    ]-0.01042 [  2       5    ]-0.00851 [  4      32    ]-0.00835
[  2      10    ]-0.00824 [  4      38    ] 0.00741 [  3      12    ]-0.00665
[  4      34    ]-0.00663 [  3      11    ]-0.00654 [  3       7    ] 0.00626
[  2      14    ] 0.00611 [  4      33    ]-0.00545 [  3      14    ] 0.00502
-----------------------------------------------------------------------------
   Norm of T1BB vector (       70 symmetry allowed elements):  0.0362860498.
-----------------------------------------------------------------------------
   Largest T2 amplitudes for spin case BB:
   i   j   a   b             i   j   a   b             i   j   a   b
-----------------------------------------------------------------------------
[  4   3  33   9]-0.01504 [  4   3  34   6]-0.01360 [  4   3  35   9]-0.01173
[  4   3  34   9]-0.01056 [  3   2  26  24]-0.00989 [  4   3  32   6]-0.00928
[  4   2  45  24]-0.00918 [  4   3  34   7] 0.00742 [  4   2  34   8]-0.00673
[  4   3  34  11]-0.00662 [  4   3  33  13]-0.00661 [  4   3  35  13]-0.00656
[  4   3  45  26]-0.00632 [  3   2   8   6] 0.00616 [  3   2   8   7]-0.00616
-----------------------------------------------------------------------------
   Norm of T2BB vector (     1686 symmetry allowed elements):  0.0544227332.
-----------------------------------------------------------------------------
   Largest T2 amplitudes for spin case AB:
       _       _                 _       _                 _       _
   i   j   a   b             i   j   a   b             i   j   a   b
-----------------------------------------------------------------------------
[  5   4  34  34]-0.03373 [  3   3   8   7]-0.02427 [  4   4  25  34]-0.02301
[  3   4   8  34] 0.02207 [  4   2   8  24]-0.02115 [  4   3  25   6]-0.02091
[  3   3   7   6]-0.02077 [  5   3  34   7] 0.01998 [  3   3   8   6] 0.01925
[  5   2  45  24]-0.01924 [  5   4  32  34]-0.01923 [  5   4   8   7]-0.01885
[  5   4  34  32]-0.01883 [  3   3  33  33]-0.01866 [  3   3  10   9]-0.01861
-----------------------------------------------------------------------------
   Norm of T2AB vector (    10858 symmetry allowed elements):  0.2274920745.
-----------------------------------------------------------------------------
  W(mnij) AA contribution =  0.0036331765 a.u.
  W(mnij) BB contribution =  0.0014141069 a.u.
  W(mnij) AB contribution =  0.0347064009 a.u.
  W(abef) AA contribution =  0.0043122761 a.u.
  W(abef) BB contribution =  0.0017481859 a.u.
  W(abef) AB contribution =  0.0435294653 a.u.
  W(mbej) AA contribution =  -0.0081422001 a.u.
  W(mbej) BB contribution =  -0.0029407056 a.u.
  W(mbej) AB contribution = -0.1114014140 a.u.
   After  11 iterations, amplitude changes are:
    -------------------------------------------------------------------
                 Spin      RMS          Max.      Max. change for
     Amplitude   Case     Change       Change       i    j    a    b
    -------------------------------------------------------------------
        T1        AA    0.0000000101 0.0000005978    3         6
        T1        BB    0.0000000077-0.0000003505    3         5
        T2        AA    0.0000000001 0.0000000921    4    3   25    6
        T2        BB    0.0000000001 0.0000000710    4    3   34    7
        T2        AB    0.0000000001 0.0000007332    4    3    6   24
    -------------------------------------------------------------------
   The AA contribution to the correlation energy is:   -0.0296408 a.u.
   The BB contribution to the correlation energy is:   -0.0136335 a.u.
   The AB contribution to the correlation energy is:   -0.1745753 a.u.
   The total correlation energy is -0.217849556560 a.u.
  Current DIIS expansion coefficients : 
 [   1] 1.3251060721 [   2]-0.0026855172 [   3] 0.0223810182 [   4]-0.0253661182
 [   5]-0.3194354548
  Convergence information after    11 iterations: 
  Largest element of residual vector :  0.73315602E-06.
  Largest element of DIIS residual   :  0.24700350E-06.
  W(mnij) AA contribution =  0.0036331838 a.u.
  W(mnij) BB contribution =  0.0014141117 a.u.
  W(mnij) AB contribution =  0.0347063108 a.u.
  W(abef) AA contribution =  0.0043122862 a.u.
  W(abef) BB contribution =  0.0017481911 a.u.
  W(abef) AB contribution =  0.0435293895 a.u.
  W(mbej) AA contribution =  -0.0081422242 a.u.
  W(mbej) BB contribution =  -0.0029407203 a.u.
  W(mbej) AB contribution = -0.1114010909 a.u.
   After  12 iterations, amplitude changes are:
    -------------------------------------------------------------------
                 Spin      RMS          Max.      Max. change for
     Amplitude   Case     Change       Change       i    j    a    b
    -------------------------------------------------------------------
        T1        AA    0.0000000041 0.0000002414    3         6
        T1        BB    0.0000000019 0.0000000950    3         5
        T2        AA    0.0000000000 0.0000000337    4    3   25    6
        T2        BB    0.0000000001-0.0000000340    4    3   34    6
        T2        AB    0.0000000000 0.0000001595    4    3    6   24
    -------------------------------------------------------------------
   The AA contribution to the correlation energy is:   -0.0296408 a.u.
   The BB contribution to the correlation energy is:   -0.0136335 a.u.
   The AB contribution to the correlation energy is:   -0.1745752 a.u.
   The total correlation energy is -0.217849521886 a.u.
  Current DIIS expansion coefficients : 
 [   1]-0.2515145641 [   2] 1.2902962943 [   3]-0.0066950977 [   4] 0.0461212910
 [   5]-0.0782079236
  Convergence information after    12 iterations: 
  Largest element of residual vector :  0.24140360E-06.
  Largest element of DIIS residual   :  0.18067736E-06.
  W(mnij) AA contribution =  0.0036331874 a.u.
  W(mnij) BB contribution =  0.0014141149 a.u.
  W(mnij) AB contribution =  0.0347062624 a.u.
  W(abef) AA contribution =  0.0043122896 a.u.
  W(abef) BB contribution =  0.0017481937 a.u.
  W(abef) AB contribution =  0.0435293398 a.u.
  W(mbej) AA contribution =  -0.0081422353 a.u.
  W(mbej) BB contribution =  -0.0029407292 a.u.
  W(mbej) AB contribution = -0.1114009010 a.u.
   After  13 iterations, amplitude changes are:
    -------------------------------------------------------------------
                 Spin      RMS          Max.      Max. change for
     Amplitude   Case     Change       Change       i    j    a    b
    -------------------------------------------------------------------
        T1        AA    0.0000000007 0.0000000362    3         6
        T1        BB    0.0000000006 0.0000000248    3         5
        T2        AA    0.0000000000 0.0000000197    4    3   25    6
        T2        BB    0.0000000000 0.0000000102    4    3   34    5
        T2        AB    0.0000000000 0.0000000714    4    3    7   24
    -------------------------------------------------------------------
   The AA contribution to the correlation energy is:   -0.0296408 a.u.
   The BB contribution to the correlation energy is:   -0.0136335 a.u.
   The AB contribution to the correlation energy is:   -0.1745752 a.u.
   The total correlation energy is -0.217849511005 a.u.
  Current DIIS expansion coefficients : 
 [   1]-0.0542596781 [   2]-0.3285502740 [   3] 1.3455019508 [   4]-0.0102439333
 [   5] 0.0475519346
  Convergence information after    13 iterations: 
  Largest element of residual vector :  0.71384813E-07.
  Largest element of DIIS residual   : -0.54976778E-07.
  Amplitude equations converged in    13iterations.
   The AA contribution to the correlation energy is:   -0.0296408 a.u.
   The BB contribution to the correlation energy is:   -0.0136335 a.u.
   The AB contribution to the correlation energy is:   -0.1745752 a.u.
   The total correlation energy is -0.217849506846 a.u.
   The CC iterations have converged.

            ----------------------------------------------
                     Projected spin multiplicities: 
            ----------------------------------------------
             <0|S^2|0>                  =    0.7500000000.
             <0|S^2 (T2+T1**2) |0>      =    0.0000000000.
             <0|S^2 T1|0>               =    0.0000000000.
             Projected <0|S^2 exp(T)|0> =    0.7500000000.
             Approximate spin mult.     =    2.0000000000.
            ----------------------------------------------
   Largest T1 amplitudes for spin case AA:
   i       a                 i       a                 i       a    
-----------------------------------------------------------------------------
[  2       8    ] 0.01698 [  2      12    ] 0.01321 [  2      11    ] 0.01188
[  5      34    ] 0.01182 [  4      25    ]-0.00819 [  3      12    ] 0.00813
[  2       7    ] 0.00796 [  5      38    ] 0.00762 [  3       7    ] 0.00759
[  2       6    ] 0.00715 [  3      13    ]-0.00688 [  5      32    ] 0.00565
[  2      13    ] 0.00542 [  4      27    ] 0.00515 [  2      18    ] 0.00455
-----------------------------------------------------------------------------
   Norm of T1AA vector (       77 symmetry allowed elements):  0.0386193709.
-----------------------------------------------------------------------------
   Largest T2 amplitudes for spin case AA:
   i   j   a   b             i   j   a   b             i   j   a   b
-----------------------------------------------------------------------------
[  5   4  34  25]-0.01726 [  4   3  25   8] 0.01651 [  5   3  33  10]-0.01518
[  4   3  25   7]-0.01298 [  5   4  45   8]-0.01277 [  5   3  34   7]-0.01268
[  5   3  35  10]-0.01200 [  5   4  32  25]-0.01191 [  5   4  34  27]-0.01086
[  4   3  26  10]-0.01076 [  5   3  34  10]-0.01057 [  4   2  25   9]-0.01029
[  5   4  45  11]-0.01008 [  4   3  25  13] 0.00995 [  4   3  26   8] 0.00982
-----------------------------------------------------------------------------
   Norm of T2AA vector (     2375 symmetry allowed elements):  0.0844610788.
-----------------------------------------------------------------------------
   Largest T1 amplitudes for spin case BB:
   i       a                 i       a                 i       a    
-----------------------------------------------------------------------------
[  3       6    ]-0.01671 [  2       6    ]-0.01243 [  2       7    ]-0.01073
[  2      11    ]-0.01042 [  2       5    ]-0.00851 [  4      32    ]-0.00835
[  2      10    ]-0.00824 [  4      38    ] 0.00741 [  3      12    ]-0.00665
[  4      34    ]-0.00663 [  3      11    ]-0.00654 [  3       7    ] 0.00626
[  2      14    ] 0.00611 [  4      33    ]-0.00545 [  3      14    ] 0.00502
-----------------------------------------------------------------------------
   Norm of T1BB vector (       70 symmetry allowed elements):  0.0362862184.
-----------------------------------------------------------------------------
   Largest T2 amplitudes for spin case BB:
   i   j   a   b             i   j   a   b             i   j   a   b
-----------------------------------------------------------------------------
[  4   3  33   9]-0.01504 [  4   3  34   6]-0.01360 [  4   3  35   9]-0.01173
[  4   3  34   9]-0.01056 [  3   2  26  24]-0.00989 [  4   3  32   6]-0.00928
[  4   2  45  24]-0.00918 [  4   3  34   7] 0.00742 [  4   2  34   8]-0.00673
[  4   3  34  11]-0.00662 [  4   3  33  13]-0.00661 [  4   3  35  13]-0.00656
[  4   3  45  26]-0.00632 [  3   2   8   6] 0.00616 [  3   2   8   7]-0.00616
-----------------------------------------------------------------------------
   Norm of T2BB vector (     1686 symmetry allowed elements):  0.0544229151.
-----------------------------------------------------------------------------
   Largest T2 amplitudes for spin case AB:
       _       _                 _       _                 _       _
   i   j   a   b             i   j   a   b             i   j   a   b
-----------------------------------------------------------------------------
[  5   4  34  34]-0.03373 [  3   3   8   7]-0.02427 [  4   4  25  34]-0.02301
[  3   4   8  34] 0.02207 [  4   2   8  24]-0.02115 [  4   3  25   6]-0.02091
[  3   3   7   6]-0.02077 [  5   3  34   7] 0.01998 [  3   3   8   6] 0.01925
[  5   2  45  24]-0.01924 [  5   4  32  34]-0.01923 [  5   4   8   7]-0.01885
[  5   4  34  32]-0.01883 [  3   3  33  33]-0.01866 [  3   3  10   9]-0.01861
-----------------------------------------------------------------------------
   Norm of T2AB vector (    10858 symmetry allowed elements):  0.2274915389.
-----------------------------------------------------------------------------
       Summary of iterative solution of CC equations 
      -----------------------------------------------------------
                       Correlation           Total
       Iteration         Energy              Energy
      -----------------------------------------------------------
            0        -0.200585620760     -55.785322880647  DIIS 
            1        -0.212632436648     -55.797369696535  DIIS 
            2        -0.216349247964     -55.801086507850  DIIS 
            3        -0.217436564111     -55.802173823997  DIIS 
            4        -0.217795410044     -55.802532669930  DIIS 
            5        -0.217841296098     -55.802578555984  DIIS 
            6        -0.217846028579     -55.802583288465  DIIS 
            7        -0.217848763778     -55.802586023665  DIIS 
            8        -0.217849138323     -55.802586398209  DIIS 
            9        -0.217849575288     -55.802586835174  DIIS 
           10        -0.217849564529     -55.802586824415  DIIS 
           11        -0.217849556560     -55.802586816446  DIIS 
           12        -0.217849521886     -55.802586781772  DIIS 
           13        -0.217849506846     -55.802586766732  DIIS 
      -----------------------------------------------------------
      A miracle has come to pass. The CC iterations have converged.
      The total energy is     -55.80258676673206 a.u.
  @CHECKOUT-I, Total execution time :       1.4400 seconds.
 --executable xvcc finished with status            0



  //>>>>>>>>>>>>>>>>>>>>>>>>>>>>>>>>>>>//
  //     Cfour cfour Energy Results    //
  //<<<<<<<<<<<<<<<<<<<<<<<<<<<<<<<<<<<//


  Variable Map:
  ----------------------------------------------------------------------------
  "CCSD CORRELATION ENERGY"    =>      -0.217849506846
  "CCSD OPPOSITE-SPIN ENERGY"  =>      -0.174575200000
  "CCSD SAME-SPIN ENERGY"      =>      -0.043274300000
  "CCSD TOTAL ENERGY"          =>     -55.802586766732
  "CURRENT CORRELATION ENERGY" =>      -0.217849506846
  "CURRENT ENERGY"             =>     -55.802586766732
  "CURRENT REFERENCE ENERGY"   =>     -55.584737259886
  "MP2 CORRELATION ENERGY"     =>      -0.200539527743
  "MP2 OPPOSITE-SPIN ENERGY"   =>      -0.155770421364
  "MP2 SAME-SPIN ENERGY"       =>      -0.041785354594
  "MP2 SINGLES ENERGY"         =>      -0.002983751785
  "MP2 TOTAL ENERGY"           =>     -55.785276787630
  "NUCLEAR REPULSION ENERGY"   =>       7.680541635300
  "SCF TOTAL ENERGY"           =>     -55.584737259886



*** PSI4 exiting successfully. Buy a developer a beer!
