    -----------------------------------------------------------------------
          PSI4: An Open-Source Ab Initio Electronic Structure Package
                              PSI 4.0.0-beta4+ Driver

               Git: Rev {c4} ef7097b1d82a7804b2d78ad28247f837c1527697

    J. M. Turney, A. C. Simmonett, R. M. Parrish, E. G. Hohenstein,
    F. A. Evangelista, J. T. Fermann, B. J. Mintz, L. A. Burns, J. J. Wilke,
    M. L. Abrams, N. J. Russ, M. L. Leininger, C. L. Janssen, E. T. Seidl,
    W. D. Allen, H. F. Schaefer, R. A. King, E. F. Valeev, C. D. Sherrill,
    and T. D. Crawford, WIREs Comput. Mol. Sci., (2011) (doi: 10.1002/wcms.93)

                         Additional Contributions by
    A. E. DePrince, M. Saitow, U. Bozkaya, A. Yu. Sokolov
    -----------------------------------------------------------------------

    Process ID:  14154
    PSI4DATADIR: /theoryfs2/ds/loriab/chem/psi4_trials/c4/psi4/lib

    Using LocalCommunicator (Number of processes = 1)

    Memory level set to 256.000 MB

  ==> Input File <==

--------------------------------------------------------------------------
#! MP2 optimization of dimers with one momomer ghosted. Gradients
#! after three opt cycles are compared with those from psi4.

arr = [                                        #TEST
    [-0.0000590,    0.0001572,    0.0000000],  #TEST
    [-0.0000792,   -0.0002937,    0.0000000],  #TEST
    [ 0.0000184,    0.0004954,    0.0000000],  #TEST
    [ 0.0006027,    0.0000104,    0.0000594],  #TEST
    [-0.0010855,   -0.0003797,    0.0000000],  #TEST
    [ 0.0006027,    0.0000104,   -0.0000594]   #TEST
      ]                                        #TEST
grad_p4_dimer = psi4.Matrix(6, 3)              #TEST
grad_p4_dimer.set(arr)                         #TEST

arr = [                                        #TEST
    [-0.0004244,   -0.0000197,    0.0000000],  #TEST
    [ 0.0002313,    0.0001608,    0.0000000],  #TEST
    [-0.0004138,   -0.0000068,    0.0000000],  #TEST
    [ 0.0000953,   -0.0000090,    0.0000074],  #TEST
    [ 0.0004163,   -0.0001162,    0.0000000],  #TEST
    [ 0.0000953,   -0.0000090,   -0.0000074]   #TEST
      ]                                        #TEST
grad_p4_mA = psi4.Matrix(6, 3)                 #TEST
grad_p4_mA.set(arr)                            #TEST

arr = [                                        #TEST
    [ 0.0000000,   -0.0000273,    0.0000000],  #TEST
    [-0.0000022,   -0.0000422,   -0.0000038],  #TEST
    [-0.0000022,   -0.0000422,    0.0000038],  #TEST
    [ 0.0000044,   -0.0000422,    0.0000000],  #TEST
    [-0.0000000,   -0.0000077,    0.0000000],  #TEST
    [-0.0000041,    0.0004254,    0.0000000],  #TEST
    [ 0.0000021,    0.0000733,    0.0000000],  #TEST
    [ 0.0000689,   -0.0001119,   -0.0001297],  #TEST
    [ 0.0000689,   -0.0001119,    0.0001297],  #TEST
    [-0.0001359,   -0.0001134,    0.0000000]   #TEST
      ]                                        #TEST
grad_p4_mB = psi4.Matrix(10, 3)                #TEST
grad_p4_mB.set(arr)                            #TEST


molecule watdim {
0 1
H  -1.934259   0.762503   0.000000
O  -1.551007  -0.114520   0.000000
H  -0.599677   0.040712   0.000000
--
0 1
@H   1.680398  -0.373741  -0.758561
@O   1.350625   0.111469   0.000000
@H   1.680398  -0.373741   0.758561
}

molecule methdim {
0 1
@C   0.000000  -0.000140   1.859161
@H  -0.888551   0.513060   1.494685
@H   0.888551   0.513060   1.494685
@H   0.000000  -1.026339   1.494868
@H   0.000000   0.000089   2.948284
--
0 1
C   0.000000   0.000140  -1.859161
H   0.000000  -0.000089  -2.948284
H  -0.888551  -0.513060  -1.494685
H   0.888551  -0.513060  -1.494685
H   0.000000   1.026339  -1.494868
}

set basis 6-31g*
set cfour_SCF_CONV=12
set rms_force_g_convergence 6
set geom_maxiter 3
set mp2_type conv
set scf_type pk

activate(watdim)
optimize('c4-mp2')
compare_matrices(grad_p4_mA, psi4.get_gradient(), 5, 'P4 vs C4 gradient w/ghosts')  #TEST

clean()
opt_clean()

activate(methdim)
optimize('c4-mp2')
compare_matrices(grad_p4_mB, psi4.get_gradient(), 5, 'P4 vs C4 gradient w/ghosts')  #TEST

opt_clean()

--------------------------------------------------------------------------

  GENBAS loaded from /theoryfs2/ds/cdsgroup/scripts/bin/GENBAS
  CFOUR to be run from /scratch/loriab//psi.14154.methdim.cfour.93450
  GENBAS loaded from PSI4 LibMints for basis 6-31G*
 --invoking executable xjoda


   *************************************************************************
         <<<     CCCCCC     CCCCCC   |||     CCCCCC     CCCCCC   >>>
       <<<      CCC        CCC       |||    CCC        CCC         >>>
      <<<      CCC        CCC        |||   CCC        CCC            >>>
    <<<        CCC        CCC        |||   CCC        CCC              >>>
      <<<      CCC        CCC        |||   CCC        CCC            >>>
       <<<      CCC        CCC       |||    CCC        CCC         >>>
         <<<     CCCCCC     CCCCCC   |||     CCCCCC     CCCCCC   >>>
   *************************************************************************

     ****************************************************************
     * CFOUR Coupled-Cluster techniques for Computational Chemistry *
     ****************************************************************
 

   Department of Chemistry                Institut fuer Physikalische Chemie
   University of Texas at Austin          Universitaet Mainz
   Austin, TX  48792, USA                 D-55099 Mainz, Germany
 
                       version 1.2
 
                     john3                                             
                     Mon Oct 14 02:42:48 EDT 2013                      
                     integer*8 version is running
 
    -------------------------------------------------------------------
                    Input from ZMAT file
    -------------------------------------------------------------------
 
 auto-generated by qcdb from molecule watdim                                    
 H    -1.868415346097    0.762298435953    0.000000000000                       
 O    -1.485163346097   -0.114724564047    0.000000000000                       
 H    -0.533833346097    0.040507435953    0.000000000000                       
 GH    1.746241653903   -0.373945564047   -0.758561000000                       
 GH    1.416468653903    0.111264435953    0.000000000000                       
 GH    1.746241653903   -0.373945564047    0.758561000000                       
                                                                                
 *CFOUR(BASIS=SPECIAL                                                           
 SPHERICAL=0                                                                    
 MULTIPLICITY=1                                                                 
 COORDINATES=CARTESIAN                                                          
 DERIV_LEVEL=FIRST                                                              
 UNITS=ANGSTROM                                                                 
 CALC_LEVEL=MP2                                                                 
 SCF_CONV=12                                                                    
 CHARGE=0)                                                                      
                                                                                
 H:P4_1                                                                         
 O:P4_2                                                                         
 H:P4_3                                                                         
 H:P4_4                                                                         
 O:P4_5                                                                         
 H:P4_6                                                                         
                                                                                
 
    -------------------------------------------------------------------
                    CFOUR Control Parameters 
    -------------------------------------------------------------------
        External           Internal           Value            Units
          Name               Name
    -------------------------------------------------------------------
       PRINT                IPRNT               0               ***   
       CALCLEVEL            ICLLVL           MBPT(2)    [  1]   ***   
       DERIV_LEV            IDRLVL            FIRST     [  1]   ***   
       CC_CONV              ICCCNV          10D-  7             ***   
       SCF_CONV             ISCFCV          10D- 12             ***   
       XFORM_TOL            IXFTOL          10D- 11             ***   
       CC_MAXCYC            ICCCYC              0              cycles 
       LINDEP_TOL           ILINDP              8               ***   
       RDO                  IRDOFM              ON      [  1]   ***   
  
       SCF_EXTRAPO          IRPP                ON      [  1]   ***   
       REFERENCE            IREFNC             RHF      [  0]   ***   
       CC_EXPORDER          ICCEOR              0               ***   
       TAMP_SUM             IEVERY              0               ***   
       NTOP_TAMP            ITOPT2             15               ***   
       CCORBOPT             ICCORB             OFF      [  0] x 0.01  
       SCF_MAXCYC           ISCFCY            150              cycles 
       OCCUPATION           IOCCU   ESTIMATED BY SCF 
       PROPS                IPROPS             OFF      [  0]   ***   
       RELAX_DENS           IRDENS              ON      [  1]   ***   
  
       SCF_EXPORDE          IRPPOR              6               ***   
       CC_EXTRAPOL          ICCEXT             DIIS     [  1]   ***   
       BRUECKNER            IBRKNR             OFF      [  0]   ***   
       XFIELD               IXEFLD              0             x 10-6  
       YFIELD               IYEFLD              0             x 10-6  
       ZFIELD               IZEFLD              0             x 10-6  
       SAVE_INTS            ISVINT             OFF      [  0]   ***   
       DROPMO               IDRPMO      NONE         
       CHARGE               ICHRGE              0               ***   
       MULTIPLICTY          IMULTP              1               ***   
  
       CPHF_CONVER          ICPHFT          10D- 16             ***   
       CPHF_MAXCYC          ICPHFC             64              cycles 
       INCORE               INCORE             OFF      [  0]   ***   
       MEMORY_SIZE          IMEMSZ         100000000           words  
       FILE_RECSIZ          IFLREC              4096           words  
       NON-HF               INONHF             OFF      [  0]   ***   
       ORBITALS             IORBTP           STANDARD   [  0]   ***   
  
       SCF_EXPSTAR          IRPPLS              8               ***   
       LOCK_ORBOCC          ILOCOC             OFF      [  0]   ***   
       HBAR                 IHBAR              OFF      [  0]   ***   
       CACHE_RECS           ICHREC             10               ***   
       GUESS                IGUESS            MOREAD    [  0]   ***   
       JODA_PRINT           IJPRNT              0               ***   
       GEO_METHOD           INR            SINGLE_POINT [  5]   ***   
       GEO_CONV             ICONTL              5              H/bohr 
       EIGENVECTOR          IVEC                1               ***   
  
       NEGEVAL              IDIE             ABORT      [  0]   ***   
       CURVILINEAR          ICURVY            OFF       [  0]   ***   
       SCALE_ON             ISTCRT              0               ***   
       GEO_MAXSTEP          IMXSTP            300            millibohr
       VIBRATION            IVIB              NO        [  0]   ***   
       EVAL_HESS            IRECAL              0            # of cyc.
       INTEGRALS            INTTYP             VMOL     [  1]   ***   
       FD_STEPSIZE          IDISFD              0            10-4 bohr
       POINTS               IGRDFD              0               ***   
       CONTRACTION          ICNTYP          GENERAL     [  1]   ***   
  
       SYMMETRY             ISYM             ON         [  0]   ***   
       BASIS                IBASIS         SPECIAL      [  0]   ***   
       SPHERICAL            IDFGHI             OFF      [  0]   ***   
       RESET_FLAGS          IRESET             OFF      [  0]   ***   
       PERT_ORB             IPTORB         STANDARD     [  0]   ***   
       GENBAS_1             IGNBS1              0               ***   
       GENBAS_2             IGNBS2              0               ***   
       GENBAS_3             IGNBS3              0               ***   
       COORDINATES          ICOORD         CARTESIAN    [  1]   ***   
       SYM_CHECK            ISYMCK         OVERRIDE     [  1]   ***   
  
       SCF_PRINT            ISCFPR              0               ***   
       ECP                  IECP           OFF          [  0]   ***   
       RESTART_CC           ICCRES         OFF          [  0]   ***   
       TRANS_INV            ITRAIN         USE          [  0]   ***   
       HFSTABILITY          ISTABL         OFF          [  0]   ***   
       ROT_EVEC             ROTVEC              0               ***   
       BRUCK_CONV           IBRTOL          10D-  4             ***   
       UNITS                IUNITS         ANGSTROM     [  0]   ***   
       FD_USEGROUP          IFDGRP         FULL         [  0]   ***   
  
       FD_PROJECT           IFDPRJ         ON           [  0]   ***   
       FD_CALTYPE           IFDCAL         GRADONLY     [  0]   ***   
       VTRAN                IVTRAN         FULL/PARTIAL [  0]   ***   
       HF2_FILE             IHF2Fl         USE          [  1]   ***   
       SUBGROUP             ISUBGP         DEFAULT      [  0]   ***   
       SUBGRPAXIS           ISBXYZ         X            [  0]   ***   
       EXCITE               IEXCIT         NONE         [  0]   ***   
       LINEQ_CONV           IZTACN          10D-  7           cycles  
  
       TREAT_PERT           ITREAT         SIMULTANEOUS [  0]   ***   
       ESTATE_PROP          IEXPRP         OFF          [  0]   ***   
       GEO_MAXCYC           IOPTCY             50               ***   
       ABCDTYPE             IABCDT         STANDARD     [  0]   ***   
       AO_LADDERS           IAOLAD         SINGLEPASS   [  1]   ***   
       FOCK                 IFOCK          AO           [  1]   ***   
       ESTATE_MAXC          IEXMXC             20               ***   
       ESTATE_CONV          IEXTOL          10D-  5             ***   
       DIRECT               IDIRCT         OFF          [  0]   ***   
  
       GAMMA_ABCD           IGABCD         STORE        [  0]   ***   
       LINEQ_TYPE           ILTYPE         DIIS         [  1]   ***   
       LINEQ_MAXCY          ILMAXC             50               ***   
       TRANGRAD             IRESRM         OFF          [  0]   ***   
       PSI                  IPSI           OFF          [  0]   ***   
       GAMMA_ABCI           IGABCI         STORE        [  0]   ***   
       ESTATE_DIAG          IEXDIG         ITERATIVE    [  0]   ***   
       FC_FIELD             IFINFC              0             x 10-6  
       SD_FIELD             IFINSD              0             x 10-6  
       DIFF_TYPE            IDIFTY         RELAXED      [  0]   ***   
  
       LINEQ_EXPOR          ILMAXD              5               ***   
       FINITE_PERT          IFIPER              0             x 10-6  
       ANHARMONIC           IANHAR         OFF          [  0]   ***   
       CC_PROGRAM           ICCPRO         VCC          [  0]   ***   
       OPEN-SHELL           IOPEN          SPIN-ORBITAL [  0]   ***   
       UIJ_THRESHO          IUIJTH             25               ***   
       SCF_DAMPING          IDAMP               0             x 10-3  
       PROP_INTEGR          IINTYP         INTERNAL     [  0]   ***   
       ANH_SYMMETR          IANHSM         ABELIAN      [  0]   ***   
       ANH_ALGORIT          IANALG         STANDARD     [  0]   ***   
  
       EOM_NONIT            EOMNON         OFF          [  0]   ***   
       VIB_ALGORIT          IGEALG         STANDARD     [  0]   ***   
       ANH_DERIVAT          IANDER         SECOND       [  1]   ***   
       SPINROTATIO          ISRCON         OFF          [  0]   ***   
       CIS_CONV             ICISTL              5               ***   
       ANH_STEPSIZ          ICUBST             50000          x 10-6  
       SPIN_FLIP            ISPFLP         OFF          [  0]   ***   
       GRID                 IGRID          OFF          [  0]   ***   
  
       DBOC                 IDBOC          OFF          [  0]   ***   
       EOMFOLLOW            IEOMSR         ENERGY       [  0]   ***   
       T3_EXTRAPOL          IT3EXT         OFF          [  0]   ***   
       ESTATE_LOCK          IESLOC         OFF          [  0]   ***   
       UNOS                 IUNOS          OFF          [  0]   ***   
       FREQ_ALGORI          IVIALG         STANDARD     [  0]   ***   
       RELATIVIST           IRELAT         OFF          [  0]   ***   
       FROZEN_CORE          IFROCO         OFF          [  0]   ***   
       EXCITATION           IEXCIT              0               ***   
       INPUT_MRCC           IMRCC          ON           [  1]   ***   
  
       GIAO                 IGIAO          OFF          [  1]   ***   
       EOM_NSING            IEOMSI          10D-  0             ***   
       EOM_NTRIP            IEOMTR          10D-  0             ***   
       EOM_NSTATES          IMRCCD         DAVIDSON     [  0]   ***   
       DIAG_MRCC            IEOMST          10D-  0             ***   
       NEWNORM              INEWNO         OFF          [  0]   ***   
       TESTSUITE            ITESTS         OFF          [  0]   ***   
       BUFFERSIZE           IBUFFS            600               ***   
       SPINORBIT            ISOCAL         OFF          [  0]   ***   
       DCT                  IDCT           OFF          [  0]   ***   
  
       PARALLEL             IPARAL         ON           [  1]   ***   
       PARA_PRINT           IPPRIN              0               ***   
       COMM_SIZE            IPSIZE            ***               ***   
       PARA_INT             IPINTS         ON           [  1]   ***   
       RAMAN_INT            IRAMIN         OFF          [  0]   ***   
       RAMAN_ORB            IRAMRE         UNRELAXED    [  0]   ***   
       BREIT                IBREIT         OFF          [  0]   ***   
       MEM_UNIT             IMEMU          INTEGERWORDS [  0]   ***   
       SPIN_ORBIT           ISPORB         OFF          [  0]   ***   
       GENBAS_4             IGNBS4              0               ***   
  
       SPIN_SCAL            ISCSMP         OFF          [  0]   ***   
       GRID_ALGO            IGALGO         SERIAL       [  0]   ***   
       VIBPHASE             ISETPH         STANDARD     [  0]   ***   
       SEQUENCE             ISEQUE         OFF          [  0]   ***   
       HESS_TYPE            IHESTP         SCF          [  0]   ***   
       CONTINUUM            ICONTU         NONE         [  0]   ***   
       SCF_NOSTOP           ISCFST         OFF          [  0]   ***   
       CONSTANT             ICONST         OLD          [  1]   ***   
  
       EOM_MRCC             IMRCCE         OLD          [  0]   ***   
       EOM_ORDER            IEXORD         ENERGY       [  0]   ***   
       GIMIC                IGIMIC         OFF          [  0]   ***   
    -------------------------------------------------------------------
  @GETXYZ-I,     6 atoms read from ZMAT.
  1  H          1     1.00783
  2  O          8    15.99491
  3  H          1     1.00783
  4  GH       110   100.00000
  5  GH       110   100.00000
  6  GH       110   100.00000
  1  H          1     1.00783
  2  O          8    15.99491
  3  H          1     1.00783
  4  GH       110   100.00000
  5  GH       110   100.00000
  6  GH       110   100.00000
   Rotational constants (in cm-1): 
          0.0585549334             0.0899884202             0.1300715699
   Rotational constants (in MHz): 
       1755.4329859776          2697.7853459910          3899.4481133231
********************************************************************************
   The full molecular point group is C s .
   The largest Abelian subgroup of the full molecular point group is C s .
   The computational point group is C s .
********************************************************************************
 ----------------------------------------------------------------
 Z-matrix   Atomic            Coordinates (in bohr)
  Symbol    Number           X              Y              Z
 ----------------------------------------------------------------
     H         1         1.04900234    -6.46708464     0.00000000
     O         8        -0.50835640    -5.54734870     0.00000000
     H         1         0.00067515    -3.79839000     0.00000000
     GH      110        -0.25463653     0.57348318     1.43347284
     GH      110         0.58000533    -0.15621465     0.00000000
     GH      110        -0.25463653     0.57348318    -1.43347284
 ----------------------------------------------------------------
   Interatomic distance matrix (Angstroms) 
 
                 H             O             H             GH            GH   
                [ 1]        [ 2]        [ 3]        [ 4]        [ 5]
  H    [ 1]     0.00000
  O    [ 2]     0.95711     0.00000
  H    [ 3]     1.51726     0.96391     0.00000
  GH   [ 4]     3.86422     3.32935     2.43843     0.00000
  GH   [ 5]     3.34878     2.91042     1.95159     0.95895     0.00000
  GH   [ 6]     3.86422     3.32935     2.43843     1.51712     0.95895
 
                 GH   
                [ 6]
  GH   [ 6]     0.00000
   Rotational constants (in cm-1): 
          0.0585549334             0.1300715699             0.0899884202
   Rotational constants (in MHz): 
       1755.4329859776          3899.4481133231          2697.7853459910
  There are   38 basis functions.
                0.12 seconds walltime passed
 --executable xjoda finished with status            0
  flag is                      5
 --invoking executable xvmol
 Serial version of molecule started
 
    -------------------------------------------------------------------
                    Input from MOL file
    -------------------------------------------------------------------
 INTGRL        1    0    1    0    0    0    0    0    1                        
          *** CFOUR Program System (Release V0.1) ***                           
 auto-generated by qcdb from molecule watdim                                    
     5    1 Z          0.10E-08              0    0                             
    9999.00      3.00                                                           
           1.00000000    1    1    1                                            
 H #1      1.049002336644     -6.467084636219      0.000000000000               
     4    2                                                                     
    18.7311370000000       3.349460000000000E-002  0.000000000000000E+000       
    2.82539370000000       0.234726900000000       0.000000000000000E+000       
   0.640121700000000       0.813757300000000       0.000000000000000E+000       
   0.161277800000000       0.000000000000000E+000   1.00000000000000            
           8.00000000    1    3    1    1    1                                  
 O #2     -0.508356402960     -5.547348697703      0.000000000000               
    10    3                                                                     
    5484.67170000000       1.831100000000000E-003  0.000000000000000E+000       
   0.000000000000000E+000                                                       
    825.234950000000       1.395010000000000E-002  0.000000000000000E+000       
   0.000000000000000E+000                                                       
    188.046960000000       6.844509999999999E-002  0.000000000000000E+000       
   0.000000000000000E+000                                                       
    52.9645000000000       0.232714300000000       0.000000000000000E+000       
   0.000000000000000E+000                                                       
    16.8975700000000       0.470193000000000       0.000000000000000E+000       
   0.000000000000000E+000                                                       
    5.79963530000000       0.358520900000000       0.000000000000000E+000       
   0.000000000000000E+000                                                       
    15.5396160000000       0.000000000000000E+000 -0.110777500000000            
   0.000000000000000E+000                                                       
    3.59993360000000       0.000000000000000E+000 -0.148026300000000            
   0.000000000000000E+000                                                       
    1.01376180000000       0.000000000000000E+000   1.13076700000000            
   0.000000000000000E+000                                                       
   0.270005800000000       0.000000000000000E+000  0.000000000000000E+000       
    1.00000000000000                                                            
     4    2                                                                     
    15.5396160000000       7.087430000000000E-002  0.000000000000000E+000       
    3.59993360000000       0.339752800000000       0.000000000000000E+000       
    1.01376180000000       0.727158600000000       0.000000000000000E+000       
   0.270005800000000       0.000000000000000E+000   1.00000000000000            
     1    1                                                                     
   0.800000000000000        1.00000000000000                                    
           1.00000000    1    1    1                                            
 H #3      0.000675154723     -3.798390000970      0.000000000000               
     4    2                                                                     
    18.7311370000000       3.349460000000000E-002  0.000000000000000E+000       
    2.82539370000000       0.234726900000000       0.000000000000000E+000       
   0.640121700000000       0.813757300000000       0.000000000000000E+000       
   0.161277800000000       0.000000000000000E+000   1.00000000000000            
           0.00000000    1    1    1                                            
 GH#4     -0.254636532501      0.573483179523      1.433472839244               
     4    2                                                                     
    18.7311370000000       3.349460000000000E-002  0.000000000000000E+000       
    2.82539370000000       0.234726900000000       0.000000000000000E+000       
   0.640121700000000       0.813757300000000       0.000000000000000E+000       
   0.161277800000000       0.000000000000000E+000   1.00000000000000            
           0.00000000    1    3    1    1    1                                  
 GH#5      0.580005325127     -0.156214647265      0.000000000000               
    10    3                                                                     
    5484.67170000000       1.831100000000000E-003  0.000000000000000E+000       
   0.000000000000000E+000                                                       
    825.234950000000       1.395010000000000E-002  0.000000000000000E+000       
   0.000000000000000E+000                                                       
    188.046960000000       6.844509999999999E-002  0.000000000000000E+000       
   0.000000000000000E+000                                                       
    52.9645000000000       0.232714300000000       0.000000000000000E+000       
   0.000000000000000E+000                                                       
    16.8975700000000       0.470193000000000       0.000000000000000E+000       
   0.000000000000000E+000                                                       
    5.79963530000000       0.358520900000000       0.000000000000000E+000       
   0.000000000000000E+000                                                       
    15.5396160000000       0.000000000000000E+000 -0.110777500000000            
   0.000000000000000E+000                                                       
    3.59993360000000       0.000000000000000E+000 -0.148026300000000            
   0.000000000000000E+000                                                       
    1.01376180000000       0.000000000000000E+000   1.13076700000000            
   0.000000000000000E+000                                                       
   0.270005800000000       0.000000000000000E+000  0.000000000000000E+000       
    1.00000000000000                                                            
     4    2                                                                     
    15.5396160000000       7.087430000000000E-002  0.000000000000000E+000       
    3.59993360000000       0.339752800000000       0.000000000000000E+000       
    1.01376180000000       0.727158600000000       0.000000000000000E+000       
   0.270005800000000       0.000000000000000E+000   1.00000000000000            
     1    1                                                                     
   0.800000000000000        1.00000000000000                                    
 FINISH                                                                         
 
    -------------------------------------------------------------------
 
 One- and two-electron integrals over symmetry-adapted AOs are calculated.

  Cartesian gaussians are used.
  
  Integrals less than  0.10E-13 are neglected.

  Nuclear repulsion energy :    9.1638282655 a.u.
  required memory for a1 array                3020082  words 
  required memory for a2 array                2070133  words 
 basis number:   1     2
 basis number:   8    15
 basis number:   1     2
 basis number:   0     2
 basis number:   0    15
  @MOLECU-I, One electron integrals required         0.01000 seconds.
  @TWOEL-I,      78835 integrals of symmetry type  I I I I
  @TWOEL-I,      36795 integrals of symmetry type  I J I J
  @TWOEL-I,      21079 integrals of symmetry type  I I J J
  @TWOEL-I, Total number of 2-e integrals     136709.
  @MOLECU-I, Two electron integrals required         0.25000 seconds.
  @CHECKOUT-I, Total execution time :       0.2600 seconds.
                0.25 seconds walltime passed
 --executable xvmol finished with status            0
 --invoking executable xvmol2ja
  @CHECKOUT-I, Total execution time :       0.0000 seconds.
                0.00 seconds walltime passed
 --executable xvmol2ja finished with status            0
 --invoking executable xvscf
 NSOSCF                     0
  There are   38 functions in the AO basis.

  There are 2 irreducible representations.

       Irrep        # of functions
         1                 28
         2                 10


  Parameters for SCF calculation: 
        SCF reference function:  RHF  
  Maximum number of iterations:  150
     Full symmetry point group: C s 
     Computational point group: C s 
        Initial density matrix: MOREAD                 
     SCF convergence tolerance: 10**(-12)
  DIIS convergence acceleration:  ON
          Latest start for DIIS:   8
                     DIIS order:   6

  Memory information:      95108 words required.
  Fock matrices are constructed from AO integral file.
  Initialization and symmetry analysis required      0.000 seconds.

  @INITGES-I, Occupancies from core Hamiltonian:

          Alpha population by irrep:   4    1
           Beta population by irrep:   4    1


 total no. of electrons in initial guess :  0.000000000000000E+000
  --------------------------------------------------------------------
  Iteration         Total Energy            Largest Density Difference
  --------------------------------------------------------------------
       0             9.163828265497390              0.0000000000D+00
   current occupation vector 
     4  1
     4  1
       1           -68.857373262427032              0.2353704335D+01
   current occupation vector 
     4  1
     4  1
       2           -65.580893451579215              0.2938181983D+01
   current occupation vector 
     4  1
     4  1
       3           -72.610737586645087              0.2938184783D+01
   current occupation vector 
     4  1
     4  1
       4           -71.080518271317445              0.4477020928D+01
   current occupation vector 
     5  0
     5  0
       5           -73.845003481892391              0.4373790564D+01
   current occupation vector 
     4  1
     4  1
       6           -72.691790016089442              0.2060111305D+01
   current occupation vector 
     5  0
     5  0
       7           -74.505171086347644              0.2037532538D+01
   current occupation vector 
     4  1
     4  1
       8           -75.345505815541813              0.1189274957D+01
   current occupation vector 
     4  1
     4  1
       9           -76.008522072364400              0.9212473824D+00
   current occupation vector 
     4  1
     4  1
      10           -76.010610217075765              0.3000458005D-01
   current occupation vector 
     4  1
     4  1
      11           -76.010712353304143              0.1022920372D-01
   current occupation vector 
     4  1
     4  1
      12           -76.010719984435724              0.2851687710D-02
   current occupation vector 
     4  1
     4  1
      13           -76.010720130304165              0.2159379184D-03
   current occupation vector 
     4  1
     4  1
      14           -76.010720133560497              0.3400637461D-04
   current occupation vector 
     4  1
     4  1
      15           -76.010720133791139              0.9197392208D-05
   current occupation vector 
     4  1
     4  1
      16           -76.010720133796553              0.1376132611D-05
   current occupation vector 
     4  1
     4  1
      17           -76.010720133797392              0.4988686836D-06
   current occupation vector 
     4  1
     4  1
      18           -76.010720133797292              0.7998078172D-07
   current occupation vector 
     4  1
     4  1
      19           -76.010720133797051              0.2130374160D-07
   current occupation vector 
     4  1
     4  1
      20           -76.010720133797165              0.1044049669D-07
   current occupation vector 
     4  1
     4  1
      21           -76.010720133797008              0.2470285310D-08
   current occupation vector 
     4  1
     4  1
      22           -76.010720133797008              0.2929860035D-09
   current occupation vector 
     4  1
     4  1
      23           -76.010720133797022              0.9598596917D-10
   current occupation vector 
     4  1
     4  1
      24           -76.010720133797079              0.1644739900D-10
   current occupation vector 
     4  1
     4  1
      25           -76.010720133797108              0.5036387973D-11
   current occupation vector 
     4  1
     4  1

  SCF has converged.

 save density matrix on hard disk
 total electron number:   10.0000000000000     
     E(SCF)=       -76.010720133797278              0.9380551891D-12

  Eigenvector printing suppressed.

 @PUTMOS-I, Writing converged MOs to NEWMOS. 
 @PUTMOS-I, Symmetry   1 Full   7 Partial   0
 @PUTMOS-I, Symmetry   2 Full   2 Partial   2


 
  ORBITAL EIGENVALUES (ALPHA)  (1H = 27.2113838 eV)

       MO #        E(hartree)               E(eV)           FULLSYM    COMPSYM
       ----   --------------------   --------------------   -------   ---------
    1     1         -20.5614165414        -559.5045973834     A'        A'  (1)
    2     2          -1.3405270820         -36.4775969481     A'        A'  (1)
    3     3          -0.7050012811         -19.1840604531     A'        A'  (1)
    4     4          -0.5708832465         -15.5345231376     A'        A'  (1)
    5    29          -0.4978799680         -13.5480029049     A''       A'' (2)
  +++++++++++++++++++++++++++++++++++++++++++++++++++++++++++++++++++++++++++++
    6     5           0.1388331666           3.7778425838     A'        A'  (1)
    7     6           0.2385822464           6.4921530797     A'        A'  (1)
    8    30           0.3190694466           8.6823211775     A''       A'' (2)
    9     7           0.3400046526           9.2519971016     A'        A'  (1)
   10     8           0.5479318631          14.9099842334     A'        A'  (1)
   11     9           0.7297582853          19.8577327970     A'        A'  (1)
   12    10           0.8625682868          23.4716767238     A'        A'  (1)
   13    31           0.8787609239          23.9123007855     A''       A'' (2)
   14    11           1.0303698679          28.0377899525     A'        A'  (1)
   15    12           1.1485344585          31.2532119808     A'        A'  (1)
   16    32           1.1687336556          31.8028600845     A''       A'' (2)
   17    13           1.1703616610          31.8471603639     A'        A'  (1)
   18    14           1.3982443597          38.0481639456     A'        A'  (1)
   19    15           1.6056875344          43.6929797934     A'        A'  (1)
   20    16           2.0204474590          54.9791712954     A'        A'  (1)
   21    33           2.0332690277          55.3280639222     A''       A'' (2)
   22    34           2.0675261490          56.2602475968     A''       A'' (2)
   23    35           2.1144835391          57.5380231631     A''       A'' (2)
   24    17           2.2291823851          60.6591374857     A'        A'  (1)
   25    18           2.3291325779          63.3789205449     A'        A'  (1)
   26    19           2.6430182844          71.9201849803     A'        A'  (1)
   27    20           2.7718329952          75.4254115171     A'        A'  (1)
   28    36           2.7723682458          75.4399764250     A''       A'' (2)
   29    21           2.8354313204          77.1560099528     A'        A'  (1)
   30    22           2.9903186495          81.3707085138     A'        A'  (1)
   31    23           3.4942027424          95.0820919676     A'        A'  (1)
   32    37           3.8812160977         105.6132609212     A''       A'' (2)
   33    24           4.0656999398         110.6333215577     A'        A'  (1)
   34    25           4.3863170928         119.3577579661     A'        A'  (1)
   35    26           5.2720585039         143.4600074691     A'        A'  (1)
   36    27           5.4725000394         148.9142990250     A'        A'  (1)
   37    38           5.4963974813         149.5645814881     A''       A'' (2)
   38    28          37.7155862944        1026.2932946387     A'        A'  (1)


  VSCF finished.

  @CHECKOUT-I, Total execution time :       0.0800 seconds.
                0.12 seconds walltime passed
 --executable xvscf finished with status            0
 --invoking executable xvtran
  Partial RHF integral transformation
  Transformation of IIII integrals :
  1 pass through the AO integral file was required.
       78835 AO integrals were read.
       37976 MO integrals were written to HF2.
  Transformation of IIJJ integrals :
  1 pass through the AO integral file was required.
       21079 AO integrals were read.
        8830 MO integrals were written to HF2.
  Transformation of IJIJ integrals :
  1 pass through the AO integral file was required.
       36795 AO integrals were read.
       15904 MO integrals were written to HF2.
  Summary of active molecular orbitals: 
------------------------------------------------------------------------
 
  Index      Eigenvalue    Symmetry    Index      Eigenvalue    Symmetry
------------------------------------------------------------------------
     1       -20.5614165        1        20         2.6430183        1
     2        -1.3405271        1        21         2.7718330        1
     3        -0.7050013        1        22         2.8354313        1
     4        -0.5708832        1        23         2.9903186        1
     5        -0.4978800        2        24         3.4942027        1
     6         0.1388332        1        25         4.0656999        1
     7         0.2385822        1        26         4.3863171        1
     8         0.3400047        1        27         5.2720585        1
     9         0.5479319        1        28         5.4725000        1
    10         0.7297583        1        29        37.7155863        1
    11         0.8625683        1        30         0.3190694        2
    12         1.0303699        1        31         0.8787609        2
    13         1.1485345        1        32         1.1687337        2
    14         1.1703617        1        33         2.0332690        2
    15         1.3982444        1        34         2.0675261        2
    16         1.6056875        1        35         2.1144835        2
    17         2.0204475        1        36         2.7723682        2
    18         2.2291824        1        37         3.8812161        2
    19         2.3291326        1        38         5.4963975        2
------------------------------------------------------------------------
  @CHECKOUT-I, Total execution time :       0.0300 seconds.
                0.00 seconds walltime passed
 --executable xvtran finished with status            0
 --invoking executable xintprc
  Processing integrals for MBPT(2) calculation.
  @GMOIAA-I, Processing MO integrals for spin case AA.
  @GMOIAA-I, Generation of integral list completed.
                      TYPE                NUMBER
                      ----               --------
                      PPPP                     0
                      PPPH                 49185
                      PPHH                  7395
                      PHPH                  4659
                      PHHH                  1395
                      HHHH                    76

                     TOTAL                 62710

  @FORMT2-I, Second-order MP correlation energies:
              ----------------------------------------------
              E(SCF)                =  -76.010720133797 a.u.
              E2(AA)                =   -0.024212930124 a.u.
              E2(AB)                =   -0.140654606940 a.u.
              E2(TOT)               =   -0.189080467188 a.u.
              Total MP2 energy      =  -76.199800600985 a.u.
              ----------------------------------------------
   Largest T2 amplitudes for spin case AB:
       _       _                 _       _                 _       _
   i   j   a   b             i   j   a   b             i   j   a   b
-----------------------------------------------------------------------------
[  5   5  32  32]-0.04751 [  4   4  14  14]-0.02630 [  3   3   8   8]-0.02529
[  5   4  32  14] 0.02488 [  4   5  14  32] 0.02488 [  5   3  32  15]-0.02227
[  3   5  15  32]-0.02227 [  5   3  32   8] 0.02187 [  3   5   8  32] 0.02187
[  5   4  32  13]-0.02182 [  4   5  13  32]-0.02182 [  3   3  12  12]-0.02180
[  4   4  13  13]-0.02132 [  4   4  17  17]-0.02114 [  3   3  15  15]-0.02048
-----------------------------------------------------------------------------
   Norm of T2AB vector (    14625 symmetry allowed elements):  0.1915607321.
-----------------------------------------------------------------------------
  @CHECKOUT-I, Total execution time :       0.0000 seconds.
                0.12 seconds walltime passed
 --executable xintprc finished with status            0
 --invoking executable xvcc
   MBPT(2) energy will be calculated.
  -----------------------------------------------------------
       Correction         Increment           Cumulative
  -----------------------------------------------------------
        D-MBPT(2)       -0.189080467188   -76.199800600985
  -----------------------------------------------------------
  Total MBPT(2)       energy:   -76.199800600985 a.u.
  @CHECKOUT-I, Total execution time :       0.0000 seconds.
 --executable xvcc finished with status            0
 --invoking executable xlambda
 --executable xlambda finished with status            0
 --invoking executable xdens
  MBPT(2) density and intermediates are calculated.
  The iterative expansion of D(ai) converged after  17 iterations.
  ----------------------------------------------------------------------
                 Natural orbital occupation numbers
  ----------------------------------------------------------------------
  1.99990  1.98759  1.97388  1.97092  1.97008  0.02339  0.02143  0.01749
  0.01020  0.00522  0.00486  0.00446  0.00422  0.00415  0.00084  0.00068
  0.00037  0.00025  0.00008  0.00000  0.00000  0.00000  0.00000  0.00000
  0.00000  0.00000  0.00000  0.00000  0.00000  0.00000  0.00000  0.00000
  0.00000  0.00000  0.00000  0.00000  0.00000  -.00002
  Trace of density matrix :  10.0000000000.
  ----------------------------------------------------------------------
  Density calculation successfully completed.
  @CHECKOUT-I, Total execution time :       0.0100 seconds.
                0.00 seconds walltime passed
 --executable xdens finished with status            0
 --invoking executable xanti
 --executable xanti finished with status            0
 --invoking executable xbcktrn
 MBPT(2) MO gammas will be transformed to the AO basis.
  @CHECKOUT-I, Total execution time :       0.0000 seconds.
                0.12 seconds walltime passed
 --executable xbcktrn finished with status            0
 --invoking executable xvdint
 One- and two-electron integral derivatives are calculated
 for RHF-CC/MBPT gradients and dipole moments.
 Cartesian gaussians are used.

                     Kinetic energy integral gradient
                     --------------------------------

                         H #1 x    -0.4460734849
                         H #1 y     0.2924959932
                         O #2 x     0.5708010195
                         O #2 y     0.2192441937
                         H #3 x    -0.1244570737
                         H #3 y    -0.5105837527
                         GH#4 x     0.0000096287
                         GH#4 y     0.0000883397
                         GH#4 z    -0.0000233208
                         GH#5 x    -0.0002800896
                         GH#5 y    -0.0012447738


 H #1      -0.4460734849            0.2924959932            0.0000000000
 O #2       0.5708010195            0.2192441937            0.0000000000
 H #3      -0.1244570737           -0.5105837527            0.0000000000
 GH#4 1     0.0000048143            0.0000441698           -0.0000116604
 GH#4 2     0.0000048143            0.0000441698            0.0000116604
 GH#5      -0.0002800896           -0.0012447738            0.0000000000



                   Nuclear attraction integral gradient
                   ------------------------------------

                         H #1 x     4.7235627346
                         H #1 y    -3.0181325791
                         O #2 x    -6.1057101189
                         O #2 y    -2.3797187233
                         H #3 x     1.3754791077
                         H #3 y     5.3567870670
                         GH#4 x    -0.0001227560
                         GH#4 y     0.0086197027
                         GH#4 z     0.0014347727
                         GH#5 x     0.0067910325
                         GH#5 y     0.0324445328


 H #1       4.7235627346           -3.0181325791            0.0000000000
 O #2      -6.1057101189           -2.3797187233            0.0000000000
 H #3       1.3754791077            5.3567870670            0.0000000000
 GH#4 1    -0.0000613780            0.0043098513            0.0007173863
 GH#4 2    -0.0000613780            0.0043098513           -0.0007173863
 GH#5       0.0067910325            0.0324445328            0.0000000000



                      Reorthonormalization gradient
                      -----------------------------

                         H #1 x    -0.2365437139
                         H #1 y     0.1354528544
                         O #2 x     0.3152510730
                         O #2 y     0.1199305175
                         H #3 x    -0.0774999594
                         H #3 y    -0.2484495655
                         GH#4 x     0.0000326490
                         GH#4 y    -0.0015079078
                         GH#4 z    -0.0003201521
                         GH#5 x    -0.0012400487
                         GH#5 y    -0.0054258987


 H #1      -0.2365437139            0.1354528544            0.0000000000
 O #2       0.3152510730            0.1199305175            0.0000000000
 H #3      -0.0774999594           -0.2484495655            0.0000000000
 GH#4 1     0.0000163245           -0.0007539539           -0.0001600760
 GH#4 2     0.0000163245           -0.0007539539            0.0001600760
 GH#5      -0.0012400487           -0.0054258987            0.0000000000



                Electronic contributions to dipole moment
                -----------------------------------------

                               au             Debye

                    x      3.81793705      9.70422972
                    y     54.95729636    139.68753833

  Conversion factor used: 1 a.u. =   2.54174691 Debye 


  Evaluation of 1e integral derivatives required    0.01 seconds.
  Evaluation of 2el integral derivatives

                      Two-electron integral gradient
                      ------------------------------

                         H #1 x    -1.9008931417
                         H #1 y     1.2394051701
                         O #2 x     2.4510958346
                         O #2 y     0.9667458157
                         H #3 x    -0.5449518955
                         H #3 y    -2.1737907171
                         GH#4 x     0.0000852634
                         GH#4 y    -0.0070124074
                         GH#4 z    -0.0011057836
                         GH#5 x    -0.0053360609
                         GH#5 y    -0.0253478613


 H #1      -1.9008931417            1.2394051701            0.0000000000
 O #2       2.4510958346            0.9667458157            0.0000000000
 H #3      -0.5449518955           -2.1737907171            0.0000000000
 GH#4 1     0.0000426317           -0.0035062037           -0.0005528918
 GH#4 2     0.0000426317           -0.0035062037            0.0005528918
 GH#5      -0.0053360609           -0.0253478613            0.0000000000


  Evaluation of 2e integral derivatives required    0.48 seconds.

                            Molecular gradient
                            ------------------

                         H #1 x    -0.0101492378
                         H #1 y     0.0060280148
                         O #2 x     0.0109567792
                         O #2 y    -0.0023331302
                         H #3 x    -0.0007471599
                         H #3 y    -0.0043086108
                         GH#4 x     0.0000047851
                         GH#4 y     0.0001877272
                         GH#4 z    -0.0000144838
                         GH#5 x    -0.0000651667
                         GH#5 y     0.0004259989


 H #1      -0.0101492378            0.0060280148            0.0000000000
 O #2       0.0109567792           -0.0023331302            0.0000000000
 H #3      -0.0007471599           -0.0043086108            0.0000000000
 GH#4 1     0.0000023926            0.0000938636           -0.0000072419
 GH#4 2     0.0000023926            0.0000938636            0.0000072419
 GH#5      -0.0000651667            0.0004259989            0.0000000000


  Molecular gradient norm 0.169E-01

                           Total dipole moment
                           -------------------

                               au             Debye

                    x      0.80076332      2.03533770
                    y      0.31303214      0.79564848

  Conversion factor used: 1 a.u. =   2.54174691 Debye 


  @CHECKOUT-I, Total execution time :       0.4900 seconds.
                0.38 seconds walltime passed
 --executable xvdint finished with status            0
 --invoking executable xjoda
 @GETREC: requested length of vector GRADIENT is longer than actual
 Actual --                     12  Requested --                     18
                0.00 seconds walltime passed
 --executable xjoda finished with status            0

  //>>>>>>>>>>>>>>>>>>>>>>>>>>>>>>>>>>>//
  //   Cfour c4-mp2 Gradient Results   //
  //<<<<<<<<<<<<<<<<<<<<<<<<<<<<<<<<<<<//


  Variable Map:
  ----------------------------------------------------------------------------
  "CURRENT CORRELATION ENERGY" =>      -0.189080467188
  "CURRENT ENERGY"             =>     -76.199800600985
  "CURRENT REFERENCE ENERGY"   =>     -76.010720133797
  "MP2 CORRELATION ENERGY"     =>      -0.189080467188
  "MP2 OPPOSITE-SPIN ENERGY"   =>      -0.140654606940
  "MP2 SAME-SPIN ENERGY"       =>      -0.048425860248
  "MP2 TOTAL ENERGY"           =>     -76.199800600985
  "NUCLEAR REPULSION ENERGY"   =>       9.163828265500
  "SCF TOTAL ENERGY"           =>     -76.010720133797


  Irrep: 1 Size: 6 x 3

                 1            2            3

    1    0.0047537   -0.0108049    0.0000000
    2   -0.0009882    0.0111588    0.0000000
    3   -0.0043674   -0.0002195    0.0000000
    4    0.0000935   -0.0000090    0.0000072
    5    0.0004150   -0.0001163    0.0000000
    6    0.0000935   -0.0000090   -0.0000072




  CFOUR scratch file GRD has been read
    6        0.0000000000
        1.0000000000        1.0490023366       -6.4670846362        0.0000000000
        8.0000000000       -0.5083564030       -5.5473486977        0.0000000000
        1.0000000000        0.0006751547       -3.7983900010        0.0000000000
        0.0000000000       -0.2546365325        0.5734831795        1.4334728392
        0.0000000000       -0.2546365325        0.5734831795       -1.4334728392
        0.0000000000        0.5800053251       -0.1562146473        0.0000000000
        1.0000000000       -0.0101492378        0.0060280148        0.0000000000
        8.0000000000        0.0109567792       -0.0023331302        0.0000000000
        1.0000000000       -0.0007471599       -0.0043086108        0.0000000000
        0.0000000000        0.0000023926        0.0000938636       -0.0000072419
        0.0000000000        0.0000023926        0.0000938636        0.0000072419
        0.0000000000       -0.0000651667        0.0004259989        0.0000000000



			-----------------------------------------
			 OPTKING 2.0: for geometry optimizations 
			  - R.A. King,  Bethel University        
			-----------------------------------------

	Internal coordinates to be generated automatically.
	Detected frag with atoms:  1 2 3 4 5 6
	---Fragment 1 Bond Connectivity---
	 1 : 2
	 2 : 1 3 4 5 6
	 3 : 2 4 5 6
	 4 : 2 3 5 6
	 5 : 2 3 4 6
	 6 : 2 3 4 5

	---Fragment 1 Geometry and Gradient---
	 H          -0.7843122908        1.5481782718        0.0000000000
	 O          -0.0600709709       -0.1091550105        0.0000000000
	 H           1.7376821911        0.1841909566        0.0000000000
	 X           6.0463995036       -0.5990117084       -1.4334725451
	 X           5.4232188475        0.3179023086        0.0000000000
	 X           6.0463995036       -0.5990117084        1.4334725451
	             0.0047537345       -0.0108049062        0.0000000000
	            -0.0009882222        0.0111587600        0.0000000000
	            -0.0043673990       -0.0002195474        0.0000000000
	             0.0000934618       -0.0000089992        0.0000072419
	             0.0004149629       -0.0001163079        0.0000000000
	             0.0000934618       -0.0000089992       -0.0000072419

	Previous optimization step data not found.  Starting new optimization.

	---Fragment 1 Intrafragment Coordinates---
	 - Coordinate -           - BOHR/RAD -       - ANG/DEG -
	 R(1,2)           =         1.808668	       0.957106
	 R(2,3)           =         1.821529	       0.963912
	 R(2,4)           =         6.291565	       3.329353
	 R(2,5)           =         5.499895	       2.910419
	 R(2,6)           =         6.291565	       3.329353
	 R(3,4)           =         4.607960	       2.438428
	 R(3,5)           =         3.687961	       1.951585
	 R(3,6)           =         4.607960	       2.438428
	 R(4,5)           =         1.812161	       0.958955
	 R(4,6)           =         2.866945	       1.517122
	 R(5,6)           =         1.812161	       0.958955
	 B(1,2,3)         =         1.821032	     104.337454
	 B(1,2,4)         =         2.048783	     117.386614
	 B(1,2,5)         =         1.905054	     109.151540
	 B(1,2,6)         =         2.048783	     117.386614
	 B(2,3,4)         =         2.680310	     153.570454
	 B(2,3,5)         =         3.016109	     172.810294
	 B(2,3,6)         =         2.680310	     153.570454
	 B(2,4,3)         =         0.129224	       7.403961
	 B(2,4,5)         =         0.984362	      56.399793
	 B(2,4,6)         =         1.340937	      76.830040
	 B(2,5,3)         =         0.041462	       2.375620
	 B(2,5,4)         =         1.879225	     107.671639
	 B(2,5,6)         =         1.879225	     107.671639
	 B(2,6,3)         =         0.129224	       7.403961
	 B(2,6,4)         =         1.340937	      76.830040
	 B(2,6,5)         =         0.984362	      56.399793
	 B(3,2,4)         =         0.332059	      19.025585
	 B(3,2,5)         =         0.084022	       4.814086
	 B(3,2,6)         =         0.332059	      19.025585
	 B(3,4,5)         =         0.858420	      49.183861
	 B(3,4,6)         =         1.254461	      71.875301
	 B(3,5,4)         =         1.902143	     108.984789
	 B(3,5,6)         =         1.902143	     108.984789
	 B(3,6,4)         =         1.254461	      71.875301
	 B(3,6,5)         =         0.858420	      49.183861
	 B(4,2,5)         =         0.278006	      15.928568
	 B(4,2,6)         =         0.459718	      26.339920
	 B(4,3,5)         =         0.381029	      21.831350
	 B(4,3,6)         =         0.632671	      36.249399
	 B(4,5,6)         =         1.824979	     104.563587
	 B(4,6,5)         =         0.658307	      37.718206
	 B(5,2,6)         =         0.278006	      15.928568
	 B(5,3,6)         =         0.381029	      21.831350
	 B(5,4,6)         =         0.658307	      37.718206
	 D(1,2,3,4)       =        -2.367710	    -135.659770
	 D(1,2,3,5)       =         3.141593	     180.000000
	 D(1,2,3,6)       =         2.367710	     135.659770
	 D(1,2,4,3)       =         0.867356	      49.695864
	 D(1,2,4,5)       =         1.082746	      62.036757
	 D(1,2,4,6)       =         1.692317	      96.962635
	 D(1,2,5,3)       =         0.000000	       0.000000
	 D(1,2,5,4)       =        -2.162117	    -123.880197
	 D(1,2,5,6)       =         2.162117	     123.880197
	 D(1,2,6,3)       =        -0.867356	     -49.695864
	 D(1,2,6,4)       =        -1.692317	     -96.962635
	 D(1,2,6,5)       =        -1.082746	     -62.036757
	 D(2,3,4,5)       =        -2.904147	    -166.395345
	 D(2,3,4,6)       =        -2.289679	    -131.188943
	 D(2,3,5,4)       =         0.990924	      56.775738
	 D(2,3,5,6)       =        -0.990924	     -56.775738
	 D(2,3,6,4)       =         2.289679	     131.188943
	 D(2,3,6,5)       =         2.904147	     166.395345
	 D(2,4,3,5)       =         2.904147	     166.395345
	 D(2,4,3,6)       =         2.289679	     131.188943
	 D(2,4,5,3)       =        -0.036400	      -2.085566
	 D(2,4,5,6)       =         1.995382	     114.326991
	 D(2,4,6,3)       =        -0.099761	      -5.715861
	 D(2,4,6,5)       =        -0.893811	     -51.211606
	 D(2,5,3,4)       =        -0.990924	     -56.775738
	 D(2,5,3,6)       =         0.990924	      56.775738
	 D(2,5,4,3)       =         0.036400	       2.085566
	 D(2,5,4,6)       =        -1.995382	    -114.326991
	 D(2,5,6,3)       =        -0.036400	      -2.085566
	 D(2,5,6,4)       =         1.995382	     114.326991
	 D(2,6,3,4)       =        -2.289679	    -131.188943
	 D(2,6,3,5)       =        -2.904147	    -166.395345
	 D(2,6,4,3)       =         0.099761	       5.715861
	 D(2,6,4,5)       =         0.893811	      51.211606
	 D(2,6,5,3)       =         0.036400	       2.085566
	 D(2,6,5,4)       =        -1.995382	    -114.326991
	 D(3,2,4,5)       =         0.215389	      12.340894
	 D(3,2,4,6)       =         0.824961	      47.266772
	 D(3,2,5,4)       =        -2.162117	    -123.880197
	 D(3,2,5,6)       =         2.162117	     123.880197
	 D(3,2,6,4)       =        -0.824961	     -47.266772
	 D(3,2,6,5)       =        -0.215389	     -12.340894
	 D(3,4,2,5)       =        -0.215389	     -12.340894
	 D(3,4,2,6)       =        -0.824961	     -47.266772
	 D(3,4,5,6)       =         2.031782	     116.412558
	 D(3,4,6,5)       =        -0.794051	     -45.495745
	 D(3,5,2,4)       =         2.162117	     123.880197
	 D(3,5,2,6)       =        -2.162117	    -123.880197
	 D(3,5,4,6)       =        -2.031782	    -116.412558
	 D(3,5,6,4)       =         2.031782	     116.412558
	 D(3,6,2,4)       =         0.824961	      47.266772
	 D(3,6,2,5)       =         0.215389	      12.340894
	 D(3,6,4,5)       =         0.794051	      45.495745
	 D(3,6,5,4)       =        -2.031782	    -116.412558
	 D(4,2,3,5)       =        -0.773883	     -44.340230
	 D(4,2,3,6)       =        -1.547766	     -88.680461
	 D(4,2,5,6)       =        -1.958951	    -112.239606
	 D(4,2,6,5)       =         0.609572	      34.925878
	 D(4,3,2,5)       =         0.773883	      44.340230
	 D(4,3,2,6)       =         1.547766	      88.680461
	 D(4,3,5,6)       =        -1.981847	    -113.551477
	 D(4,3,6,5)       =         0.614468	      35.206402
	 D(4,5,2,6)       =         1.958951	     112.239606
	 D(4,5,3,6)       =         1.981847	     113.551477
	 D(4,6,2,5)       =        -0.609572	     -34.925878
	 D(4,6,3,5)       =        -0.614468	     -35.206402
	 D(5,2,3,6)       =        -0.773883	     -44.340230
	 D(5,2,4,6)       =         0.609572	      34.925878
	 D(5,3,2,6)       =         0.773883	      44.340230
	 D(5,3,4,6)       =         0.614468	      35.206402
	 D(5,4,2,6)       =        -0.609572	     -34.925878
	 D(5,4,3,6)       =        -0.614468	     -35.206402

	Current energy   :       -76.1998006010

	Generating empirical Hessian (Schlegel '84) for each fragment.
	Going to follow RFO solution 1.
	Projected energy change by RFO approximation:        -0.0001397514

	Back-transformation to cartesian coordinates...
	Successfully converged to displaced geometry.

	---Internal Coordinate Step in ANG or DEG, aJ/ANG or AJ/DEG ---
	 ----------------------------------------------------------------------
	 Coordinate             Previous        Force       Change         New 
	 ----------             --------       ------       ------       ------
	 R(1,2)          =      0.957106     0.097253     0.011129     0.968235
	 R(2,3)          =      0.963912     0.014006     0.003660     0.967572
	 R(2,4)          =      3.329353     0.005726    -0.000581     3.328772
	 R(2,5)          =      2.910419     0.005912    -0.000553     2.909866
	 R(2,6)          =      3.329353     0.005726    -0.000581     3.328772
	 R(3,4)          =      2.438428    -0.007088    -0.004041     2.434386
	 R(3,5)          =      1.951585    -0.008015    -0.004262     1.947324
	 R(3,6)          =      2.438428    -0.007088    -0.004041     2.434386
	 R(4,5)          =      0.958955     0.000310    -0.000097     0.958858
	 R(4,6)          =      1.517122     0.000435    -0.000185     1.516937
	 R(5,6)          =      0.958955     0.000310    -0.000097     0.958858
	 B(1,2,3)        =    104.337454     0.000002     0.031596   104.369050
	 B(1,2,4)        =    117.386614     0.000001    -0.004151   117.382464
	 B(1,2,5)        =    109.151540     0.000001    -0.005263   109.146277
	 B(1,2,6)        =    117.386614     0.000001    -0.004151   117.382464
	 B(2,3,4)        =    153.570454    -0.000008    -0.006050   153.564404
	 B(2,3,5)        =    172.810294    -0.000002     0.040879   172.851173
	 B(2,3,6)        =    153.570454    -0.000008    -0.006050   153.564404
	 B(2,4,3)        =      7.403961     0.000010     0.031161     7.435123
	 B(2,4,5)        =     56.399793     0.000003    -0.001541    56.398252
	 B(2,4,6)        =     76.830040     0.000002    -0.000705    76.829335
	 B(2,5,3)        =      2.375620     0.000003    -0.004020     2.371600
	 B(2,5,4)        =    107.671639    -0.000001     0.000374   107.672013
	 B(2,5,6)        =    107.671639    -0.000001     0.000374   107.672013
	 B(2,6,3)        =      7.403961     0.000010     0.031161     7.435123
	 B(2,6,4)        =     76.830040     0.000002    -0.000705    76.829335
	 B(2,6,5)        =     56.399793     0.000003    -0.001541    56.398252
	 B(3,2,4)        =     19.025585    -0.000003    -0.025111    19.000474
	 B(3,2,5)        =      4.814086    -0.000001    -0.036860     4.777227
	 B(3,2,6)        =     19.025585    -0.000003    -0.025111    19.000474
	 B(3,4,5)        =     49.183861    -0.000007    -0.034260    49.149601
	 B(3,4,6)        =     71.875301    -0.000005    -0.028848    71.846452
	 B(3,5,4)        =    108.984789     0.000001    -0.001773   108.983016
	 B(3,5,6)        =    108.984789     0.000001    -0.001773   108.983016
	 B(3,6,4)        =     71.875301    -0.000005    -0.028848    71.846452
	 B(3,6,5)        =     49.183861    -0.000007    -0.034260    49.149601
	 B(4,2,5)        =     15.928568    -0.000002     0.001168    15.929735
	 B(4,2,6)        =     26.339920    -0.000003     0.001410    26.341330
	 B(4,3,5)        =     21.831350     0.000006     0.036033    21.867383
	 B(4,3,6)        =     36.249399     0.000010     0.057697    36.307096
	 B(4,5,6)        =    104.563587    -0.000000    -0.003093   104.560494
	 B(4,6,5)        =     37.718206     0.000000     0.001547    37.719753
	 B(5,2,6)        =     15.928568    -0.000002     0.001168    15.929735
	 B(5,3,6)        =     21.831350     0.000006     0.036033    21.867383
	 B(5,4,6)        =     37.718206     0.000000     0.001547    37.719753
	 D(1,2,3,4)      =   -135.659770     0.000000     0.074255  -135.585514
	 D(1,2,3,5)      =    180.000000    -0.000000     0.000000   180.000000
	 D(1,2,3,6)      =    135.659770    -0.000000    -0.074255   135.585514
	 D(1,2,4,3)      =     49.695864     0.000000     0.077509    49.773373
	 D(1,2,4,5)      =     62.036757    -0.000000    -0.002636    62.034121
	 D(1,2,4,6)      =     96.962635    -0.000000    -0.000853    96.961782
	 D(1,2,5,3)      =      0.000000    -0.000000     0.000000     0.000000
	 D(1,2,5,4)      =   -123.880197    -0.000000    -0.001604  -123.881801
	 D(1,2,5,6)      =    123.880197     0.000000     0.001604   123.881801
	 D(1,2,6,3)      =    -49.695864    -0.000000    -0.077509   -49.773373
	 D(1,2,6,4)      =    -96.962635     0.000000     0.000853   -96.961782
	 D(1,2,6,5)      =    -62.036757     0.000000     0.002636   -62.034121
	 D(2,3,4,5)      =   -166.395345     0.000000    -0.081779  -166.477124
	 D(2,3,4,6)      =   -131.188943     0.000000    -0.072138  -131.261081
	 D(2,3,5,4)      =     56.775738     0.000000    -0.002758    56.772981
	 D(2,3,5,6)      =    -56.775738    -0.000000     0.002758   -56.772981
	 D(2,3,6,4)      =    131.188943    -0.000000     0.072138   131.261081
	 D(2,3,6,5)      =    166.395345    -0.000000     0.081779   166.477124
	 D(2,4,3,5)      =    166.395345    -0.000000     0.081779   166.477124
	 D(2,4,3,6)      =    131.188943    -0.000000     0.072138   131.261081
	 D(2,4,5,3)      =     -2.085566    -0.000001     0.003590    -2.081977
	 D(2,4,5,6)      =    114.326991    -0.000000    -0.000860   114.326131
	 D(2,4,6,3)      =     -5.715861    -0.000002    -0.017668    -5.733529
	 D(2,4,6,5)      =    -51.211606    -0.000001     0.000585   -51.211021
	 D(2,5,3,4)      =    -56.775738    -0.000000     0.002758   -56.772981
	 D(2,5,3,6)      =     56.775738     0.000000    -0.002758    56.772981
	 D(2,5,4,3)      =      2.085566     0.000001    -0.003590     2.081977
	 D(2,5,4,6)      =   -114.326991     0.000000     0.000860  -114.326131
	 D(2,5,6,3)      =     -2.085566    -0.000001     0.003590    -2.081977
	 D(2,5,6,4)      =    114.326991    -0.000000    -0.000860   114.326131
	 D(2,6,3,4)      =   -131.188943     0.000000    -0.072138  -131.261081
	 D(2,6,3,5)      =   -166.395345     0.000000    -0.081779  -166.477124
	 D(2,6,4,3)      =      5.715861     0.000002     0.017668     5.733529
	 D(2,6,4,5)      =     51.211606     0.000001    -0.000585    51.211021
	 D(2,6,5,3)      =      2.085566     0.000001    -0.003590     2.081977
	 D(2,6,5,4)      =   -114.326991     0.000000     0.000860  -114.326131
	 D(3,2,4,5)      =     12.340894    -0.000000    -0.080145    12.260748
	 D(3,2,4,6)      =     47.266772    -0.000000    -0.078362    47.188410
	 D(3,2,5,4)      =   -123.880197    -0.000000    -0.001604  -123.881801
	 D(3,2,5,6)      =    123.880197     0.000000     0.001604   123.881801
	 D(3,2,6,4)      =    -47.266772     0.000000     0.078362   -47.188410
	 D(3,2,6,5)      =    -12.340894     0.000000     0.080145   -12.260748
	 D(3,4,2,5)      =    -12.340894     0.000000     0.080145   -12.260748
	 D(3,4,2,6)      =    -47.266772     0.000000     0.078362   -47.188410
	 D(3,4,5,6)      =    116.412558     0.000000    -0.004450   116.408108
	 D(3,4,6,5)      =    -45.495745     0.000001     0.018253   -45.477492
	 D(3,5,2,4)      =    123.880197     0.000000     0.001604   123.881801
	 D(3,5,2,6)      =   -123.880197    -0.000000    -0.001604  -123.881801
	 D(3,5,4,6)      =   -116.412558    -0.000000     0.004450  -116.408108
	 D(3,5,6,4)      =    116.412558     0.000000    -0.004450   116.408108
	 D(3,6,2,4)      =     47.266772    -0.000000    -0.078362    47.188410
	 D(3,6,2,5)      =     12.340894    -0.000000    -0.080145    12.260748
	 D(3,6,4,5)      =     45.495745    -0.000001    -0.018253    45.477492
	 D(3,6,5,4)      =   -116.412558    -0.000000     0.004450  -116.408108
	 D(4,2,3,5)      =    -44.340230    -0.000000    -0.074255   -44.414486
	 D(4,2,3,6)      =    -88.680461    -0.000000    -0.148511   -88.828972
	 D(4,2,5,6)      =   -112.239606     0.000000     0.003208  -112.236398
	 D(4,2,6,5)      =     34.925878     0.000000     0.001783    34.927661
	 D(4,3,2,5)      =     44.340230     0.000000     0.074255    44.414486
	 D(4,3,2,6)      =     88.680461     0.000000     0.148511    88.828972
	 D(4,3,5,6)      =   -113.551477    -0.000000     0.005515  -113.545962
	 D(4,3,6,5)      =     35.206402     0.000000     0.009641    35.216042
	 D(4,5,2,6)      =    112.239606    -0.000000    -0.003208   112.236398
	 D(4,5,3,6)      =    113.551477     0.000000    -0.005515   113.545962
	 D(4,6,2,5)      =    -34.925878    -0.000000    -0.001783   -34.927661
	 D(4,6,3,5)      =    -35.206402    -0.000000    -0.009641   -35.216042
	 D(5,2,3,6)      =    -44.340230    -0.000000    -0.074255   -44.414486
	 D(5,2,4,6)      =     34.925878     0.000000     0.001783    34.927661
	 D(5,3,2,6)      =     44.340230     0.000000     0.074255    44.414486
	 D(5,3,4,6)      =     35.206402     0.000000     0.009641    35.216042
	 D(5,4,2,6)      =    -34.925878    -0.000000    -0.001783   -34.927661
	 D(5,4,3,6)      =    -35.206402    -0.000000    -0.009641   -35.216042
	 ----------------------------------------------------------------------

  ==> Convergence Check <==

  Measures of convergence in internal coordinates in au.
  Criteria marked as inactive (o), active & met (*), and active & unmet ( ).
  --------------------------------------------------------------------------------------------- ~
   Step     Total Energy     Delta E     MAX Force     RMS Force      MAX Disp      RMS Disp    ~
  --------------------------------------------------------------------------------------------- ~
    Convergence Criteria    1.00e-06 *    3.00e-04 *    1.00e-06 *    1.20e-03 *             o  ~
  --------------------------------------------------------------------------------------------- ~
      1     -76.19980060   -7.62e+01      1.18e-02      1.12e-03      2.10e-02      2.51e-03 o  ~
  ---------------------------------------------------------------------------------------------

	Writing optimization data to binary file.
	Structure for next step:
	Cartesian Geometry (in Angstrom)
	    H    -0.4199525842   0.8253012401   0.0000000000
	    O    -0.0312388492  -0.0614797481   0.0000000000
	    H     0.9236123726   0.0948973086   0.0000000000
	    X     3.1999040476  -0.3167557268  -0.7584686802
	    X     2.8695625773   0.1680206204   0.0000000000
	    X     3.1999040476  -0.3167557268   0.7584686802
			--------------------------
			 OPTKING Finished Execution 
			--------------------------

    Structure for next step:
    Molecular point group: cs
    Full point group: Cs

    Geometry (in Angstrom), charge = 0, multiplicity = 1:

    H           -0.420393305389     0.828408474669     0.000000000000
    O           -0.031679600132    -0.058372445735     0.000000000000
    H            0.923171548800     0.098004598978     0.000000000000
    Gh(H)        3.199463049947    -0.313648404940    -0.758468622272
    Gh(O)        2.869121604866     0.171127905173     0.000000000000
    Gh(H)        3.199463049947    -0.313648404940     0.758468622272


  GENBAS loaded from /theoryfs2/ds/cdsgroup/scripts/bin/GENBAS
  CFOUR to be run from /scratch/loriab//psi.14154.methdim.cfour.80296
  GENBAS loaded from PSI4 LibMints for basis 6-31G*
 --invoking executable xjoda


   *************************************************************************
         <<<     CCCCCC     CCCCCC   |||     CCCCCC     CCCCCC   >>>
       <<<      CCC        CCC       |||    CCC        CCC         >>>
      <<<      CCC        CCC        |||   CCC        CCC            >>>
    <<<        CCC        CCC        |||   CCC        CCC              >>>
      <<<      CCC        CCC        |||   CCC        CCC            >>>
       <<<      CCC        CCC       |||    CCC        CCC         >>>
         <<<     CCCCCC     CCCCCC   |||     CCCCCC     CCCCCC   >>>
   *************************************************************************

     ****************************************************************
     * CFOUR Coupled-Cluster techniques for Computational Chemistry *
     ****************************************************************
 

   Department of Chemistry                Institut fuer Physikalische Chemie
   University of Texas at Austin          Universitaet Mainz
   Austin, TX  48792, USA                 D-55099 Mainz, Germany
 
                       version 1.2
 
                     john3                                             
                     Mon Oct 14 02:43:00 EDT 2013                      
                     integer*8 version is running
 
    -------------------------------------------------------------------
                    Input from ZMAT file
    -------------------------------------------------------------------
 
 auto-generated by qcdb from molecule watdim                                    
 H    -1.873439168303    0.769971361739    0.000000000000                       
 O    -1.484725463046   -0.116809558665    0.000000000000                       
 H    -0.529874314114    0.039567486048    0.000000000000                       
 GH    1.746417187033   -0.372085517870   -0.758468622272                       
 GH    1.416075741952    0.112690792243    0.000000000000                       
 GH    1.746417187033   -0.372085517870    0.758468622272                       
                                                                                
 *CFOUR(BASIS=SPECIAL                                                           
 SPHERICAL=0                                                                    
 MULTIPLICITY=1                                                                 
 COORDINATES=CARTESIAN                                                          
 DERIV_LEVEL=FIRST                                                              
 UNITS=ANGSTROM                                                                 
 CALC_LEVEL=MP2                                                                 
 SCF_CONV=12                                                                    
 CHARGE=0)                                                                      
                                                                                
 H:P4_1                                                                         
 O:P4_2                                                                         
 H:P4_3                                                                         
 H:P4_4                                                                         
 O:P4_5                                                                         
 H:P4_6                                                                         
                                                                                
 
    -------------------------------------------------------------------
                    CFOUR Control Parameters 
    -------------------------------------------------------------------
        External           Internal           Value            Units
          Name               Name
    -------------------------------------------------------------------
       PRINT                IPRNT               0               ***   
       CALCLEVEL            ICLLVL           MBPT(2)    [  1]   ***   
       DERIV_LEV            IDRLVL            FIRST     [  1]   ***   
       CC_CONV              ICCCNV          10D-  7             ***   
       SCF_CONV             ISCFCV          10D- 12             ***   
       XFORM_TOL            IXFTOL          10D- 11             ***   
       CC_MAXCYC            ICCCYC              0              cycles 
       LINDEP_TOL           ILINDP              8               ***   
       RDO                  IRDOFM              ON      [  1]   ***   
  
       SCF_EXTRAPO          IRPP                ON      [  1]   ***   
       REFERENCE            IREFNC             RHF      [  0]   ***   
       CC_EXPORDER          ICCEOR              0               ***   
       TAMP_SUM             IEVERY              0               ***   
       NTOP_TAMP            ITOPT2             15               ***   
       CCORBOPT             ICCORB             OFF      [  0] x 0.01  
       SCF_MAXCYC           ISCFCY            150              cycles 
       OCCUPATION           IOCCU   ESTIMATED BY SCF 
       PROPS                IPROPS             OFF      [  0]   ***   
       RELAX_DENS           IRDENS              ON      [  1]   ***   
  
       SCF_EXPORDE          IRPPOR              6               ***   
       CC_EXTRAPOL          ICCEXT             DIIS     [  1]   ***   
       BRUECKNER            IBRKNR             OFF      [  0]   ***   
       XFIELD               IXEFLD              0             x 10-6  
       YFIELD               IYEFLD              0             x 10-6  
       ZFIELD               IZEFLD              0             x 10-6  
       SAVE_INTS            ISVINT             OFF      [  0]   ***   
       DROPMO               IDRPMO      NONE         
       CHARGE               ICHRGE              0               ***   
       MULTIPLICTY          IMULTP              1               ***   
  
       CPHF_CONVER          ICPHFT          10D- 16             ***   
       CPHF_MAXCYC          ICPHFC             64              cycles 
       INCORE               INCORE             OFF      [  0]   ***   
       MEMORY_SIZE          IMEMSZ         100000000           words  
       FILE_RECSIZ          IFLREC              4096           words  
[...]
	 R(2,3)          =      1.776614     0.000017    -0.001587     1.775027
	 R(2,4)          =      1.776949     0.000016    -0.001584     1.775365
	 R(2,5)          =      1.778984    -0.000005    -0.000751     1.778233
	 R(2,6)          =      3.500789    -0.000458    -0.021253     3.479537
	 R(3,4)          =      1.776949     0.000016    -0.001584     1.775365
	 R(3,5)          =      1.778984    -0.000005    -0.000751     1.778233
	 R(3,6)          =      3.500789    -0.000458    -0.021253     3.479537
	 R(4,5)          =      1.779087    -0.000005    -0.000749     1.778338
	 R(4,6)          =      3.501114    -0.000458    -0.021253     3.479861
	 R(6,7)          =      1.089830    -0.000604     0.000401     1.090232
	 R(6,8)          =      1.090051    -0.001448     0.000190     1.090241
	 R(6,9)          =      1.090051    -0.001448     0.000190     1.090241
	 R(6,10)         =      1.090038    -0.001368     0.000219     1.090258
	 B(1,2,3)        =     35.315075    -0.000000     0.003172    35.318247
	 B(1,2,4)        =     35.301353    -0.000000     0.003190    35.304544
	 B(1,2,5)        =     35.233166    -0.000000     0.012759    35.245925
	 B(1,2,6)        =     92.520173    -0.000000    -0.085214    92.434960
	 B(1,3,2)        =     35.315075    -0.000000     0.003172    35.318247
	 B(1,3,4)        =     35.301353    -0.000000     0.003190    35.304544
	 B(1,3,5)        =     35.233166    -0.000000     0.012759    35.245925
	 B(1,3,6)        =     92.520173    -0.000000    -0.085214    92.434960
	 B(1,4,2)        =     35.300343    -0.000000     0.003090    35.303434
	 B(1,4,3)        =     35.300343    -0.000000     0.003090    35.303434
	 B(1,4,5)        =     35.228978    -0.000000     0.012725    35.241702
	 B(1,4,6)        =     92.502345    -0.000000    -0.085266    92.417079
	 B(1,5,2)        =     35.215794     0.000000    -0.019053    35.196741
	 B(1,5,3)        =     35.215794     0.000000    -0.019053    35.196741
	 B(1,5,4)        =     35.212615     0.000000    -0.018984    35.193631
	 B(2,1,3)        =    109.369851     0.000000    -0.006344   109.363506
	 B(2,1,4)        =    109.398303     0.000000    -0.006281   109.392023
	 B(2,1,5)        =    109.551040    -0.000000     0.006294   109.557333
	 B(2,3,4)        =     60.006228    -0.000000     0.000054    60.006283
	 B(2,3,5)        =     60.044057    -0.000000     0.015565    60.059621
	 B(2,3,6)        =     75.300777    -0.000000    -0.078311    75.222465
	 B(2,4,3)        =     59.987544     0.000000    -0.000109    59.987435
	 B(2,4,5)        =     60.035919    -0.000000     0.015478    60.051397
	 B(2,4,6)        =     75.288525    -0.000000    -0.078346    75.210179
	 B(2,5,3)        =     59.911886     0.000000    -0.031129    59.880757
	 B(2,5,4)        =     59.922413     0.000000    -0.031060    59.891353
	 B(2,6,3)        =     29.398447     0.000000     0.156623    29.555069
	 B(2,6,4)        =     29.402714     0.000000     0.156688    29.559402
	 B(2,6,7)        =    162.967784    -0.000000    -0.094173   162.873611
	 B(2,6,8)        =     62.797077     0.000001     0.086889    62.883965
	 B(2,6,9)        =     87.546391     0.000002     0.223672    87.770062
	 B(2,6,10)       =     62.812082     0.000002     0.093995    62.906078
	 B(3,1,4)        =    109.398303     0.000000    -0.006281   109.392023
	 B(3,1,5)        =    109.551040    -0.000000     0.006294   109.557333
	 B(3,2,4)        =     60.006228    -0.000000     0.000054    60.006283
	 B(3,2,5)        =     60.044057    -0.000000     0.015565    60.059621
	 B(3,2,6)        =     75.300777    -0.000000    -0.078311    75.222465
	 B(3,4,5)        =     60.035919    -0.000000     0.015478    60.051397
	 B(3,4,6)        =     75.288525    -0.000000    -0.078346    75.210179
	 B(3,5,4)        =     59.922413     0.000000    -0.031060    59.891353
	 B(3,6,4)        =     29.402714     0.000000     0.156688    29.559402
	 B(3,6,7)        =    162.967784    -0.000000    -0.094173   162.873611
	 B(3,6,8)        =     87.546391     0.000002     0.223672    87.770062
	 B(3,6,9)        =     62.797077     0.000001     0.086889    62.883965
	 B(3,6,10)       =     62.812082     0.000002     0.093995    62.906078
	 B(4,1,5)        =    109.558408    -0.000000     0.006259   109.564667
	 B(4,2,5)        =     60.041668    -0.000000     0.015582    60.057250
	 B(4,2,6)        =     75.308760    -0.000000    -0.078342    75.230418
	 B(4,3,5)        =     60.041668    -0.000000     0.015582    60.057250
	 B(4,3,6)        =     75.308760    -0.000000    -0.078342    75.230418
	 B(4,6,7)        =    162.946627    -0.000000    -0.086190   162.860437
	 B(4,6,8)        =     62.797729     0.000001     0.093815    62.891544
	 B(4,6,9)        =     62.797729     0.000001     0.093815    62.891544
	 B(4,6,10)       =     87.565661     0.000002     0.227542    87.793203
	 B(5,2,6)        =    127.753338    -0.000000    -0.072455   127.680884
	 B(5,3,6)        =    127.753338    -0.000000    -0.072455   127.680884
	 B(5,4,6)        =    127.731322    -0.000000    -0.072541   127.658781
	 B(7,6,8)        =    109.485823    -0.000002    -0.129497   109.356327
	 B(7,6,9)        =    109.485823    -0.000002    -0.129497   109.356327
	 B(7,6,10)       =    109.487712    -0.000002    -0.141353   109.346360
	 B(8,6,9)        =    109.459200     0.000002     0.152987   109.612187
	 B(8,6,10)       =    109.454376     0.000002     0.123294   109.577671
	 B(9,6,10)       =    109.454376     0.000002     0.123294   109.577671
	 D(1,2,3,4)      =     35.378505    -0.000000     0.009413    35.387919
	 D(1,2,3,5)      =    -35.180763    -0.000000    -0.003280   -35.184043
	 D(1,2,3,6)      =    116.675379    -0.000000    -0.039546   116.635832
	 D(1,2,4,3)      =    -35.392266     0.000000    -0.009398   -35.401664
	 D(1,2,4,5)      =     35.170904     0.000000     0.003267    35.174171
	 D(1,2,4,6)      =   -116.675473     0.000000     0.039507  -116.635965
	 D(1,2,5,3)      =     35.262513     0.000000    -0.006314    35.256198
	 D(1,2,5,4)      =    -35.238934    -0.000000     0.006301   -35.232634
	 D(1,2,6,3)      =    -31.134239    -0.000000    -0.012472   -31.146711
	 D(1,2,6,4)      =     31.122511     0.000000     0.012471    31.134982
	 D(1,2,6,7)      =    179.959630     0.000000     0.015947   179.975578
	 D(1,2,6,8)      =    113.373501     0.000000     0.012408   113.385908
	 D(1,2,6,9)      =     -0.013101     0.000000    -0.012155    -0.025257
	 D(1,2,6,10)     =   -113.390093    -0.000000    -0.000666  -113.390759
	 D(1,3,2,4)      =    -35.378505     0.000000    -0.009413   -35.387919
	 D(1,3,2,5)      =     35.180763     0.000000     0.003280    35.184043
	 D(1,3,2,6)      =   -116.675379     0.000000     0.039546  -116.635832
	 D(1,3,4,2)      =     35.392266    -0.000000     0.009398    35.401664
	 D(1,3,4,5)      =    -35.170904    -0.000000    -0.003267   -35.174171
	 D(1,3,4,6)      =    116.675473    -0.000000    -0.039507   116.635965
	 D(1,3,5,2)      =    -35.262513    -0.000000     0.006314   -35.256198
	 D(1,3,5,4)      =     35.238934     0.000000    -0.006301    35.232634
	 D(1,3,6,2)      =     31.134239     0.000000     0.012472    31.146711
	 D(1,3,6,4)      =    -31.122511    -0.000000    -0.012471   -31.134982
	 D(1,3,6,7)      =   -179.959630    -0.000000    -0.015947  -179.975578
	 D(1,3,6,8)      =      0.013101    -0.000000     0.012155     0.025257
	 D(1,3,6,9)      =   -113.373501    -0.000000    -0.012408  -113.385908
	 D(1,3,6,10)     =    113.390093     0.000000     0.000666   113.390759
	 D(1,4,2,3)      =     35.392266    -0.000000     0.009398    35.401664
	 D(1,4,2,5)      =    -35.170904    -0.000000    -0.003267   -35.174171
	 D(1,4,2,6)      =    116.675473    -0.000000    -0.039507   116.635965
	 D(1,4,3,2)      =    -35.392266     0.000000    -0.009398   -35.401664
	 D(1,4,3,5)      =     35.170904     0.000000     0.003267    35.174171
	 D(1,4,3,6)      =   -116.675473     0.000000     0.039507  -116.635965
	 D(1,4,5,2)      =     35.242117     0.000000    -0.006369    35.235748
	 D(1,4,5,3)      =    -35.242117    -0.000000     0.006369   -35.235748
	 D(1,4,6,2)      =    -31.121178    -0.000000    -0.012400   -31.133578
	 D(1,4,6,3)      =     31.121178     0.000000     0.012400    31.133578
	 D(1,4,6,7)      =    180.000000    -0.000000     0.000000   180.000000
	 D(1,4,6,8)      =   -113.369705    -0.000000     0.013664  -113.356041
	 D(1,4,6,9)      =    113.369705     0.000000    -0.013664   113.356041
	 D(1,4,6,10)     =      0.000000     0.000000     0.000000     0.000000
	 D(1,5,2,3)      =    -35.262513    -0.000000     0.006314   -35.256198
	 D(1,5,2,4)      =     35.238934     0.000000    -0.006301    35.232634
	 D(1,5,2,6)      =     -0.018978    -0.000000     0.000034    -0.018944
	 D(1,5,3,2)      =     35.262513     0.000000    -0.006314    35.256198
	 D(1,5,3,4)      =    -35.238934    -0.000000     0.006301   -35.232634
	 D(1,5,3,6)      =      0.018978     0.000000    -0.000034     0.018944
	 D(1,5,4,2)      =    -35.242117    -0.000000     0.006369   -35.235748
	 D(1,5,4,3)      =     35.242117     0.000000    -0.006369    35.235748
	 D(1,5,4,6)      =      0.000000     0.000000     0.000000     0.000000
	 D(2,1,3,4)      =   -119.804547    -0.000000     0.015333  -119.789214
	 D(2,1,3,5)      =    120.084472    -0.000000     0.007666   120.092137
	 D(2,1,3,6)      =    -59.900508    -0.000000     0.007652   -59.892856
	 D(2,1,4,3)      =    119.787064     0.000000    -0.015377   119.771688
	 D(2,1,4,5)      =   -120.106468     0.000000    -0.007688  -120.114156
	 D(2,1,4,6)      =     59.893532     0.000000    -0.007688    59.885844
	 D(2,1,5,3)      =   -119.973713    -0.000000     0.000042  -119.973671
	 D(2,1,5,4)      =    120.013143    -0.000000     0.000021   120.013164
	 D(2,3,1,4)      =    119.804547     0.000000    -0.015333   119.789214
	 D(2,3,1,5)      =   -120.084472     0.000000    -0.007666  -120.092137
	 D(2,3,4,5)      =    -70.563171     0.000000    -0.012665   -70.575835
	 D(2,3,4,6)      =     81.283206    -0.000000    -0.048906    81.234301
	 D(2,3,5,4)      =     70.501447     0.000000    -0.012615    70.488832
	 D(2,3,6,4)      =    -62.256750    -0.000000    -0.024943   -62.281693
	 D(2,3,6,7)      =    148.906130    -0.000000    -0.028419   148.877711
	 D(2,3,6,8)      =    -31.121138    -0.000000    -0.000316   -31.121455
	 D(2,3,6,9)      =   -144.507740    -0.000000    -0.024880  -144.532620
	 D(2,3,6,10)     =     82.255854     0.000000    -0.011806    82.244048
	 D(2,4,1,3)      =   -119.787064    -0.000000     0.015377  -119.771688
	 D(2,4,1,5)      =    120.106468    -0.000000     0.007688   120.114156
	 D(2,4,3,5)      =     70.563171    -0.000000     0.012665    70.575835
	 D(2,4,3,6)      =    -81.283206     0.000000     0.048906   -81.234301
	 D(2,4,5,3)      =    -70.484233    -0.000000     0.012737   -70.471496
	 D(2,4,6,3)      =     62.242356     0.000000     0.024800    62.267156
	 D(2,4,6,7)      =   -148.878822     0.000000     0.012400  -148.866422
	 D(2,4,6,8)      =    -82.248527    -0.000000     0.026064   -82.222463
	 D(2,4,6,9)      =    144.490883     0.000000    -0.001264   144.489619
	 D(2,4,6,10)     =     31.121178     0.000000     0.012400    31.133578
	 D(2,5,1,3)      =    119.973713     0.000000    -0.000042   119.973671
	 D(2,5,1,4)      =   -120.013143     0.000000    -0.000021  -120.013164
	 D(2,5,3,4)      =    -70.501447    -0.000000     0.012615   -70.488832
	 D(2,5,3,6)      =    -35.243534    -0.000000     0.006280   -35.237254
	 D(2,5,4,3)      =     70.484233     0.000000    -0.012737    70.471496
	 D(2,5,4,6)      =     35.242117     0.000000    -0.006369    35.235748
	 D(2,6,3,4)      =     62.256750     0.000000     0.024943    62.281693
	 D(2,6,3,5)      =     31.123280     0.000000     0.012489    31.135769
	 D(2,6,4,3)      =    -62.242356    -0.000000    -0.024800   -62.267156
	 D(2,6,4,5)      =    -31.121178    -0.000000    -0.012400   -31.133578
	 D(3,1,2,4)      =    119.804547     0.000000    -0.015333   119.789214
	 D(3,1,2,5)      =   -120.084472     0.000000    -0.007666  -120.092137
	 D(3,1,2,6)      =     59.900508     0.000000    -0.007652    59.892856
	 D(3,1,4,5)      =    120.106468    -0.000000     0.007688   120.114156
	 D(3,1,4,6)      =    -59.893532    -0.000000     0.007688   -59.885844
	 D(3,1,5,4)      =   -120.013143     0.000000    -0.000021  -120.013164
	 D(3,2,1,4)      =   -119.804547    -0.000000     0.015333  -119.789214
	 D(3,2,1,5)      =    120.084472    -0.000000     0.007666   120.092137
	 D(3,2,4,5)      =     70.563171    -0.000000     0.012665    70.575835
	 D(3,2,4,6)      =    -81.283206     0.000000     0.048906   -81.234301
	 D(3,2,5,4)      =    -70.501447    -0.000000     0.012615   -70.488832
	 D(3,2,6,4)      =     62.256750     0.000000     0.024943    62.281693
	 D(3,2,6,7)      =   -148.906130     0.000000     0.028419  -148.877711
	 D(3,2,6,8)      =    144.507740     0.000000     0.024880   144.532620
	 D(3,2,6,9)      =     31.121138     0.000000     0.000316    31.121455
	 D(3,2,6,10)     =    -82.255854    -0.000000     0.011806   -82.244048
	 D(3,4,1,5)      =   -120.106468     0.000000    -0.007688  -120.114156
	 D(3,4,2,5)      =    -70.563171     0.000000    -0.012665   -70.575835
	 D(3,4,2,6)      =     81.283206    -0.000000    -0.048906    81.234301
	 D(3,4,6,7)      =    148.878822    -0.000000    -0.012400   148.866422
	 D(3,4,6,8)      =   -144.490883    -0.000000     0.001264  -144.489619
	 D(3,4,6,9)      =     82.248527     0.000000    -0.026064    82.222463
	 D(3,4,6,10)     =    -31.121178    -0.000000    -0.012400   -31.133578
	 D(3,5,1,4)      =    120.013143    -0.000000     0.000021   120.013164
	 D(3,5,2,4)      =     70.501447     0.000000    -0.012615    70.488832
	 D(3,5,2,6)      =     35.243534     0.000000    -0.006280    35.237254
	 D(3,5,4,6)      =    -35.242117    -0.000000     0.006369   -35.235748
	 D(3,6,2,4)      =    -62.256750    -0.000000    -0.024943   -62.281693
	 D(3,6,2,5)      =    -31.123280    -0.000000    -0.012489   -31.135769
	 D(3,6,4,5)      =     31.121178     0.000000     0.012400    31.133578
	 D(4,1,2,5)      =    120.110981    -0.000000     0.007667   120.118648
	 D(4,1,2,6)      =    -59.904039    -0.000000     0.007681   -59.896358
	 D(4,1,3,5)      =   -120.110981     0.000000    -0.007667  -120.118648
	 D(4,1,3,6)      =     59.904039     0.000000    -0.007681    59.896358
	 D(4,2,1,5)      =   -120.110981     0.000000    -0.007667  -120.118648
	 D(4,2,3,5)      =    -70.559269     0.000000    -0.012693   -70.571962
	 D(4,2,3,6)      =     81.296873    -0.000000    -0.048960    81.247914
	 D(4,2,6,7)      =    148.837119    -0.000000     0.003476   148.840596
	 D(4,2,6,8)      =     82.250990     0.000000    -0.000063    82.250926
	 D(4,2,6,9)      =    -31.135612     0.000000    -0.024627   -31.160239
	 D(4,2,6,10)     =   -144.512604    -0.000000    -0.013137  -144.525741
	 D(4,3,1,5)      =    120.110981    -0.000000     0.007667   120.118648
	 D(4,3,2,5)      =     70.559269    -0.000000     0.012693    70.571962
	 D(4,3,2,6)      =    -81.296873     0.000000     0.048960   -81.247914
	 D(4,3,6,7)      =   -148.837119     0.000000    -0.003476  -148.840596
	 D(4,3,6,8)      =     31.135612    -0.000000     0.024627    31.160239
	 D(4,3,6,9)      =    -82.250990    -0.000000     0.000063   -82.250926
	 D(4,3,6,10)     =    144.512604     0.000000     0.013137   144.525741
	 D(4,5,2,6)      =    -35.257913    -0.000000     0.006335   -35.251578
	 D(4,5,3,6)      =     35.257913     0.000000    -0.006335    35.251578
	 D(4,6,2,5)      =     31.133470     0.000000     0.012454    31.145925
	 D(4,6,3,5)      =    -31.133470    -0.000000    -0.012454   -31.145925
	 D(5,1,2,6)      =    179.984980    -0.000000     0.000013   179.984993
	 D(5,1,3,6)      =   -179.984980     0.000000    -0.000013  -179.984993
	 D(5,1,4,6)      =    180.000000     0.000000     0.000000   180.000000
	 D(5,2,3,6)      =    151.856142    -0.000000    -0.036267   151.819875
	 D(5,2,4,6)      =   -151.846377     0.000000     0.036241  -151.810136
	 D(5,2,6,7)      =    179.970590     0.000000     0.015930   179.986520
	 D(5,2,6,8)      =    113.384460     0.000000     0.012391   113.396851
	 D(5,2,6,9)      =     -0.002142     0.000000    -0.012172    -0.014314
	 D(5,2,6,10)     =   -113.379134    -0.000000    -0.000683  -113.379817
	 D(5,3,2,6)      =   -151.856142     0.000000     0.036267  -151.819875
	 D(5,3,4,6)      =    151.846377    -0.000000    -0.036241   151.810136
	 D(5,3,6,7)      =   -179.970590    -0.000000    -0.015930  -179.986520
	 D(5,3,6,8)      =      0.002142    -0.000000     0.012172     0.014314
	 D(5,3,6,9)      =   -113.384460    -0.000000    -0.012391  -113.396851
	 D(5,3,6,10)     =    113.379134     0.000000     0.000683   113.379817
	 D(5,4,2,6)      =    151.846377    -0.000000    -0.036241   151.810136
	 D(5,4,3,6)      =   -151.846377     0.000000     0.036241  -151.810136
	 D(5,4,6,7)      =    180.000000    -0.000000     0.000000   180.000000
	 D(5,4,6,8)      =   -113.369705    -0.000000     0.013664  -113.356041
	 D(5,4,6,9)      =    113.369705     0.000000    -0.013664   113.356041
	 D(5,4,6,10)     =      0.000000    -0.000000     0.000000     0.000000
	 ----------------------------------------------------------------------

  ==> Convergence Check <==

  Measures of convergence in internal coordinates in au.
  Criteria marked as inactive (o), active & met (*), and active & unmet ( ).
  ---------------------------------------------------------------------------------------------
   Step     Total Energy     Delta E     MAX Force     RMS Force      MAX Disp      RMS Disp   
  ---------------------------------------------------------------------------------------------
    Convergence Criteria    1.00e-06 *    3.00e-04 *    1.00e-06 *    1.20e-03 *             o
  ---------------------------------------------------------------------------------------------
      3     -40.33724594   -1.46e-06      1.76e-04 *    2.15e-05      4.02e-02      4.57e-03 o  ~
  ---------------------------------------------------------------------------------------------

	Writing optimization data to binary file.
	Structure for next step:
	Cartesian Geometry (in Angstrom)
	    X     0.0002288330  -3.7011218627   0.0000000000
	    X    -0.5123584420  -3.3368858729  -0.8875137378
	    X    -0.5123584420  -3.3368858729   0.8875137378
	    X     1.0252497687  -3.3371287117   0.0000000000
	    X    -0.0000431251  -4.7901465423   0.0000000000
	    C     0.0000986654  -0.0116969090   0.0000000000
	    H     0.0002182327   1.0785347899   0.0000000000
	    H     0.5141169844  -0.3731051190  -0.8909519560
	    H     0.5141169844  -0.3731051190   0.8909519560
	    H    -1.0286352704  -0.3727624075   0.0000000000
			--------------------------
			 OPTKING Finished Execution 
			--------------------------

    Structure for next step:
    Molecular point group: cs
    Full point group: Cs

    Geometry (in Angstrom), charge = 0, multiplicity = 1:

    Gh(C)        0.000166487241    -3.689823857755     0.000000000000
    Gh(H)       -0.512420748598    -3.325587895833    -0.887513670067
    Gh(H)       -0.512420748598    -3.325587895833     0.887513670067
    Gh(H)        1.025187344616    -3.325830734607     0.000000000000
    Gh(H)       -0.000105470878    -4.778848454198     0.000000000000
    C            0.000036319662    -0.000399185771     0.000000000000
    H            0.000155886874     1.089832429813     0.000000000000
    H            0.514054599380    -0.361807368224    -0.890951887978
    H            0.514054599380    -0.361807368224     0.890951887978
    H           -1.028697537626    -0.361464656777     0.000000000000

	Optimizer: Did not converge!
*** PSI4 exiting successfully. Buy a developer a beer!
