    -----------------------------------------------------------------------
          Psi4: An Open-Source Ab Initio Electronic Structure Package
                              Psi4 0.5 Driver

                          Git: Rev {master} dbe9080

    J. M. Turney, A. C. Simmonett, R. M. Parrish, E. G. Hohenstein,
    F. A. Evangelista, J. T. Fermann, B. J. Mintz, L. A. Burns, J. J. Wilke,
    M. L. Abrams, N. J. Russ, M. L. Leininger, C. L. Janssen, E. T. Seidl,
    W. D. Allen, H. F. Schaefer, R. A. King, E. F. Valeev, C. D. Sherrill,
    and T. D. Crawford, WIREs Comput. Mol. Sci. 2, 556-565 (2012)
    (doi: 10.1002/wcms.93)

                         Additional Contributions by
    A. E. DePrince, M. Saitow, U. Bozkaya, A. Yu. Sokolov
    -----------------------------------------------------------------------


    Psi4 started on: Mon Mar 14 15:32:14 2016

    Process ID:  13672
    PSI4DATADIR: /home/dsmith/Gits/dgas_psi/share
    Memory level set to 256.000 MB

  ==> Input File <==

--------------------------------------------------------------------------
#! Mk-MRCCSD single point. $^3 \Sigma ^-$ O2 state described using
#! the Ms = 0 component of the triplet.  Uses ROHF triplet orbitals.
test_freq = psi4.Vector(1)  #TEST
test_freq.set(0, 0, 1401.8121) #TEST

memory 250 mb

molecule o2 {
  0 3
  O
  O 1 2.365122720724

  units au
}

set {
  basis cc-pvdz
  points 5
 disp_size 0.010
  e_convergence 10
  d_convergence 10
  r_convergence 10
}

set mcscf {
  reference       rohf
  # The socc and docc needn't be specified; in this case the code will converge correctly without
  docc            [3,0,0,0,0,2,1,1]      # Doubly occupied MOs
  socc            [0,0,1,1,0,0,0,0]      # Singly occupied MOs
}

set psimrcc {
  corr_wfn        ccsd                   # Do Mk-MRCCSD 
  frozen_docc     [1,0,0,0,0,1,0,0]      # Frozen MOs
  restricted_docc [2,0,0,0,0,1,1,1]      # Doubly occupied MOs
  active          [0,0,1,1,0,0,0,0]      # Active MOs
  frozen_uocc     [0,0,0,0,0,0,0,0]      # Frozen virtual MOs
  corr_multp      1                      # Select the Ms = 0 component
  wfn_sym         B1g                    # Select the B1g state
}

mrcc_e, mrcc_wfn = frequencies('psimrcc', dertype=0, return_wfn=True)
fd_freq = mrcc_wfn.frequencies()                         #TEST
compare_vectors(test_freq, fd_freq, 1,"Frequency test:") #TEST
--------------------------------------------------------------------------

  Memory set to 250.000 MiB by Python script.
hessian() will perform frequency computation by finite difference of analytic energies.

-------------------------------------------------------------

  Using finite-differences of energies to determine vibrational frequencies and 
  normal modes.  Resulting frequencies are only valid at stationary points.
	Generating geometries for use with 5-point formula.
	Displacement size will be 1.00e-02.
	Number of atoms is 2.
	Number of irreps is 8.
	Number of SALCS is 1.
	 Number of SALC's per irrep:
	  Irrep 1: 1
	  Irrep 2: 0
	  Irrep 3: 0
	  Irrep 4: 0
	  Irrep 5: 0
	  Irrep 6: 0
	  Irrep 7: 0
	  Irrep 8: 0
	Number of geometries (including reference) is 4.
	Number of displacements per irrep:
	  Irrep 1: 4
	  Irrep 2: 0
	  Irrep 3: 0
	  Irrep 4: 0
	  Irrep 5: 0
	  Irrep 6: 0
	  Irrep 7: 0
	  Irrep 8: 0

-------------------------------------------------------------

  //>>>>>>>>>>>>>>>>>>>>>>>>>>>>>>>>>>>//
  //    Loading displacement 1 of 5    //
  //<<<<<<<<<<<<<<<<<<<<<<<<<<<<<<<<<<<//

*** tstart() called on ds1.sherrill.chemistry.gatech.edu
*** at Mon Mar 14 15:32:14 2016


         ------------------------------------------
           MCSCF: a self-consistent field program
            written by Francesco A. Evangelista
         ------------------------------------------

  MOs per irrep:                  Ag  B1g  B2g  B3g  Au  B1u  B2u  B3u Total
  ----------------------------------------------------------------------------
  Total                            7    1    3    3    1    7    3    3    28
  Doubly Occupied                  3    0    0    0    0    2    1    1     7
  Active/Singly Occupied           0    0    1    1    0    0    0    0     2
  ----------------------------------------------------------------------------

  Running an SCF calculation

  Generated 406 pairs
  Distributed as [82 Ag][32 B1g][48 B2g][48 B3g][32 Au][68 B1u][48 B2u][48 B3u]
  batch   0 pq = [       0,      82] index = [               0,            3403]

  Allocated the PK matrix (3403 elements) 
  Allocated the  K matrix (3403 elements) 
  Reading the two-electron integrals to form PK and K ... 
  batch   0 ... done.


  =========================================================================================
         Cycle          Energy               D(Energy)            D(Density)            DIIS
  ===========================================================================================
  Setting level shift to 0.000 S
  @SCF    0     -141.715169183827    -141.715169183827       0.109325685627
  Setting level shift to 0.000 S
  @SCF    1     -147.931668732431      -6.216499548604       0.099388505779
  Setting level shift to 0.000 S
  @SCF    2     -149.400649203566      -1.468980471135       0.035019719421
  Setting level shift to 0.000 S
  @SCF    3     -149.569206155859      -0.168556952293       0.013942282479
  Setting level shift to 0.000 S
  @SCF    4     -149.592423164010      -0.023217008151       0.004596395749
  Setting level shift to 0.000 S
  @SCF    5     -149.595296496541      -0.002873332531       0.001740986751
  Setting level shift to 0.000 S
  @SCF    6     -149.595666338645      -0.000369842104       0.000607387027
  Setting level shift to 0.000 S/E
  @SCF    7     -149.595713322234      -0.000046983589       0.000218570036
  Setting level shift to 0.000 S/E
  @SCF    8     -149.595720200309      -0.000006878075       0.000058381086
  Setting level shift to 0.000 S/E
  @SCF    9     -149.595720200349      -0.000000000040       0.000000170653
  Setting level shift to 0.000 S/E
  @SCF   10     -149.595720200349      -0.000000000000       0.000000010157
  Setting level shift to 0.000 S/E
  @SCF   11     -149.595720200349      -0.000000000000       0.000000001213
  Setting level shift to 0.000 S/E
  @SCF   12     -149.595720200349       0.000000000000       0.000000000299
  Setting level shift to 0.000 S/E
  @SCF   13     -149.595720200349      -0.000000000000       0.000000000013
  Setting level shift to 0.000 S/E
  @SCF   14     -149.595720200349       0.000000000000       0.000000000001
  Setting level shift to 0.000 S/E
  @SCF   15     -149.595720200349      -0.000000000000       0.000000000000
  Setting level shift to 0.000 S/E
  @SCF   16     -149.595720200349       0.000000000000       0.000000000000
  =========================================================================================

      * SCF total energy   =    -149.595720200349


  End of SCF
  MOs orthonormality check passed.

  Orbitals are canonicalized as:
  inactive (docc + uocc) : Fock(core)
  active   (actv)        : Fock(core)

  =========================================================================
  Eigenvalues (Eh)
  -------------------------------------------------------------------------
  Doubly occupied orbitals
      1    -20.736684  Ag      2    -20.735896 B1u      3     -1.613180  Ag
      4     -1.114272 B1u      5     -0.715731  Ag      6     -0.683182 B3u
      7     -0.683182 B2u
  Active orbitals
      8     -0.226756 B3g      9     -0.226756 B2g
  Unoccupied orbitals
     10      0.404489 B1u     11      1.067199 B1u     12      1.111151 B2u
     13      1.111151 B3u     14      1.176542  Ag     15      1.214941 B2g
     16      1.214941 B3g     17      1.343208  Ag     18      1.942330 B1u
     19      2.412341 B2u     20      2.412341 B3u     21      2.710121 B1g
     22      2.710121  Ag     23      2.983729  Au     24      2.983729 B1u
     25      3.047429  Ag     26      3.593142 B2g     27      3.593142 B3g
     28      4.186108 B1u
  =========================================================================


  MCSCF Execution Completed.


*** tstop() called on ds1.sherrill.chemistry.gatech.edu at Mon Mar 14 15:32:14 2016
Module time:
	user time   =       0.07 seconds =       0.00 minutes
	system time =       0.01 seconds =       0.00 minutes
	total time  =          0 seconds =       0.00 minutes
Total time:
	user time   =       0.07 seconds =       0.00 minutes
	system time =       0.01 seconds =       0.00 minutes
	total time  =          0 seconds =       0.00 minutes

  MRCC          MRCC
   MRCC  MRCC  MRCC
   MRCC  MRCC  MRCC      PSIMRCC Version 0.9.3.3, July 2009
   MRCC  MRCC  MRCC      Multireference Coupled Cluster, written by
     MRCCMRCCMRCC        Francesco A. Evangelista and Andrew C. Simmonett
         MRCC            Compiled on Mar  4 2016 at 18:07:05
         MRCC            id = 6a707c99fd2213714c6c78cfcd145480721f0359 
       MRCCMRCC

  ==============================================================================
  System Info:
  ------------------------------------------------------------------------------
  Nuclear Energy   = 26.979233310     SCF Energy       = -149.595720200 

  MOs and Symmetry:
  ------------------------------------------------------------------------------
  nirreps          = 8                root             = 0         
  nso              = 28               nmo              = 28        
  nael             = 8                nbel             = 8         
  nactive_ael      = 1                nactive_bel      = 1         

  Details of the Computation:
  ------------------------------------------------------------------------------

  MOs per irrep:                    Ag  B1g  B2g  B3g  Au  B1u  B2u  B3u Total
  ------------------------------------------------------------------------------
  Total                              7    1    3    3    1    7    3    3    28
  Frozen Occupied                    1    0    0    0    0    1    0    0     2
  Doubly Occupied                    2    0    0    0    0    1    1    1     5
  Active                             0    0    1    1    0    0    0    0     2
  External                           4    1    2    2    1    5    2    2    19
  Frozen Virtual                     0    0    0    0    0    0    0    0     0

  Model space
  ------------------------------------------------------------------------------
   0  |[22][][-][+][][2][2][2]>
   1  |[22][][+][-][][2][2][2]>
  ==============================================================================

  Allocated work array of size 22504 (0.02 MiB)
  Allocated buffer array of size 12605120 (12.02 MiB)	Presorting SO-basis two-electron integrals.
	Sorting File: SO Ints (nn|nn) nbuckets = 1
	Transforming the one-electron integrals and constructing Fock matrices
	Starting first half-transformation.
	Sorting half-transformed integrals.
	First half integral transformation complete.
	Starting second half-transformation.
	Two-electron integral transformation complete.


  Presorting two-electron integrals from IWL buffer
    Memory available                       =      236931268 bytes
    Memory available for presorting        =      177698451 bytes (75.0%)
    Memory required for in-core presort    =          92072 bytes
    Presorting is not required
    Reading irreps 0 -> 7 (10410 non-zero integrals)

  Sorting integrals:
    Memory available                       =      236924996 bytes
    Memory available for sorting           =      118462498 bytes (50.0%)

    Pass 1:
    Setting up the matrix list: added 480 matrices blocks
    Integrals from irreps 0 -> 7 will be read in core

    Frozen-core energy                     =       -130.014881458

  Computing storage strategy:
    Input memory                           =      250000000 bytes
    Free memory                            =      236924996 bytes
    Free memory available for matrices     =      229817246 bytes ( 97%)
    Memory required by fock matrices       =           4048 bytes
    Memory required by integrals           =        1012232 bytes
    Memory required by other matrices      =        1470128 bytes
    Memory required for in-core algorithm  =        2486408 bytes
    PSIMRCC will perform a full in-core computation

  Options:
  ----------------------------------------------------------------------------
  ACTIVE                      => [ 0, 0, 1, 1, 0, 0, 0, 0 ] !
  BENCH                       => 0                           
  CC_NUM_THREADS              => 1                           
  CC_TYPE                     => CONV                        
  CI_TYPE                     => CONV                        
  CORR_ANSATZ                 => MK                          
  CORR_CCSD_T                 => STANDARD                    
  CORR_CHARGE                 => 0                           
  CORR_MULTP                  => 1                          !
  CORR_WFN                    => CCSD                       !
  COUPLING                    => CUBIC                       
  COUPLING_TERMS              => TRUE                        
  CUBEPROP_BASIS_FUNCTIONS    => [  ]                        
  CUBEPROP_FILEPATH           => .                           
  CUBEPROP_ORBITALS           => [  ]                        
  CUBEPROP_TASKS              => [  ]                        
  CUBIC_BASIS_TOLERANCE       => 1e-12                       
  CUBIC_BLOCK_MAX_POINTS      => 1000                        
  CUBIC_GRID_OVERAGE          => [  ]                        
  CUBIC_GRID_SPACING          => [  ]                        
  DAMPING_PERCENTAGE          => 0                           
  DEBUG                       => 0                           
  DERTYPE                     => NONE                        
  DF_BASIS_CC                 => (empty)                     
  DIAGONALIZE_HEFF            => FALSE                       
  DIAGONAL_CCSD_T             => TRUE                        
  DIE_IF_NOT_CONVERGED        => TRUE                        
  DIIS_MAX_VECS               => 7                           
  DIIS_START                  => 2                           
  DKH_ORDER                   => 2                           
  DOCC                        => [  ]                        
  EXTERNAL_POTENTIAL_SYMMETRY => FALSE                       
  E_CONVERGENCE               => 1e-10                      !
  FAVG_CCSD_T                 => FALSE                       
  FOLLOW_ROOT                 => 1                           
  FREEZE_CORE                 => FALSE                       
  FROZEN_DOCC                 => [ 1, 0, 0, 0, 0, 1, 0, 0 ] !
  FROZEN_UOCC                 => [ 0, 0, 0, 0, 0, 0, 0, 0 ] !
  HEFF4                       => TRUE                        
  HEFF_PRINT                  => FALSE                       
  INTEGRAL_PACKAGE            => ERD                         
  LITERAL_CFOUR               => (empty)                     
  LOCK_SINGLET                => FALSE                       
  MAT_NUM_COLUMN_PRINT        => 5                           
  MAXITER                     => 100                         
  MP2_CCSD_METHOD             => II                          
  MP2_GUESS                   => TRUE                        
  MP2_TYPE                    => DF                          
  MP_TYPE                     => CONV                        
  NO_SINGLES                  => FALSE                       
  NUM_FROZEN_DOCC             => 0                           
  NUM_FROZEN_UOCC             => 0                           
  OFFDIAGONAL_CCSD_T          => TRUE                        
  PCM                         => FALSE                       
  PCM_SCF_TYPE                => TOTAL                       
  PERTURB_CBS                 => FALSE                       
  PERTURB_CBS_COUPLING        => TRUE                        
  PRINT                       => 1                           
  PRINT_NOONS                 => 3                           
  PROPERTIES                  => [  ]                        
  PROPERTIES_ORIGIN           => [  ]                        
  PT_ENERGY                   => SECOND_ORDER                
  PUREAM                      => TRUE                        
  QC_MODULE                   => (empty)                     
  RAS1                        => [  ]                        
  RAS2                        => [  ]                        
  RAS3                        => [  ]                        
  RAS4                        => [  ]                        
  RELATIVISTIC                => NO                          
  REL_BASIS                   => (empty)                     
  RESTRICTED_DOCC             => [ 2, 0, 0, 0, 0, 1, 1, 1 ] !
  RESTRICTED_UOCC             => [  ]                        
  RUN_CCTRANSORT              => TRUE                        
  R_CONVERGENCE               => 1e-10                      !
  SMALL_CUTOFF                => 0                           
  SOCC                        => [  ]                        
  TIKHONOW_MAX                => 5                           
  TIKHONOW_OMEGA              => 0                           
  TIKHONOW_TRIPLES            => FALSE                       
  TRIPLES_ALGORITHM           => RESTRICTED                  
  TRIPLES_DIIS                => FALSE                       
  UNITS                       => ANGSTROMS                   
  USE_SPIN_SYM                => TRUE                        
  USE_SPIN_SYMMETRY           => TRUE                        
  WFN                         => SCF                         
  WFN_SYM                     => B1G                        !
  WRITER_FILE_LABEL           => (empty)                     
  ZERO_INTERNAL_AMPS          => TRUE                        



  Heff Matrix

        -149.572064810215         0.023655390134
           0.023655390134      -149.572064810215

  Left Matrix

          -0.707106781187         0.707106781187
           0.707106781187         0.707106781187

  Right Matrix

          -0.707106781187         0.707106781187
           0.707106781187         0.707106781187

  Real                  Imaginary

       -149.595720200349           0.000000000000
       -149.548409420081           0.000000000000


  The eigenvalue for root 0 is -149.595720200349 (0.000000000000)

  Heff Matrix

     -149.572064810215295      0.023655390134019
        0.023655390134019   -149.572064810215295

  Most important determinants in the wave function

  determinant  eigenvector   eigenvector^2

            1    0.707107     0.500000  |[22][][+][-][][2][2][2]>
            0   -0.707107     0.500000  |[22][][-][+][][2][2][2]>

  ==============================================================================
  	Multireference Coupled Cluster
		Using the DPD Library
  ==============================================================================

  ------------------------------------------------------------------------------
  @CC Cycle      Energy          Delta E    ||DeltaT1|| ||DeltaT2|| Timing  DIIS
  @CC           (Hartree)       (Hartree)                           (Sec)
  ------------------------------------------------------------------------------
  @CC   0   -149.595720200349   0.0000e+00   0.000e+00   0.000e+00       0
  Tikhonow regularization turned on.  Omega = 0.000e+00   S
  @CC   1   -149.991292653907  -3.9557e-01   6.848e-02   4.722e-01       0
  Tikhonow regularization turned on.  Omega = 0.000e+00   S
  @CC   2   -149.950387671648   4.0905e-02   5.029e-02   1.287e-01       0
  Tikhonow regularization turned on.  Omega = 0.000e+00   S
  @CC   3   -149.972987913978  -2.2600e-02   1.333e-02   3.650e-02       0
  Tikhonow regularization turned on.  Omega = 0.000e+00   S
  @CC   4   -149.967808398430   5.1795e-03   6.135e-03   1.660e-02       0
  Tikhonow regularization turned on.  Omega = 0.000e+00   S
  @CC   5   -149.970238292123  -2.4299e-03   1.504e-03   5.293e-03       0   S
  @CC   6   -149.969665642769   5.7265e-04   7.951e-04   3.198e-03       0   S/E
  @CC   7   -149.969947294627  -2.8165e-04   1.705e-04   1.372e-03       0   S
  @CC   8   -149.969915455551   3.1839e-05   2.864e-05   9.771e-05       0   S
  @CC   9   -149.969918994867  -3.5393e-06   9.960e-06   3.600e-05       0   S
  @CC  10   -149.969914966270   4.0286e-06   1.912e-06   1.839e-05       0   S
  @CC  11   -149.969914708084   2.5819e-07   1.475e-06   9.984e-06       0   S
  @CC  12   -149.969913887248   8.2084e-07   4.448e-07   5.732e-06       0   S
  @CC  13   -149.969913645708   2.4154e-07   3.258e-07   3.308e-06       0   S/E
  @CC  14   -149.969913188342   4.5737e-07   1.327e-07   1.945e-06       0   S
  @CC  15   -149.969913193364  -5.0222e-09   2.463e-08   7.452e-08       0   S
  @CC  16   -149.969913194569  -1.2043e-09   7.738e-09   2.949e-08       0   S
  @CC  17   -149.969913193642   9.2700e-10   2.487e-09   1.464e-08       0   S
  @CC  18   -149.969913193686  -4.4679e-11   1.125e-09   8.132e-09       0   S
  @CC  19   -149.969913193519   1.6689e-10   5.363e-10   4.463e-09       0   S
  @CC  20   -149.969913193496   2.3249e-11   2.654e-10   2.549e-09       0   S/E
  @CC  21   -149.969913193424   7.2049e-11   1.380e-10   1.445e-09       0   S
  @CC  22   -149.969913193420   4.6043e-12   1.994e-11   7.108e-11       0
  ------------------------------------------------------------------------------

      * Mk-MRCCSD total energy      =    -149.969913193420


  Heff Matrix

     -149.949495111983765      0.020418081435733
        0.020418081435733   -149.949495111983765

  Most important determinants in the wave function

  determinant  eigenvector   eigenvector^2

            1    0.707107     0.500000  |[22][][+][-][][2][2][2]>
            0   -0.707107     0.500000  |[22][][-][+][][2][2][2]>

  Timing for singles and doubles:             0.230792 s

  PSIMRCC job completed.
  Wall Time =             0.282091 s
  GEMM Time =             0.020374 s

  ==============================================================================
  Memory Usage Report

  Maximum memory used:     14.8 Mb 
  Number of objects still in memory: 0       Current bytes used: 0             
  ==============================================================================

  //>>>>>>>>>>>>>>>>>>>>>>>>>>>>>>>>>>>//
  //    Loading displacement 2 of 5    //
  //<<<<<<<<<<<<<<<<<<<<<<<<<<<<<<<<<<<//

*** tstart() called on ds1.sherrill.chemistry.gatech.edu
*** at Mon Mar 14 15:32:14 2016


         ------------------------------------------
           MCSCF: a self-consistent field program
            written by Francesco A. Evangelista
         ------------------------------------------

  MOs per irrep:                  Ag  B1g  B2g  B3g  Au  B1u  B2u  B3u Total
  ----------------------------------------------------------------------------
  Total                            7    1    3    3    1    7    3    3    28
  Doubly Occupied                  3    0    0    0    0    2    1    1     7
  Active/Singly Occupied           0    0    1    1    0    0    0    0     2
  ----------------------------------------------------------------------------

  Running an SCF calculation

  Generated 406 pairs
  Distributed as [82 Ag][32 B1g][48 B2g][48 B3g][32 Au][68 B1u][48 B2u][48 B3u]
  batch   0 pq = [       0,      82] index = [               0,            3403]

  Allocated the PK matrix (3403 elements) 
  Allocated the  K matrix (3403 elements) 
  Reading the two-electron integrals to form PK and K ... 
  batch   0 ... done.


  =========================================================================================
         Cycle          Energy               D(Energy)            D(Density)            DIIS
  ===========================================================================================
  Setting level shift to 0.000 S
  @SCF    0     -141.706295346736    -141.706295346736       0.109362942346
  Setting level shift to 0.000 S
  @SCF    1     -147.926606222080      -6.220310875344       0.099435230835
  Setting level shift to 0.000 S
  @SCF    2     -149.400445981949      -1.473839759870       0.035082086947
  Setting level shift to 0.000 S
  @SCF    3     -149.569650664456      -0.169204682506       0.013969368892
  Setting level shift to 0.000 S
  @SCF    4     -149.592988402134      -0.023337737678       0.004606955557
  Setting level shift to 0.000 S
  @SCF    5     -149.595878954447      -0.002890552313       0.001746104130
  Setting level shift to 0.000 S
  @SCF    6     -149.596251380666      -0.000372426220       0.000609350424
  Setting level shift to 0.000 S/E
  @SCF    7     -149.596298736160      -0.000047355494       0.000219405806
  Setting level shift to 0.000 S/E
  @SCF    8     -149.596305676320      -0.000006940160       0.000058610478
  Setting level shift to 0.000 S/E
  @SCF    9     -149.596305676361      -0.000000000041       0.000000171789
  Setting level shift to 0.000 S/E
  @SCF   10     -149.596305676361      -0.000000000000       0.000000010356
  Setting level shift to 0.000 S/E
  @SCF   11     -149.596305676361       0.000000000000       0.000000001247
  Setting level shift to 0.000 S/E
  @SCF   12     -149.596305676361      -0.000000000000       0.000000000307
  Setting level shift to 0.000 S/E
  @SCF   13     -149.596305676361       0.000000000000       0.000000000013
  Setting level shift to 0.000 S/E
  @SCF   14     -149.596305676361      -0.000000000000       0.000000000001
  Setting level shift to 0.000 S/E
  @SCF   15     -149.596305676361      -0.000000000000       0.000000000000
  Setting level shift to 0.000 S/E
  @SCF   16     -149.596305676361      -0.000000000000       0.000000000000
  =========================================================================================

      * SCF total energy   =    -149.596305676361


  End of SCF
  MOs orthonormality check passed.

  Orbitals are canonicalized as:
  inactive (docc + uocc) : Fock(core)
  active   (actv)        : Fock(core)

  =========================================================================
  Eigenvalues (Eh)
  -------------------------------------------------------------------------
  Doubly occupied orbitals
      1    -20.736345  Ag      2    -20.735553 B1u      3     -1.614677  Ag
      4     -1.113640 B1u      5     -0.716271  Ag      6     -0.683872 B2u
      7     -0.683872 B3u
  Active orbitals
      8     -0.226029 B3g      9     -0.226029 B2g
  Unoccupied orbitals
     10      0.406773 B1u     11      1.067532 B1u     12      1.111168 B3u
     13      1.111168 B2u     14      1.175743  Ag     15      1.215002 B3g
     16      1.215002 B2g     17      1.342572  Ag     18      1.943498 B1u
     19      2.411765 B3u     20      2.411765 B2u     21      2.709139 B1g
     22      2.709139  Ag     23      2.984665  Au     24      2.984665 B1u
     25      3.052447  Ag     26      3.596463 B3g     27      3.596463 B2g
     28      4.186474 B1u
  =========================================================================


  MCSCF Execution Completed.


*** tstop() called on ds1.sherrill.chemistry.gatech.edu at Mon Mar 14 15:32:15 2016
Module time:
	user time   =       0.05 seconds =       0.00 minutes
	system time =      -0.00 seconds =      -0.00 minutes
	total time  =          1 seconds =       0.02 minutes
Total time:
	user time   =       0.40 seconds =       0.01 minutes
	system time =       0.05 seconds =       0.00 minutes
	total time  =          1 seconds =       0.02 minutes

  MRCC          MRCC
   MRCC  MRCC  MRCC
   MRCC  MRCC  MRCC      PSIMRCC Version 0.9.3.3, July 2009
   MRCC  MRCC  MRCC      Multireference Coupled Cluster, written by
     MRCCMRCCMRCC        Francesco A. Evangelista and Andrew C. Simmonett
         MRCC            Compiled on Mar  4 2016 at 18:07:05
         MRCC            id = 6a707c99fd2213714c6c78cfcd145480721f0359 
       MRCCMRCC

  ==============================================================================
  System Info:
  ------------------------------------------------------------------------------
  Nuclear Energy   = 27.019509754     SCF Energy       = -149.596305676 

  MOs and Symmetry:
  ------------------------------------------------------------------------------
  nirreps          = 8                root             = 0         
  nso              = 28               nmo              = 28        
  nael             = 8                nbel             = 8         
  nactive_ael      = 1                nactive_bel      = 1         

  Details of the Computation:
  ------------------------------------------------------------------------------

  MOs per irrep:                    Ag  B1g  B2g  B3g  Au  B1u  B2u  B3u Total
  ------------------------------------------------------------------------------
  Total                              7    1    3    3    1    7    3    3    28
  Frozen Occupied                    1    0    0    0    0    1    0    0     2
  Doubly Occupied                    2    0    0    0    0    1    1    1     5
  Active                             0    0    1    1    0    0    0    0     2
  External                           4    1    2    2    1    5    2    2    19
  Frozen Virtual                     0    0    0    0    0    0    0    0     0

  Model space
  ------------------------------------------------------------------------------
   0  |[22][][-][+][][2][2][2]>
   1  |[22][][+][-][][2][2][2]>
  ==============================================================================

  Allocated work array of size 22504 (0.02 MiB)
  Allocated buffer array of size 12605120 (12.02 MiB)	Presorting SO-basis two-electron integrals.
	Sorting File: SO Ints (nn|nn) nbuckets = 1
	Transforming the one-electron integrals and constructing Fock matrices
	Starting first half-transformation.
	Sorting half-transformed integrals.
	First half integral transformation complete.
	Starting second half-transformation.
	Two-electron integral transformation complete.


  Presorting two-electron integrals from IWL buffer
    Memory available                       =      236931268 bytes
    Memory available for presorting        =      177698451 bytes (75.0%)
    Memory required for in-core presort    =          92072 bytes
    Presorting is not required
    Reading irreps 0 -> 7 (10408 non-zero integrals)

  Sorting integrals:
    Memory available                       =      236924996 bytes
    Memory available for sorting           =      118462498 bytes (50.0%)

    Pass 1:
    Setting up the matrix list: added 480 matrices blocks
    Integrals from irreps 0 -> 7 will be read in core

    Frozen-core energy                     =       -130.032501405

  Computing storage strategy:
    Input memory                           =      250000000 bytes
    Free memory                            =      236924996 bytes
    Free memory available for matrices     =      229817246 bytes ( 97%)
    Memory required by fock matrices       =           4048 bytes
    Memory required by integrals           =        1012232 bytes
    Memory required by other matrices      =        1470128 bytes
    Memory required for in-core algorithm  =        2486408 bytes
    PSIMRCC will perform a full in-core computation

  Options:
  ----------------------------------------------------------------------------
  ACTIVE                      => [ 0, 0, 1, 1, 0, 0, 0, 0 ] !
  BENCH                       => 0                           
  CC_NUM_THREADS              => 1                           
  CC_TYPE                     => CONV                        
  CI_TYPE                     => CONV                        
  CORR_ANSATZ                 => MK                          
  CORR_CCSD_T                 => STANDARD                    
  CORR_CHARGE                 => 0                           
  CORR_MULTP                  => 1                          !
  CORR_WFN                    => CCSD                       !
  COUPLING                    => CUBIC                       
  COUPLING_TERMS              => TRUE                        
  CUBEPROP_BASIS_FUNCTIONS    => [  ]                        
  CUBEPROP_FILEPATH           => .                           
  CUBEPROP_ORBITALS           => [  ]                        
  CUBEPROP_TASKS              => [  ]                        
  CUBIC_BASIS_TOLERANCE       => 1e-12                       
  CUBIC_BLOCK_MAX_POINTS      => 1000                        
  CUBIC_GRID_OVERAGE          => [  ]                        
  CUBIC_GRID_SPACING          => [  ]                        
  DAMPING_PERCENTAGE          => 0                           
  DEBUG                       => 0                           
  DERTYPE                     => NONE                        
  DF_BASIS_CC                 => (empty)                     
  DIAGONALIZE_HEFF            => FALSE                       
  DIAGONAL_CCSD_T             => TRUE                        
  DIE_IF_NOT_CONVERGED        => TRUE                        
  DIIS_MAX_VECS               => 7                           
  DIIS_START                  => 2                           
  DKH_ORDER                   => 2                           
  DOCC                        => [  ]                        
  EXTERNAL_POTENTIAL_SYMMETRY => FALSE                       
  E_CONVERGENCE               => 1e-10                      !
  FAVG_CCSD_T                 => FALSE                       
  FOLLOW_ROOT                 => 1                           
  FREEZE_CORE                 => FALSE                       
  FROZEN_DOCC                 => [ 1, 0, 0, 0, 0, 1, 0, 0 ] !
  FROZEN_UOCC                 => [ 0, 0, 0, 0, 0, 0, 0, 0 ] !
  HEFF4                       => TRUE                        
  HEFF_PRINT                  => FALSE                       
  INTEGRAL_PACKAGE            => ERD                         
  LITERAL_CFOUR               => (empty)                     
  LOCK_SINGLET                => FALSE                       
  MAT_NUM_COLUMN_PRINT        => 5                           
  MAXITER                     => 100                         
  MP2_CCSD_METHOD             => II                          
  MP2_GUESS                   => TRUE                        
  MP2_TYPE                    => DF                          
  MP_TYPE                     => CONV                        
  NO_SINGLES                  => FALSE                       
  NUM_FROZEN_DOCC             => 0                           
  NUM_FROZEN_UOCC             => 0                           
  OFFDIAGONAL_CCSD_T          => TRUE                        
  PCM                         => FALSE                       
  PCM_SCF_TYPE                => TOTAL                       
  PERTURB_CBS                 => FALSE                       
  PERTURB_CBS_COUPLING        => TRUE                        
  PRINT                       => 1                           
  PRINT_NOONS                 => 3                           
  PROPERTIES                  => [  ]                        
  PROPERTIES_ORIGIN           => [  ]                        
  PT_ENERGY                   => SECOND_ORDER                
  PUREAM                      => TRUE                        
  QC_MODULE                   => (empty)                     
  RAS1                        => [  ]                        
  RAS2                        => [  ]                        
  RAS3                        => [  ]                        
  RAS4                        => [  ]                        
  RELATIVISTIC                => NO                          
  REL_BASIS                   => (empty)                     
  RESTRICTED_DOCC             => [ 2, 0, 0, 0, 0, 1, 1, 1 ] !
  RESTRICTED_UOCC             => [  ]                        
  RUN_CCTRANSORT              => TRUE                        
  R_CONVERGENCE               => 1e-10                      !
  SMALL_CUTOFF                => 0                           
  SOCC                        => [  ]                        
  TIKHONOW_MAX                => 5                           
  TIKHONOW_OMEGA              => 0                           
  TIKHONOW_TRIPLES            => FALSE                       
  TRIPLES_ALGORITHM           => RESTRICTED                  
  TRIPLES_DIIS                => FALSE                       
  UNITS                       => ANGSTROMS                   
  USE_SPIN_SYM                => TRUE                        
  USE_SPIN_SYMMETRY           => TRUE                        
  WFN                         => SCF                         
  WFN_SYM                     => B1G                        !
  WRITER_FILE_LABEL           => (empty)                     
  ZERO_INTERNAL_AMPS          => TRUE                        



  Heff Matrix

        -149.572645753838         0.023659922523
           0.023659922523      -149.572645753838

  Left Matrix

          -0.707106781187         0.707106781187
           0.707106781187         0.707106781187

  Right Matrix

          -0.707106781187         0.707106781187
           0.707106781187         0.707106781187

  Real                  Imaginary

       -149.596305676361           0.000000000000
       -149.548985831315           0.000000000000


  The eigenvalue for root 0 is -149.596305676361 (0.000000000000)

  Heff Matrix

     -149.572645753838060      0.023659922522939
        0.023659922522939   -149.572645753838060

  Most important determinants in the wave function

  determinant  eigenvector   eigenvector^2

            1    0.707107     0.500000  |[22][][+][-][][2][2][2]>
            0   -0.707107     0.500000  |[22][][-][+][][2][2][2]>

  ==============================================================================
  	Multireference Coupled Cluster
		Using the DPD Library
  ==============================================================================

  ------------------------------------------------------------------------------
  @CC Cycle      Energy          Delta E    ||DeltaT1|| ||DeltaT2|| Timing  DIIS
  @CC           (Hartree)       (Hartree)                           (Sec)
  ------------------------------------------------------------------------------
  @CC   0   -149.596305676361   0.0000e+00   0.000e+00   0.000e+00       0
  Tikhonow regularization turned on.  Omega = 0.000e+00   S
  @CC   1   -149.991286044428  -3.9498e-01   6.840e-02   4.713e-01       0
  Tikhonow regularization turned on.  Omega = 0.000e+00   S
  @CC   2   -149.950773633174   4.0512e-02   5.003e-02   1.279e-01       0
  Tikhonow regularization turned on.  Omega = 0.000e+00   S
  @CC   3   -149.973163860918  -2.2390e-02   1.321e-02   3.614e-02       0
  Tikhonow regularization turned on.  Omega = 0.000e+00   S
  @CC   4   -149.968074227951   5.0896e-03   6.067e-03   1.642e-02       0
  Tikhonow regularization turned on.  Omega = 0.000e+00   S
  @CC   5   -149.970464564364  -2.3903e-03   1.480e-03   5.234e-03       0   S
  @CC   6   -149.969907040004   5.5752e-04   7.824e-04   3.159e-03       0   S/E
  @CC   7   -149.970183581999  -2.7654e-04   1.672e-04   1.359e-03       0   S
  @CC   8   -149.970152060872   3.1521e-05   2.834e-05   9.689e-05       0   S
  @CC   9   -149.970155519600  -3.4587e-06   9.871e-06   3.564e-05       0   S
  @CC  10   -149.970151554672   3.9649e-06   1.884e-06   1.820e-05       0   S
  @CC  11   -149.970151288438   2.6623e-07   1.455e-06   9.887e-06       0   S
  @CC  12   -149.970150480897   8.0754e-07   4.406e-07   5.672e-06       0   S
  @CC  13   -149.970150240346   2.4055e-07   3.213e-07   3.274e-06       0   S/E
  @CC  14   -149.970149789128   4.5122e-07   1.314e-07   1.923e-06       0   S
  @CC  15   -149.970149794300  -5.1720e-09   2.430e-08   7.327e-08       0   S
  @CC  16   -149.970149795422  -1.1216e-09   7.572e-09   2.894e-08       0   S
  @CC  17   -149.970149794543   8.7908e-10   2.456e-09   1.435e-08       0   S
  @CC  18   -149.970149794580  -3.7431e-11   1.107e-09   7.958e-09       0   S
  @CC  19   -149.970149794421   1.5891e-10   5.288e-10   4.363e-09       0   S
  @CC  20   -149.970149794398   2.3050e-11   2.612e-10   2.487e-09       0   S/E
  @CC  21   -149.970149794330   6.8667e-11   1.355e-10   1.408e-09       0   S
  @CC  22   -149.970149794325   4.5191e-12   1.941e-11   6.887e-11       0
  ------------------------------------------------------------------------------

      * Mk-MRCCSD total energy      =    -149.970149794325


  Heff Matrix

     -149.949707617344416      0.020442176980655
        0.020442176980655   -149.949707617344416

  Most important determinants in the wave function

  determinant  eigenvector   eigenvector^2

            0   -0.707107     0.500000  |[22][][-][+][][2][2][2]>
            1    0.707107     0.500000  |[22][][+][-][][2][2][2]>

  Timing for singles and doubles:             0.232875 s

  PSIMRCC job completed.
  Wall Time =             0.277923 s
  GEMM Time =             0.020328 s

  ==============================================================================
  Memory Usage Report

  Maximum memory used:     14.8 Mb 
  Number of objects still in memory: 0       Current bytes used: 0             
  ==============================================================================

  //>>>>>>>>>>>>>>>>>>>>>>>>>>>>>>>>>>>//
  //    Loading displacement 3 of 5    //
  //<<<<<<<<<<<<<<<<<<<<<<<<<<<<<<<<<<<//

*** tstart() called on ds1.sherrill.chemistry.gatech.edu
*** at Mon Mar 14 15:32:15 2016


         ------------------------------------------
           MCSCF: a self-consistent field program
            written by Francesco A. Evangelista
         ------------------------------------------

  MOs per irrep:                  Ag  B1g  B2g  B3g  Au  B1u  B2u  B3u Total
  ----------------------------------------------------------------------------
  Total                            7    1    3    3    1    7    3    3    28
  Doubly Occupied                  3    0    0    0    0    2    1    1     7
  Active/Singly Occupied           0    0    1    1    0    0    0    0     2
  ----------------------------------------------------------------------------

  Running an SCF calculation

  Generated 406 pairs
  Distributed as [82 Ag][32 B1g][48 B2g][48 B3g][32 Au][68 B1u][48 B2u][48 B3u]
  batch   0 pq = [       0,      82] index = [               0,            3403]

  Allocated the PK matrix (3403 elements) 
  Allocated the  K matrix (3403 elements) 
  Reading the two-electron integrals to form PK and K ... 
  batch   0 ... done.


  =========================================================================================
         Cycle          Energy               D(Energy)            D(Density)            DIIS
  ===========================================================================================
  Setting level shift to 0.000 S
  @SCF    0     -141.688313341540    -141.688313341540       0.109440674159
  Setting level shift to 0.000 S
  @SCF    1     -147.916364022557      -6.228050681017       0.099532588338
  Setting level shift to 0.000 S
  @SCF    2     -149.400003483012      -1.483639460454       0.035208183119
  Setting level shift to 0.000 S
  @SCF    3     -149.570514338404      -0.170510855392       0.014023895442
  Setting level shift to 0.000 S
  @SCF    4     -149.594096231525      -0.023581893121       0.004628236088
  Setting level shift to 0.000 S
  @SCF    5     -149.597021645544      -0.002925414019       0.001756421750
  Setting level shift to 0.000 S
  @SCF    6     -149.597399312109      -0.000377666565       0.000613310107
  Setting level shift to 0.000 S/E
  @SCF    7     -149.597447422898      -0.000048110789       0.000221093157
  Setting level shift to 0.000 S/E
  @SCF    8     -149.597454489372      -0.000007066474       0.000059073862
  Setting level shift to 0.000 S/E
  @SCF    9     -149.597454489414      -0.000000000042       0.000000174083
  Setting level shift to 0.000 S/E
  @SCF   10     -149.597454489414      -0.000000000000       0.000000010769
  Setting level shift to 0.000 S/E
  @SCF   11     -149.597454489414      -0.000000000000       0.000000001318
  Setting level shift to 0.000 S/E
  @SCF   12     -149.597454489414      -0.000000000000       0.000000000323
  Setting level shift to 0.000 S/E
  @SCF   13     -149.597454489414       0.000000000000       0.000000000014
  Setting level shift to 0.000 S/E
  @SCF   14     -149.597454489414       0.000000000000       0.000000000001
  Setting level shift to 0.000 S/E
  @SCF   15     -149.597454489414      -0.000000000000       0.000000000000
  Setting level shift to 0.000 S/E
  @SCF   16     -149.597454489414       0.000000000000       0.000000000000
  =========================================================================================

      * SCF total energy   =    -149.597454489414


  End of SCF
  MOs orthonormality check passed.

  Orbitals are canonicalized as:
  inactive (docc + uocc) : Fock(core)
  active   (actv)        : Fock(core)

  =========================================================================
  Eigenvalues (Eh)
  -------------------------------------------------------------------------
  Doubly occupied orbitals
      1    -20.735666  Ag      2    -20.734863 B1u      3     -1.617689  Ag
      4     -1.112373 B1u      5     -0.717351  Ag      6     -0.685260 B2u
      7     -0.685260 B3u
  Active orbitals
      8     -0.224566 B3g      9     -0.224566 B2g
  Unoccupied orbitals
     10      0.411354 B1u     11      1.068231 B1u     12      1.111190 B2u
     13      1.111190 B3u     14      1.174126  Ag     15      1.215127 B3g
     16      1.215127 B2g     17      1.341321  Ag     18      1.945851 B1u
     19      2.410660 B3u     20      2.410660 B2u     21      2.707162 B1g
     22      2.707162  Ag     23      2.986552  Au     24      2.986552 B1u
     25      3.062529  Ag     26      3.603121 B3g     27      3.603121 B2g
     28      4.187170 B1u
  =========================================================================


  MCSCF Execution Completed.


*** tstop() called on ds1.sherrill.chemistry.gatech.edu at Mon Mar 14 15:32:15 2016
Module time:
	user time   =       0.04 seconds =       0.00 minutes
	system time =       0.01 seconds =       0.00 minutes
	total time  =          0 seconds =       0.00 minutes
Total time:
	user time   =       0.72 seconds =       0.01 minutes
	system time =       0.09 seconds =       0.00 minutes
	total time  =          1 seconds =       0.02 minutes

  MRCC          MRCC
   MRCC  MRCC  MRCC
   MRCC  MRCC  MRCC      PSIMRCC Version 0.9.3.3, July 2009
   MRCC  MRCC  MRCC      Multireference Coupled Cluster, written by
     MRCCMRCCMRCC        Francesco A. Evangelista and Andrew C. Simmonett
         MRCC            Compiled on Mar  4 2016 at 18:07:05
         MRCC            id = 6a707c99fd2213714c6c78cfcd145480721f0359 
       MRCCMRCC

  ==============================================================================
  System Info:
  ------------------------------------------------------------------------------
  Nuclear Energy   = 27.100424489     SCF Energy       = -149.597454489 

  MOs and Symmetry:
  ------------------------------------------------------------------------------
  nirreps          = 8                root             = 0         
  nso              = 28               nmo              = 28        
  nael             = 8                nbel             = 8         
  nactive_ael      = 1                nactive_bel      = 1         

  Details of the Computation:
  ------------------------------------------------------------------------------

  MOs per irrep:                    Ag  B1g  B2g  B3g  Au  B1u  B2u  B3u Total
  ------------------------------------------------------------------------------
  Total                              7    1    3    3    1    7    3    3    28
  Frozen Occupied                    1    0    0    0    0    1    0    0     2
  Doubly Occupied                    2    0    0    0    0    1    1    1     5
  Active                             0    0    1    1    0    0    0    0     2
  External                           4    1    2    2    1    5    2    2    19
  Frozen Virtual                     0    0    0    0    0    0    0    0     0

  Model space
  ------------------------------------------------------------------------------
   0  |[22][][-][+][][2][2][2]>
   1  |[22][][+][-][][2][2][2]>
  ==============================================================================

  Allocated work array of size 22504 (0.02 MiB)
  Allocated buffer array of size 12605120 (12.02 MiB)	Presorting SO-basis two-electron integrals.
	Sorting File: SO Ints (nn|nn) nbuckets = 1
	Transforming the one-electron integrals and constructing Fock matrices
	Starting first half-transformation.
	Sorting half-transformed integrals.
	First half integral transformation complete.
	Starting second half-transformation.
	Two-electron integral transformation complete.


  Presorting two-electron integrals from IWL buffer
    Memory available                       =      236931268 bytes
    Memory available for presorting        =      177698451 bytes (75.0%)
    Memory required for in-core presort    =          92072 bytes
    Presorting is not required
    Reading irreps 0 -> 7 (10415 non-zero integrals)

  Sorting integrals:
    Memory available                       =      236924996 bytes
    Memory available for sorting           =      118462498 bytes (50.0%)

    Pass 1:
    Setting up the matrix list: added 480 matrices blocks
    Integrals from irreps 0 -> 7 will be read in core

    Frozen-core energy                     =       -130.067899624

  Computing storage strategy:
    Input memory                           =      250000000 bytes
    Free memory                            =      236924996 bytes
    Free memory available for matrices     =      229817246 bytes ( 97%)
    Memory required by fock matrices       =           4048 bytes
    Memory required by integrals           =        1012232 bytes
    Memory required by other matrices      =        1470128 bytes
    Memory required for in-core algorithm  =        2486408 bytes
    PSIMRCC will perform a full in-core computation

  Options:
  ----------------------------------------------------------------------------
  ACTIVE                      => [ 0, 0, 1, 1, 0, 0, 0, 0 ] !
  BENCH                       => 0                           
  CC_NUM_THREADS              => 1                           
  CC_TYPE                     => CONV                        
  CI_TYPE                     => CONV                        
  CORR_ANSATZ                 => MK                          
  CORR_CCSD_T                 => STANDARD                    
  CORR_CHARGE                 => 0                           
  CORR_MULTP                  => 1                          !
  CORR_WFN                    => CCSD                       !
  COUPLING                    => CUBIC                       
  COUPLING_TERMS              => TRUE                        
  CUBEPROP_BASIS_FUNCTIONS    => [  ]                        
  CUBEPROP_FILEPATH           => .                           
  CUBEPROP_ORBITALS           => [  ]                        
  CUBEPROP_TASKS              => [  ]                        
  CUBIC_BASIS_TOLERANCE       => 1e-12                       
  CUBIC_BLOCK_MAX_POINTS      => 1000                        
  CUBIC_GRID_OVERAGE          => [  ]                        
  CUBIC_GRID_SPACING          => [  ]                        
  DAMPING_PERCENTAGE          => 0                           
  DEBUG                       => 0                           
  DERTYPE                     => NONE                        
  DF_BASIS_CC                 => (empty)                     
  DIAGONALIZE_HEFF            => FALSE                       
  DIAGONAL_CCSD_T             => TRUE                        
  DIE_IF_NOT_CONVERGED        => TRUE                        
  DIIS_MAX_VECS               => 7                           
  DIIS_START                  => 2                           
  DKH_ORDER                   => 2                           
  DOCC                        => [  ]                        
  EXTERNAL_POTENTIAL_SYMMETRY => FALSE                       
  E_CONVERGENCE               => 1e-10                      !
  FAVG_CCSD_T                 => FALSE                       
  FOLLOW_ROOT                 => 1                           
  FREEZE_CORE                 => FALSE                       
  FROZEN_DOCC                 => [ 1, 0, 0, 0, 0, 1, 0, 0 ] !
  FROZEN_UOCC                 => [ 0, 0, 0, 0, 0, 0, 0, 0 ] !
  HEFF4                       => TRUE                        
  HEFF_PRINT                  => FALSE                       
  INTEGRAL_PACKAGE            => ERD                         
  LITERAL_CFOUR               => (empty)                     
  LOCK_SINGLET                => FALSE                       
  MAT_NUM_COLUMN_PRINT        => 5                           
  MAXITER                     => 100                         
  MP2_CCSD_METHOD             => II                          
  MP2_GUESS                   => TRUE                        
  MP2_TYPE                    => DF                          
  MP_TYPE                     => CONV                        
  NO_SINGLES                  => FALSE                       
  NUM_FROZEN_DOCC             => 0                           
  NUM_FROZEN_UOCC             => 0                           
  OFFDIAGONAL_CCSD_T          => TRUE                        
  PCM                         => FALSE                       
  PCM_SCF_TYPE                => TOTAL                       
  PERTURB_CBS                 => FALSE                       
  PERTURB_CBS_COUPLING        => TRUE                        
  PRINT                       => 1                           
  PRINT_NOONS                 => 3                           
  PROPERTIES                  => [  ]                        
  PROPERTIES_ORIGIN           => [  ]                        
  PT_ENERGY                   => SECOND_ORDER                
  PUREAM                      => TRUE                        
  QC_MODULE                   => (empty)                     
  RAS1                        => [  ]                        
  RAS2                        => [  ]                        
  RAS3                        => [  ]                        
  RAS4                        => [  ]                        
  RELATIVISTIC                => NO                          
  REL_BASIS                   => (empty)                     
  RESTRICTED_DOCC             => [ 2, 0, 0, 0, 0, 1, 1, 1 ] !
  RESTRICTED_UOCC             => [  ]                        
  RUN_CCTRANSORT              => TRUE                        
  R_CONVERGENCE               => 1e-10                      !
  SMALL_CUTOFF                => 0                           
  SOCC                        => [  ]                        
  TIKHONOW_MAX                => 5                           
  TIKHONOW_OMEGA              => 0                           
  TIKHONOW_TRIPLES            => FALSE                       
  TRIPLES_ALGORITHM           => RESTRICTED                  
  TRIPLES_DIIS                => FALSE                       
  UNITS                       => ANGSTROMS                   
  USE_SPIN_SYM                => TRUE                        
  USE_SPIN_SYMMETRY           => TRUE                        
  WFN                         => SCF                         
  WFN_SYM                     => B1G                        !
  WRITER_FILE_LABEL           => (empty)                     
  ZERO_INTERNAL_AMPS          => TRUE                        



  Heff Matrix

        -149.573785552664         0.023668936751
           0.023668936751      -149.573785552664

  Left Matrix

          -0.707106781187         0.707106781187
           0.707106781187         0.707106781187

  Right Matrix

          -0.707106781187         0.707106781187
           0.707106781187         0.707106781187

  Real                  Imaginary

       -149.597454489414           0.000000000000
       -149.550116615913           0.000000000000


  The eigenvalue for root 0 is -149.597454489414 (0.000000000000)

  Heff Matrix

     -149.573785552663509      0.023668936750708
        0.023668936750708   -149.573785552663509

  Most important determinants in the wave function

  determinant  eigenvector   eigenvector^2

            0   -0.707107     0.500000  |[22][][-][+][][2][2][2]>
            1    0.707107     0.500000  |[22][][+][-][][2][2][2]>

  ==============================================================================
  	Multireference Coupled Cluster
		Using the DPD Library
  ==============================================================================

  ------------------------------------------------------------------------------
  @CC Cycle      Energy          Delta E    ||DeltaT1|| ||DeltaT2|| Timing  DIIS
  @CC           (Hartree)       (Hartree)                           (Sec)
  ------------------------------------------------------------------------------
  @CC   0   -149.597454489414   0.0000e+00   0.000e+00   0.000e+00       0
  Tikhonow regularization turned on.  Omega = 0.000e+00   S
  @CC   1   -149.991254250434  -3.9380e-01   6.824e-02   4.694e-01       0
  Tikhonow regularization turned on.  Omega = 0.000e+00   S
  @CC   2   -149.951519993946   3.9734e-02   4.950e-02   1.264e-01       0
  Tikhonow regularization turned on.  Omega = 0.000e+00   S
  @CC   3   -149.973495970079  -2.1976e-02   1.298e-02   3.544e-02       0
  Tikhonow regularization turned on.  Omega = 0.000e+00   S
  @CC   4   -149.968582438341   4.9135e-03   5.934e-03   1.605e-02       0
  Tikhonow regularization turned on.  Omega = 0.000e+00   S
  @CC   5   -149.970895644557  -2.3132e-03   1.433e-03   5.118e-03       0   S
  @CC   6   -149.970367407765   5.2824e-04   7.576e-04   3.082e-03       0   S/E
  @CC   7   -149.970634061123  -2.6665e-04   1.608e-04   1.332e-03       0   S
  @CC   8   -149.970603176632   3.0884e-05   2.774e-05   9.525e-05       0   S
  @CC   9   -149.970606477157  -3.3005e-06   9.696e-06   3.493e-05       0   S
  @CC  10   -149.970602637522   3.8396e-06   1.829e-06   1.783e-05       0   S
  @CC  11   -149.970602356228   2.8129e-07   1.416e-06   9.694e-06       0   S
  @CC  12   -149.970601574737   7.8149e-07   4.324e-07   5.555e-06       0   S
  @CC  13   -149.970601336366   2.3837e-07   3.123e-07   3.205e-06       0   S/E
  @CC  14   -149.970600897348   4.3902e-07   1.290e-07   1.881e-06       0   S
  @CC  15   -149.970600902788  -5.4406e-09   2.365e-08   7.083e-08       0   S
  @CC  16   -149.970600903758  -9.6938e-10   7.256e-09   2.786e-08       0   S
  @CC  17   -149.970600902969   7.8893e-10   2.395e-09   1.379e-08       0   S
  @CC  18   -149.970600902993  -2.4585e-11   1.074e-09   7.622e-09       0   S
  @CC  19   -149.970600902849   1.4390e-10   5.140e-10   4.170e-09       0   S
  @CC  20   -149.970600902827   2.2538e-11   2.530e-10   2.368e-09       0   S/E
  @CC  21   -149.970600902765   6.2386e-11   1.308e-10   1.337e-09       0   S
  @CC  22   -149.970600902760   4.3201e-12   1.837e-11   6.458e-11       0
  ------------------------------------------------------------------------------

      * Mk-MRCCSD total energy      =    -149.970600902760


  Heff Matrix

     -149.950110869995711      0.020490032764521
        0.020490032764521   -149.950110869995711

  Most important determinants in the wave function

  determinant  eigenvector   eigenvector^2

            0   -0.707107     0.500000  |[22][][-][+][][2][2][2]>
            1    0.707107     0.500000  |[22][][+][-][][2][2][2]>

  Timing for singles and doubles:             0.232367 s

  PSIMRCC job completed.
  Wall Time =             0.276120 s
  GEMM Time =             0.020132 s

  ==============================================================================
  Memory Usage Report

  Maximum memory used:     14.8 Mb 
  Number of objects still in memory: 0       Current bytes used: 0             
  ==============================================================================

  //>>>>>>>>>>>>>>>>>>>>>>>>>>>>>>>>>>>//
  //    Loading displacement 4 of 5    //
  //<<<<<<<<<<<<<<<<<<<<<<<<<<<<<<<<<<<//

*** tstart() called on ds1.sherrill.chemistry.gatech.edu
*** at Mon Mar 14 15:32:15 2016


         ------------------------------------------
           MCSCF: a self-consistent field program
            written by Francesco A. Evangelista
         ------------------------------------------

  MOs per irrep:                  Ag  B1g  B2g  B3g  Au  B1u  B2u  B3u Total
  ----------------------------------------------------------------------------
  Total                            7    1    3    3    1    7    3    3    28
  Doubly Occupied                  3    0    0    0    0    2    1    1     7
  Active/Singly Occupied           0    0    1    1    0    0    0    0     2
  ----------------------------------------------------------------------------

  Running an SCF calculation

  Generated 406 pairs
  Distributed as [82 Ag][32 B1g][48 B2g][48 B3g][32 Au][68 B1u][48 B2u][48 B3u]
  batch   0 pq = [       0,      82] index = [               0,            3403]

  Allocated the PK matrix (3403 elements) 
  Allocated the  K matrix (3403 elements) 
  Reading the two-electron integrals to form PK and K ... 
  batch   0 ... done.


  =========================================================================================
         Cycle          Energy               D(Energy)            D(Density)            DIIS
  ===========================================================================================
  Setting level shift to 0.000 S
  @SCF    0     -141.679204313784    -141.679204313784       0.109481191352
  Setting level shift to 0.000 S
  @SCF    1     -147.911183977648      -6.231979663864       0.099583270277
  Setting level shift to 0.000 S
  @SCF    2     -149.399763957564      -1.488579979916       0.035271914651
  Setting level shift to 0.000 S
  @SCF    3     -149.570933267521      -0.171169309957       0.014051335553
  Setting level shift to 0.000 S
  @SCF    4     -149.594638597584      -0.023705330063       0.004638956978
  Setting level shift to 0.000 S
  @SCF    5     -149.597581655523      -0.002943057939       0.001761622144
  Setting level shift to 0.000 S
  @SCF    6     -149.597961978739      -0.000380323216       0.000615306452
  Setting level shift to 0.000 S/E
  @SCF    7     -149.598010472996      -0.000048494257       0.000221944785
  Setting level shift to 0.000 S/E
  @SCF    8     -149.598017603716      -0.000007130720       0.000059307868
  Setting level shift to 0.000 S/E
  @SCF    9     -149.598017603758      -0.000000000042       0.000000175240
  Setting level shift to 0.000 S/E
  @SCF   10     -149.598017603758      -0.000000000000       0.000000010983
  Setting level shift to 0.000 S/E
  @SCF   11     -149.598017603758       0.000000000000       0.000000001354
  Setting level shift to 0.000 S/E
  @SCF   12     -149.598017603758       0.000000000000       0.000000000331
  Setting level shift to 0.000 S/E
  @SCF   13     -149.598017603758      -0.000000000000       0.000000000014
  Setting level shift to 0.000 S/E
  @SCF   14     -149.598017603758      -0.000000000000       0.000000000001
  Setting level shift to 0.000 S/E
  @SCF   15     -149.598017603758       0.000000000000       0.000000000000
  Setting level shift to 0.000 S/E
  @SCF   16     -149.598017603758       0.000000000000       0.000000000000
  =========================================================================================

      * SCF total energy   =    -149.598017603758


  End of SCF
  MOs orthonormality check passed.

  Orbitals are canonicalized as:
  inactive (docc + uocc) : Fock(core)
  active   (actv)        : Fock(core)

  =========================================================================
  Eigenvalues (Eh)
  -------------------------------------------------------------------------
  Doubly occupied orbitals
      1    -20.735324  Ag      2    -20.734517 B1u      3     -1.619205  Ag
      4     -1.111737 B1u      5     -0.717890  Ag      6     -0.685959 B2u
      7     -0.685959 B3u
  Active orbitals
      8     -0.223830 B2g      9     -0.223830 B3g
  Unoccupied orbitals
     10      0.413652 B1u     11      1.068596 B1u     12      1.111195 B2u
     13      1.111195 B3u     14      1.173307  Ag     15      1.215191 B2g
     16      1.215191 B3g     17      1.340706  Ag     18      1.947036 B1u
     19      2.410131 B2u     20      2.410131 B3u     21      2.706168 B1g
     22      2.706168  Ag     23      2.987503  Au     24      2.987503 B1u
     25      3.067593  Ag     26      3.606457 B2g     27      3.606457 B3g
     28      4.187502 B1u
  =========================================================================


  MCSCF Execution Completed.


*** tstop() called on ds1.sherrill.chemistry.gatech.edu at Mon Mar 14 15:32:15 2016
Module time:
	user time   =       0.05 seconds =       0.00 minutes
	system time =       0.01 seconds =       0.00 minutes
	total time  =          0 seconds =       0.00 minutes
Total time:
	user time   =       1.05 seconds =       0.02 minutes
	system time =       0.12 seconds =       0.00 minutes
	total time  =          1 seconds =       0.02 minutes

  MRCC          MRCC
   MRCC  MRCC  MRCC
   MRCC  MRCC  MRCC      PSIMRCC Version 0.9.3.3, July 2009
   MRCC  MRCC  MRCC      Multireference Coupled Cluster, written by
     MRCCMRCCMRCC        Francesco A. Evangelista and Andrew C. Simmonett
         MRCC            Compiled on Mar  4 2016 at 18:07:05
         MRCC            id = 6a707c99fd2213714c6c78cfcd145480721f0359 
       MRCCMRCC

  ==============================================================================
  System Info:
  ------------------------------------------------------------------------------
  Nuclear Energy   = 27.141063864     SCF Energy       = -149.598017604 

  MOs and Symmetry:
  ------------------------------------------------------------------------------
  nirreps          = 8                root             = 0         
  nso              = 28               nmo              = 28        
  nael             = 8                nbel             = 8         
  nactive_ael      = 1                nactive_bel      = 1         

  Details of the Computation:
  ------------------------------------------------------------------------------

  MOs per irrep:                    Ag  B1g  B2g  B3g  Au  B1u  B2u  B3u Total
  ------------------------------------------------------------------------------
  Total                              7    1    3    3    1    7    3    3    28
  Frozen Occupied                    1    0    0    0    0    1    0    0     2
  Doubly Occupied                    2    0    0    0    0    1    1    1     5
  Active                             0    0    1    1    0    0    0    0     2
  External                           4    1    2    2    1    5    2    2    19
  Frozen Virtual                     0    0    0    0    0    0    0    0     0

  Model space
  ------------------------------------------------------------------------------
   0  |[22][][-][+][][2][2][2]>
   1  |[22][][+][-][][2][2][2]>
  ==============================================================================

  Allocated work array of size 22504 (0.02 MiB)
  Allocated buffer array of size 12605120 (12.02 MiB)	Presorting SO-basis two-electron integrals.
	Sorting File: SO Ints (nn|nn) nbuckets = 1
	Transforming the one-electron integrals and constructing Fock matrices
	Starting first half-transformation.
	Sorting half-transformed integrals.
	First half integral transformation complete.
	Starting second half-transformation.
	Two-electron integral transformation complete.


  Presorting two-electron integrals from IWL buffer
    Memory available                       =      236931268 bytes
    Memory available for presorting        =      177698451 bytes (75.0%)
    Memory required for in-core presort    =          92072 bytes
    Presorting is not required
    Reading irreps 0 -> 7 (10427 non-zero integrals)

  Sorting integrals:
    Memory available                       =      236924996 bytes
    Memory available for sorting           =      118462498 bytes (50.0%)

    Pass 1:
    Setting up the matrix list: added 480 matrices blocks
    Integrals from irreps 0 -> 7 will be read in core

    Frozen-core energy                     =       -130.085678370

  Computing storage strategy:
    Input memory                           =      250000000 bytes
    Free memory                            =      236924996 bytes
    Free memory available for matrices     =      229817246 bytes ( 97%)
    Memory required by fock matrices       =           4048 bytes
    Memory required by integrals           =        1012232 bytes
    Memory required by other matrices      =        1470128 bytes
    Memory required for in-core algorithm  =        2486408 bytes
    PSIMRCC will perform a full in-core computation

  Options:
  ----------------------------------------------------------------------------
  ACTIVE                      => [ 0, 0, 1, 1, 0, 0, 0, 0 ] !
  BENCH                       => 0                           
  CC_NUM_THREADS              => 1                           
  CC_TYPE                     => CONV                        
  CI_TYPE                     => CONV                        
  CORR_ANSATZ                 => MK                          
  CORR_CCSD_T                 => STANDARD                    
  CORR_CHARGE                 => 0                           
  CORR_MULTP                  => 1                          !
  CORR_WFN                    => CCSD                       !
  COUPLING                    => CUBIC                       
  COUPLING_TERMS              => TRUE                        
  CUBEPROP_BASIS_FUNCTIONS    => [  ]                        
  CUBEPROP_FILEPATH           => .                           
  CUBEPROP_ORBITALS           => [  ]                        
  CUBEPROP_TASKS              => [  ]                        
  CUBIC_BASIS_TOLERANCE       => 1e-12                       
  CUBIC_BLOCK_MAX_POINTS      => 1000                        
  CUBIC_GRID_OVERAGE          => [  ]                        
  CUBIC_GRID_SPACING          => [  ]                        
  DAMPING_PERCENTAGE          => 0                           
  DEBUG                       => 0                           
  DERTYPE                     => NONE                        
  DF_BASIS_CC                 => (empty)                     
  DIAGONALIZE_HEFF            => FALSE                       
  DIAGONAL_CCSD_T             => TRUE                        
  DIE_IF_NOT_CONVERGED        => TRUE                        
  DIIS_MAX_VECS               => 7                           
  DIIS_START                  => 2                           
  DKH_ORDER                   => 2                           
  DOCC                        => [  ]                        
  EXTERNAL_POTENTIAL_SYMMETRY => FALSE                       
  E_CONVERGENCE               => 1e-10                      !
  FAVG_CCSD_T                 => FALSE                       
  FOLLOW_ROOT                 => 1                           
  FREEZE_CORE                 => FALSE                       
  FROZEN_DOCC                 => [ 1, 0, 0, 0, 0, 1, 0, 0 ] !
  FROZEN_UOCC                 => [ 0, 0, 0, 0, 0, 0, 0, 0 ] !
  HEFF4                       => TRUE                        
  HEFF_PRINT                  => FALSE                       
  INTEGRAL_PACKAGE            => ERD                         
  LITERAL_CFOUR               => (empty)                     
  LOCK_SINGLET                => FALSE                       
  MAT_NUM_COLUMN_PRINT        => 5                           
  MAXITER                     => 100                         
  MP2_CCSD_METHOD             => II                          
  MP2_GUESS                   => TRUE                        
  MP2_TYPE                    => DF                          
  MP_TYPE                     => CONV                        
  NO_SINGLES                  => FALSE                       
  NUM_FROZEN_DOCC             => 0                           
  NUM_FROZEN_UOCC             => 0                           
  OFFDIAGONAL_CCSD_T          => TRUE                        
  PCM                         => FALSE                       
  PCM_SCF_TYPE                => TOTAL                       
  PERTURB_CBS                 => FALSE                       
  PERTURB_CBS_COUPLING        => TRUE                        
  PRINT                       => 1                           
  PRINT_NOONS                 => 3                           
  PROPERTIES                  => [  ]                        
  PROPERTIES_ORIGIN           => [  ]                        
  PT_ENERGY                   => SECOND_ORDER                
  PUREAM                      => TRUE                        
  QC_MODULE                   => (empty)                     
  RAS1                        => [  ]                        
  RAS2                        => [  ]                        
  RAS3                        => [  ]                        
  RAS4                        => [  ]                        
  RELATIVISTIC                => NO                          
  REL_BASIS                   => (empty)                     
  RESTRICTED_DOCC             => [ 2, 0, 0, 0, 0, 1, 1, 1 ] !
  RESTRICTED_UOCC             => [  ]                        
  RUN_CCTRANSORT              => TRUE                        
  R_CONVERGENCE               => 1e-10                      !
  SMALL_CUTOFF                => 0                           
  SOCC                        => [  ]                        
  TIKHONOW_MAX                => 5                           
  TIKHONOW_OMEGA              => 0                           
  TIKHONOW_TRIPLES            => FALSE                       
  TRIPLES_ALGORITHM           => RESTRICTED                  
  TRIPLES_DIIS                => FALSE                       
  UNITS                       => ANGSTROMS                   
  USE_SPIN_SYM                => TRUE                        
  USE_SPIN_SYMMETRY           => TRUE                        
  WFN                         => SCF                         
  WFN_SYM                     => B1G                        !
  WRITER_FILE_LABEL           => (empty)                     
  ZERO_INTERNAL_AMPS          => TRUE                        



  Heff Matrix

        -149.574344185779         0.023673417980
           0.023673417980      -149.574344185779

  Left Matrix

          -0.707106781187         0.707106781187
           0.707106781187         0.707106781187

  Right Matrix

          -0.707106781187         0.707106781187
           0.707106781187         0.707106781187

  Real                  Imaginary

       -149.598017603759           0.000000000000
       -149.550670767799           0.000000000000


  The eigenvalue for root 0 is -149.598017603759 (0.000000000000)

  Heff Matrix

     -149.574344185778841      0.023673417979716
        0.023673417979716   -149.574344185778841

  Most important determinants in the wave function

  determinant  eigenvector   eigenvector^2

            1    0.707107     0.500000  |[22][][+][-][][2][2][2]>
            0   -0.707107     0.500000  |[22][][-][+][][2][2][2]>

  ==============================================================================
  	Multireference Coupled Cluster
		Using the DPD Library
  ==============================================================================

  ------------------------------------------------------------------------------
  @CC Cycle      Energy          Delta E    ||DeltaT1|| ||DeltaT2|| Timing  DIIS
  @CC           (Hartree)       (Hartree)                           (Sec)
  ------------------------------------------------------------------------------
  @CC   0   -149.598017603759   0.0000e+00   0.000e+00   0.000e+00       0
  Tikhonow regularization turned on.  Omega = 0.000e+00   S
  @CC   1   -149.991228845864  -3.9321e-01   6.816e-02   4.685e-01       0
  Tikhonow regularization turned on.  Omega = 0.000e+00   S
  @CC   2   -149.951880190078   3.9349e-02   4.923e-02   1.256e-01       0
  Tikhonow regularization turned on.  Omega = 0.000e+00   S
  @CC   3   -149.973651898647  -2.1772e-02   1.286e-02   3.510e-02       0
  Tikhonow regularization turned on.  Omega = 0.000e+00   S
  @CC   4   -149.968824614341   4.8273e-03   5.869e-03   1.587e-02       0
  Tikhonow regularization turned on.  Omega = 0.000e+00   S
  @CC   5   -149.971100226931  -2.2756e-03   1.410e-03   5.062e-03       0   S
  @CC   6   -149.970586165249   5.1406e-04   7.456e-04   3.045e-03       0   S/E
  @CC   7   -149.970848035138  -2.6187e-04   1.577e-04   1.318e-03       0   S
  @CC   8   -149.970817469148   3.0566e-05   2.745e-05   9.444e-05       0   S
  @CC   9   -149.970820692067  -3.2229e-06   9.609e-06   3.459e-05       0   S
  @CC  10   -149.970816914053   3.7780e-06   1.803e-06   1.765e-05       0   S
  @CC  11   -149.970816625734   2.8832e-07   1.397e-06   9.599e-06       0   S
  @CC  12   -149.970815857000   7.6873e-07   4.284e-07   5.497e-06       0   S
  @CC  13   -149.970815619815   2.3718e-07   3.079e-07   3.171e-06       0   S/E
  @CC  14   -149.970815186847   4.3297e-07   1.277e-07   1.859e-06       0   S
  @CC  15   -149.970815192406  -5.5591e-09   2.333e-08   6.964e-08       0   S
  @CC  16   -149.970815193306  -8.9977e-10   7.104e-09   2.734e-08       0   S
  @CC  17   -149.970815192559   7.4670e-10   2.365e-09   1.352e-08       0   S
  @CC  18   -149.970815192578  -1.8986e-11   1.058e-09   7.458e-09       0   S
  @CC  19   -149.970815192441   1.3691e-10   5.067e-10   4.076e-09       0   S
  @CC  20   -149.970815192419   2.2226e-11   2.490e-10   2.311e-09       0   S/E
  @CC  21   -149.970815192359   5.9401e-11   1.284e-10   1.303e-09       0   S
  @CC  22   -149.970815192355   4.2064e-12   1.785e-11   6.251e-11       0
  ------------------------------------------------------------------------------

      * Mk-MRCCSD total energy      =    -149.970815192355


  Heff Matrix

     -149.950301400811441      0.020513791543737
        0.020513791543737   -149.950301400811441

  Most important determinants in the wave function

  determinant  eigenvector   eigenvector^2

            1    0.707107     0.500000  |[22][][+][-][][2][2][2]>
            0   -0.707107     0.500000  |[22][][-][+][][2][2][2]>

  Timing for singles and doubles:             0.230971 s

  PSIMRCC job completed.
  Wall Time =             0.274844 s
  GEMM Time =             0.020210 s

  ==============================================================================
  Memory Usage Report

  Maximum memory used:     14.8 Mb 
  Number of objects still in memory: 0       Current bytes used: 0             
  ==============================================================================

  //>>>>>>>>>>>>>>>>>>>>>>>>>>>>>>>>>>>//
  //    Loading displacement 5 of 5    //
  //<<<<<<<<<<<<<<<<<<<<<<<<<<<<<<<<<<<//

*** tstart() called on ds1.sherrill.chemistry.gatech.edu
*** at Mon Mar 14 15:32:16 2016


         ------------------------------------------
           MCSCF: a self-consistent field program
            written by Francesco A. Evangelista
         ------------------------------------------

  MOs per irrep:                  Ag  B1g  B2g  B3g  Au  B1u  B2u  B3u Total
  ----------------------------------------------------------------------------
  Total                            7    1    3    3    1    7    3    3    28
[...]
  Setting level shift to 0.000 S
  @SCF    3     -149.570086764443      -0.169855981542       0.013996573217
  Setting level shift to 0.000 S
  @SCF    4     -149.593546128614      -0.023459364171       0.004617568976
  Setting level shift to 0.000 S
  @SCF    5     -149.596454041091      -0.002907912478       0.001751249104
  Setting level shift to 0.000 S
  @SCF    6     -149.596829075395      -0.000375034304       0.000611324774
  Setting level shift to 0.000 S/E
  @SCF    7     -149.596876806609      -0.000047731214       0.000220246839
  Setting level shift to 0.000 S/E
  @SCF    8     -149.596883809566      -0.000007002957       0.000058841401
  Setting level shift to 0.000 S/E
  @SCF    9     -149.596883809607      -0.000000000041       0.000000172932
  Setting level shift to 0.000 S/E
  @SCF   10     -149.596883809607      -0.000000000000       0.000000010559
  Setting level shift to 0.000 S/E
  @SCF   11     -149.596883809607       0.000000000000       0.000000001282
  Setting level shift to 0.000 S/E
  @SCF   12     -149.596883809607       0.000000000000       0.000000000315
  Setting level shift to 0.000 S/E
  @SCF   13     -149.596883809607      -0.000000000000       0.000000000013
  Setting level shift to 0.000 S/E
  @SCF   14     -149.596883809607       0.000000000000       0.000000000001
  Setting level shift to 0.000 S/E
  @SCF   15     -149.596883809607      -0.000000000000       0.000000000000
  Setting level shift to 0.000 S/E
  @SCF   16     -149.596883809607       0.000000000000       0.000000000000
  =========================================================================================

      * SCF total energy   =    -149.596883809607


  End of SCF
  MOs orthonormality check passed.

  Orbitals are canonicalized as:
  inactive (docc + uocc) : Fock(core)
  active   (actv)        : Fock(core)

  =========================================================================
  Eigenvalues (Eh)
  -------------------------------------------------------------------------
  Doubly occupied orbitals
      1    -20.736006  Ag      2    -20.735208 B1u      3     -1.616180  Ag
      4     -1.113007 B1u      5     -0.716811  Ag      6     -0.684565 B3u
      7     -0.684565 B2u
  Active orbitals
      8     -0.225299 B3g      9     -0.225299 B2g
  Unoccupied orbitals
     10      0.409061 B1u     11      1.067876 B1u     12      1.111181 B2u
     13      1.111181 B3u     14      1.174938  Ag     15      1.215064 B3g
     16      1.215064 B2g     17      1.341943  Ag     18      1.944672 B1u
     19      2.411205 B2u     20      2.411205 B3u     21      2.708153 B1g
     22      2.708153  Ag     23      2.985606 B1u     24      2.985606  Au
     25      3.057480  Ag     26      3.599790 B2g     27      3.599790 B3g
     28      4.186828 B1u
  =========================================================================


  MCSCF Execution Completed.


*** tstop() called on ds1.sherrill.chemistry.gatech.edu at Mon Mar 14 15:32:16 2016
Module time:
	user time   =       0.05 seconds =       0.00 minutes
	system time =       0.00 seconds =       0.00 minutes
	total time  =          0 seconds =       0.00 minutes
Total time:
	user time   =       1.38 seconds =       0.02 minutes
	system time =       0.14 seconds =       0.00 minutes
	total time  =          2 seconds =       0.03 minutes

  MRCC          MRCC
   MRCC  MRCC  MRCC
   MRCC  MRCC  MRCC      PSIMRCC Version 0.9.3.3, July 2009
   MRCC  MRCC  MRCC      Multireference Coupled Cluster, written by
     MRCCMRCCMRCC        Francesco A. Evangelista and Andrew C. Simmonett
         MRCC            Compiled on Mar  4 2016 at 18:07:05
         MRCC            id = 6a707c99fd2213714c6c78cfcd145480721f0359 
       MRCCMRCC

  ==============================================================================
  System Info:
  ------------------------------------------------------------------------------
  Nuclear Energy   = 27.059906634     SCF Energy       = -149.596883810 

  MOs and Symmetry:
  ------------------------------------------------------------------------------
  nirreps          = 8                root             = 0         
  nso              = 28               nmo              = 28        
  nael             = 8                nbel             = 8         
  nactive_ael      = 1                nactive_bel      = 1         

  Details of the Computation:
  ------------------------------------------------------------------------------

  MOs per irrep:                    Ag  B1g  B2g  B3g  Au  B1u  B2u  B3u Total
  ------------------------------------------------------------------------------
  Total                              7    1    3    3    1    7    3    3    28
  Frozen Occupied                    1    0    0    0    0    1    0    0     2
  Doubly Occupied                    2    0    0    0    0    1    1    1     5
  Active                             0    0    1    1    0    0    0    0     2
  External                           4    1    2    2    1    5    2    2    19
  Frozen Virtual                     0    0    0    0    0    0    0    0     0

  Model space
  ------------------------------------------------------------------------------
   0  |[22][][-][+][][2][2][2]>
   1  |[22][][+][-][][2][2][2]>
  ==============================================================================

  Allocated work array of size 22504 (0.02 MiB)
  Allocated buffer array of size 12605120 (12.02 MiB)	Presorting SO-basis two-electron integrals.
	Sorting File: SO Ints (nn|nn) nbuckets = 1
	Transforming the one-electron integrals and constructing Fock matrices
	Starting first half-transformation.
	Sorting half-transformed integrals.
	First half integral transformation complete.
	Starting second half-transformation.
	Two-electron integral transformation complete.


  Presorting two-electron integrals from IWL buffer
    Memory available                       =      236931268 bytes
    Memory available for presorting        =      177698451 bytes (75.0%)
    Memory required for in-core presort    =          92072 bytes
    Presorting is not required
    Reading irreps 0 -> 7 (10442 non-zero integrals)

  Sorting integrals:
    Memory available                       =      236924996 bytes
    Memory available for sorting           =      118462498 bytes (50.0%)

    Pass 1:
    Setting up the matrix list: added 480 matrices blocks
    Integrals from irreps 0 -> 7 will be read in core

    Frozen-core energy                     =       -130.050174048

  Computing storage strategy:
    Input memory                           =      250000000 bytes
    Free memory                            =      236924996 bytes
    Free memory available for matrices     =      229817246 bytes ( 97%)
    Memory required by fock matrices       =           4048 bytes
    Memory required by integrals           =        1012232 bytes
    Memory required by other matrices      =        1470128 bytes
    Memory required for in-core algorithm  =        2486408 bytes
    PSIMRCC will perform a full in-core computation

  Options:
  ----------------------------------------------------------------------------
  ACTIVE                      => [ 0, 0, 1, 1, 0, 0, 0, 0 ] !
  BENCH                       => 0                           
  CC_NUM_THREADS              => 1                           
  CC_TYPE                     => CONV                        
  CI_TYPE                     => CONV                        
  CORR_ANSATZ                 => MK                          
  CORR_CCSD_T                 => STANDARD                    
  CORR_CHARGE                 => 0                           
  CORR_MULTP                  => 1                          !
  CORR_WFN                    => CCSD                       !
  COUPLING                    => CUBIC                       
  COUPLING_TERMS              => TRUE                        
  CUBEPROP_BASIS_FUNCTIONS    => [  ]                        
  CUBEPROP_FILEPATH           => .                           
  CUBEPROP_ORBITALS           => [  ]                        
  CUBEPROP_TASKS              => [  ]                        
  CUBIC_BASIS_TOLERANCE       => 1e-12                       
  CUBIC_BLOCK_MAX_POINTS      => 1000                        
  CUBIC_GRID_OVERAGE          => [  ]                        
  CUBIC_GRID_SPACING          => [  ]                        
  DAMPING_PERCENTAGE          => 0                           
  DEBUG                       => 0                           
  DERTYPE                     => NONE                        
  DF_BASIS_CC                 => (empty)                     
  DIAGONALIZE_HEFF            => FALSE                       
  DIAGONAL_CCSD_T             => TRUE                        
  DIE_IF_NOT_CONVERGED        => TRUE                        
  DIIS_MAX_VECS               => 7                           
  DIIS_START                  => 2                           
  DKH_ORDER                   => 2                           
  DOCC                        => [  ]                        
  EXTERNAL_POTENTIAL_SYMMETRY => FALSE                       
  E_CONVERGENCE               => 1e-10                      !
  FAVG_CCSD_T                 => FALSE                       
  FOLLOW_ROOT                 => 1                           
  FREEZE_CORE                 => FALSE                       
  FROZEN_DOCC                 => [ 1, 0, 0, 0, 0, 1, 0, 0 ] !
  FROZEN_UOCC                 => [ 0, 0, 0, 0, 0, 0, 0, 0 ] !
  HEFF4                       => TRUE                        
  HEFF_PRINT                  => FALSE                       
  INTEGRAL_PACKAGE            => ERD                         
  LITERAL_CFOUR               => (empty)                     
  LOCK_SINGLET                => FALSE                       
  MAT_NUM_COLUMN_PRINT        => 5                           
  MAXITER                     => 100                         
  MP2_CCSD_METHOD             => II                          
  MP2_GUESS                   => TRUE                        
  MP2_TYPE                    => DF                          
  MP_TYPE                     => CONV                        
  NO_SINGLES                  => FALSE                       
  NUM_FROZEN_DOCC             => 0                           
  NUM_FROZEN_UOCC             => 0                           
  OFFDIAGONAL_CCSD_T          => TRUE                        
  PCM                         => FALSE                       
  PCM_SCF_TYPE                => TOTAL                       
  PERTURB_CBS                 => FALSE                       
  PERTURB_CBS_COUPLING        => TRUE                        
  PRINT                       => 1                           
  PRINT_NOONS                 => 3                           
  PROPERTIES                  => [  ]                        
  PROPERTIES_ORIGIN           => [  ]                        
  PT_ENERGY                   => SECOND_ORDER                
  PUREAM                      => TRUE                        
  QC_MODULE                   => (empty)                     
  RAS1                        => [  ]                        
  RAS2                        => [  ]                        
  RAS3                        => [  ]                        
  RAS4                        => [  ]                        
  RELATIVISTIC                => NO                          
  REL_BASIS                   => (empty)                     
  RESTRICTED_DOCC             => [ 2, 0, 0, 0, 0, 1, 1, 1 ] !
  RESTRICTED_UOCC             => [  ]                        
  RUN_CCTRANSORT              => TRUE                        
  R_CONVERGENCE               => 1e-10                      !
  SMALL_CUTOFF                => 0                           
  SOCC                        => [  ]                        
  TIKHONOW_MAX                => 5                           
  TIKHONOW_OMEGA              => 0                           
  TIKHONOW_TRIPLES            => FALSE                       
  TRIPLES_ALGORITHM           => RESTRICTED                  
  TRIPLES_DIIS                => FALSE                       
  UNITS                       => ANGSTROMS                   
  USE_SPIN_SYM                => TRUE                        
  USE_SPIN_SYMMETRY           => TRUE                        
  WFN                         => SCF                         
  WFN_SYM                     => B1G                        !
  WRITER_FILE_LABEL           => (empty)                     
  ZERO_INTERNAL_AMPS          => TRUE                        



  Heff Matrix

        -149.573219371444         0.023664438163
           0.023664438163      -149.573219371444

  Left Matrix

          -0.707106781187         0.707106781187
           0.707106781187         0.707106781187

  Right Matrix

          -0.707106781187         0.707106781187
           0.707106781187         0.707106781187

  Real                  Imaginary

       -149.596883809607           0.000000000000
       -149.549554933281           0.000000000000


  The eigenvalue for root 0 is -149.596883809607 (0.000000000000)

  Heff Matrix

     -149.573219371444196      0.023664438163004
        0.023664438163004   -149.573219371444196

  Most important determinants in the wave function

  determinant  eigenvector   eigenvector^2

            1    0.707107     0.500000  |[22][][+][-][][2][2][2]>
            0   -0.707107     0.500000  |[22][][-][+][][2][2][2]>

  ==============================================================================
  	Multireference Coupled Cluster
		Using the DPD Library
  ==============================================================================

  ------------------------------------------------------------------------------
  @CC Cycle      Energy          Delta E    ||DeltaT1|| ||DeltaT2|| Timing  DIIS
  @CC           (Hartree)       (Hartree)                           (Sec)
  ------------------------------------------------------------------------------
  @CC   0   -149.596883809607   0.0000e+00   0.000e+00   0.000e+00       0
  Tikhonow regularization turned on.  Omega = 0.000e+00   S
  @CC   1   -149.991273279717  -3.9439e-01   6.832e-02   4.703e-01       0
  Tikhonow regularization turned on.  Omega = 0.000e+00   S
  @CC   2   -149.951151107561   4.0122e-02   4.976e-02   1.271e-01       0
  Tikhonow regularization turned on.  Omega = 0.000e+00   S
  @CC   3   -149.973333251679  -2.2182e-02   1.309e-02   3.579e-02       0
  Tikhonow regularization turned on.  Omega = 0.000e+00   S
  @CC   4   -149.968332275160   5.0010e-03   6.000e-03   1.623e-02       0
  Tikhonow regularization turned on.  Omega = 0.000e+00   S
  @CC   5   -149.970683719224  -2.3514e-03   1.456e-03   5.175e-03       0   S
  @CC   6   -149.970140996942   5.4272e-04   7.699e-04   3.120e-03       0   S/E
  @CC   7   -149.970412540228  -2.7154e-04   1.640e-04   1.345e-03       0   S
  @CC   8   -149.970381337327   3.1203e-05   2.803e-05   9.607e-05       0   S
  @CC   9   -149.970384716457  -3.3791e-06   9.783e-06   3.529e-05       0   S
  @CC  10   -149.970380814517   3.9019e-06   1.856e-06   1.802e-05       0   S
  @CC  11   -149.970380540582   2.7393e-07   1.435e-06   9.790e-06       0   S
  @CC  12   -149.970379746156   7.9443e-07   4.364e-07   5.613e-06       0   S
  @CC  13   -149.970379506662   2.3949e-07   3.167e-07   3.239e-06       0   S/E
  @CC  14   -149.970379061560   4.4510e-07   1.302e-07   1.902e-06       0   S
  @CC  15   -149.970379066872  -5.3116e-09   2.398e-08   7.204e-08       0   S
  @CC  16   -149.970379067915  -1.0433e-09   7.412e-09   2.840e-08       0   S
  @CC  17   -149.970379067082   8.3304e-10   2.426e-09   1.407e-08       0   S
  @CC  18   -149.970379067113  -3.0724e-11   1.091e-09   7.789e-09       0   S
  @CC  19   -149.970379066962   1.5120e-10   5.214e-10   4.265e-09       0   S
  @CC  20   -149.970379066939   2.2851e-11   2.571e-10   2.427e-09       0   S/E
  @CC  21   -149.970379066873   6.5484e-11   1.331e-10   1.372e-09       0   S
  @CC  22   -149.970379066869   4.3769e-12   1.889e-11   6.670e-11       0
  ------------------------------------------------------------------------------

      * Mk-MRCCSD total energy      =    -149.970379066869


  Heff Matrix

     -149.949912905869098      0.020466160999933
        0.020466160999933   -149.949912905869098

  Most important determinants in the wave function

  determinant  eigenvector   eigenvector^2

            0   -0.707107     0.500000  |[22][][-][+][][2][2][2]>
            1    0.707107     0.500000  |[22][][+][-][][2][2][2]>

  Timing for singles and doubles:             0.225783 s

  PSIMRCC job completed.
  Wall Time =             0.269386 s
  GEMM Time =             0.019860 s

  ==============================================================================
  Memory Usage Report

  Maximum memory used:     14.8 Mb 
  Number of objects still in memory: 0       Current bytes used: 0             
  ==============================================================================

-------------------------------------------------------------

  Computing second-derivative from energies using projected, 
  symmetry-adapted, cartesian coordinates (fd_freq_0).
	5 energies passed in, including the reference energy.
	Using 5-point formula.
	Energy without displacement: -149.9703790669
	Check energies below for precision!
	    1 :      -149.9699131934
	    2 :      -149.9701497943
	    3 :      -149.9706009028
	    4 :      -149.9708151924
	    5 :      -149.9703790669


	  Irrep      Harmonic Frequency   
	                  (cm-1)          
	-----------------------------------------------
	     Ag         1401.8119  
	-----------------------------------------------

	Normal Modes (mass-weighted).
	Molecular mass is   31.98983 amu.
	Frequencies in cm^-1; force constants in au.

   Frequency:       1401.81
   Force constant:   0.0744
	     X       Y       Z           mass	
  O 	   0.000   0.000   0.177      15.994915
  O 	   0.000   0.000  -0.177      15.994915

-------------------------------------------------------------

 #  #
 Irrep: 1
      1: 1401.8119024


            *********************************************
            * Thermodynamic Analysis by R.A. King, 2012 *
            *********************************************

    Full point group: D_inf_h (D_inf_h)

    Data used to determine thermochemical information:
    Temperature (K):          298.15
    Pressure (Pa)  :       101325.00
    Multiplicity   :               3
    Rotor type     :          LINEAR
    Rotational symmetry number :   2

    Rotational constants:
           wavenumbers          GHz

    Nuclear masses:
         15.994915 15.994915

    No.    Vib. Freq. (cm^-1)      Vib. Temp. (K)
      1              1401.812            2016.892

    Component        Thermal Energy             Cv              S
                           kcal/mol    cal/(mol K)    cal/(mol K) 
    Electronic                0.000          0.000          2.183
    Translational             0.889          2.981         36.321
    Rotational                0.592          1.987         10.619
    Vibrational               2.009          0.105          0.018
    Total                     3.490          5.073         49.141

                               cm^(-1)              au        kcal/mol
    Zero-point energy         700.9060      0.00319356          2.0040

    Energies in Hartree/particle:   Correction            Total
    Energy (0 K)                    0.00319356    -149.59369025
    Internal energy                 0.00556141    -149.59132240
    Enthalpy                        0.00650559    -149.59037822
    Gibbs Free Energy              -0.01684281    -149.61372662
	Frequency test:...................................................PASSED

*** PSI4 exiting successfully. Buy a developer a beer!
