    -----------------------------------------------------------------------
          PSI4: An Open-Source Ab Initio Electronic Structure Package
                              PSI 4.0.0-beta2+ Driver

               Git: Rev 9715478deee0c459e335866acd06335138663bca

    J. M. Turney, A. C. Simmonett, R. M. Parrish, E. G. Hohenstein,
    F. A. Evangelista, J. T. Fermann, B. J. Mintz, L. A. Burns, J. J. Wilke,
    M. L. Abrams, N. J. Russ, M. L. Leininger, C. L. Janssen, E. T. Seidl,
    W. D. Allen, H. F. Schaefer, R. A. King, E. F. Valeev, C. D. Sherrill,
    and T. D. Crawford, WIREs Comput. Mol. Sci., (2011) (doi: 10.1002/wcms.93)

                         Additional Contributions by
    A. E. DePrince, M. Saitow, U. Bozkaya, A. Yu. Sokolov
    -----------------------------------------------------------------------

    Process ID:  57406
    PSI4DATADIR: /Users/loriab/linux/psi4/objdir/../lib

    Using LocalCommunicator (Number of processes = 1)

    Memory level set to 256.000 MB

  ==> Input File <==

--------------------------------------------------------------------------
import qcdb

ref_nre = 268.617178206572646  #TEST
ref_geom = psi4.Matrix(16,3)
ref_geom.set(
      [[   0.710500000000,    -0.794637665924,    -1.230622098778],
       [   1.421000000000,    -0.794637665924,     0.000000000000],
       [   0.710500000000,    -0.794637665924,     1.230622098778],
       [  -0.710500000000,    -0.794637665924,     1.230622098778],
       [   1.254500000000,    -0.794637665924,    -2.172857738095],
       [  -1.254500000000,    -0.794637665924,     2.172857738095],
       [  -0.710500000000,    -0.794637665924,    -1.230622098778],
       [  -1.421000000000,    -0.794637665924,     0.000000000000],
       [   2.509000000000,    -0.794637665924,     0.000000000000],
       [   1.254500000000,    -0.794637665924,     2.172857738095],
       [  -1.254500000000,    -0.794637665924,    -2.172857738095],
       [  -2.509000000000,    -0.794637665924,     0.000000000000],
       [   0.000000000000,     3.205362334076,     0.000000000000],
       [   0.494974746831,     3.555362334076,    -0.857321409974],
       [   0.494974746831,     3.555362334076,     0.857321409974],
       [  -0.989949493661,     3.555362334076,     0.000000000000]])


memory 100 mb
set basis 6-31G*

banner('PSI4 Molecule Parsing')
molecule dimer {
1 1
# This part is just a normal Cartesian geometry specification for benzene
C          0.710500000000    -0.794637665924    -1.230622098778
C          1.421000000000    -0.794637665924     0.000000000000
C          0.710500000000    -0.794637665924     1.230622098778
C         -0.710500000000    -0.794637665924     1.230622098778
H          1.254500000000    -0.794637665924    -2.172857738095
H         -1.254500000000    -0.794637665924     2.172857738095
C         -0.710500000000    -0.794637665924    -1.230622098778
C         -1.421000000000    -0.794637665924     0.000000000000
H          2.509000000000    -0.794637665924     0.000000000000
H          1.254500000000    -0.794637665924     2.172857738095
H         -1.254500000000    -0.794637665924    -2.172857738095
H         -2.509000000000    -0.794637665924     0.000000000000
# And the hydronium part is specified using a zmatrix, referencing the benzene coordinates
X  1  CC  3  30   2  A2
O  13 R   1  90   2  90
H  14 OH  13 TDA  1  0
H  14 OH  15 TDA  13 A1
H  14 OH  15 TDA  13 -A1

CC    = 1.421
CH    = 1.088
A1    = 120.0
A2    = 180.0
OH    = 1.05
R     = 4.0
units angstrom
}

dimer.update_geometry()
dimer.print_out()
compare_values(ref_nre, dimer.nuclear_repulsion_energy(), 9, "PSI4: Nuclear repulsion energy")   #TEST
geom_now = dimer.geometry()
geom_now.scale(psi_bohr2angstroms)
compare_matrices(ref_geom, geom_now, 8, "PSI4: geometry and orientation")                        #TEST


banner('QCDB Molecule Parsing')
YYY = qcdb.Molecule("""
1 1
# This part is just a normal Cartesian geometry specification for benzene
C          0.710500000000    -0.794637665924    -1.230622098778
C          1.421000000000    -0.794637665924     0.000000000000
C          0.710500000000    -0.794637665924     1.230622098778
C         -0.710500000000    -0.794637665924     1.230622098778
H          1.254500000000    -0.794637665924    -2.172857738095
H         -1.254500000000    -0.794637665924     2.172857738095
C         -0.710500000000    -0.794637665924    -1.230622098778
C         -1.421000000000    -0.794637665924     0.000000000000
H          2.509000000000    -0.794637665924     0.000000000000
H          1.254500000000    -0.794637665924     2.172857738095
H         -1.254500000000    -0.794637665924    -2.172857738095
H         -2.509000000000    -0.794637665924     0.000000000000
# And the hydronium part is specified using a zmatrix, referencing the benzene coordinates
X  1  CC  3  30   2  A2
O  13 R   1  90   2  90
H  14 OH  13 TDA  1  0
H  14 OH  15 TDA  13 A1
H  14 OH  15 TDA  13 -A1

CC    = 1.421
CH    = 1.088
A1    = 120.0
A2    = 180.0
OH    = 1.05
R     = 4.0
units angstrom
""")

YYY.update_geometry()
compare_values(ref_nre, YYY.nuclear_repulsion_energy(), 9, "QCDB: Nuclear repulsion energy")   #TEST
#geom_now = psi4.Matrix(16,3)
geom_now.set(YYY.geometry())
geom_now.scale(psi_bohr2angstroms)
compare_matrices(ref_geom, geom_now, 8, "QCDB: geometry and orientation")                        #TEST

--------------------------------------------------------------------------

  Memory set to 100.000 MiB by Python script.
  //>>>>>>>>>>>>>>>>>>>>>>>>>>>>>>>>>>>//
  //       PSI4 Molecule Parsing       //
  //<<<<<<<<<<<<<<<<<<<<<<<<<<<<<<<<<<<//
    Molecular point group: cs
    Full point group: C3v

    Geometry (in Angstrom), charge = 1, multiplicity = 1:

       Center              X                  Y                   Z       
    ------------   -----------------  -----------------  -----------------
           C          0.710500000000    -0.794637665924    -1.230622098778
           C          1.421000000000    -0.794637665924     0.000000000000
           C          0.710500000000    -0.794637665924     1.230622098778
           C         -0.710500000000    -0.794637665924     1.230622098778
           H          1.254500000000    -0.794637665924    -2.172857738095
           H         -1.254500000000    -0.794637665924     2.172857738095
           C         -0.710500000000    -0.794637665924    -1.230622098778
           C         -1.421000000000    -0.794637665924     0.000000000000
           H          2.509000000000    -0.794637665924     0.000000000000
           H          1.254500000000    -0.794637665924     2.172857738095
           H         -1.254500000000    -0.794637665924    -2.172857738095
           H         -2.509000000000    -0.794637665924     0.000000000000
           O          0.000000000000     3.205362334076     0.000000000000
           H          0.494974746831     3.555362334076    -0.857321409974
           H          0.494974746831     3.555362334076     0.857321409974
           H         -0.989949493661     3.555362334076     0.000000000000

  //>>>>>>>>>>>>>>>>>>>>>>>>>>>>>>>>>>>//
  //       QCDB Molecule Parsing       //
  //<<<<<<<<<<<<<<<<<<<<<<<<<<<<<<<<<<<//

*** PSI4 exiting successfully. Buy a developer a beer!
