
    -----------------------------------------------------------------------
          Psi4: An Open-Source Ab Initio Electronic Structure Package
                               Psi4 1.1rc3.dev5 

                         Git: Rev {master} 3fbd859 


    R. M. Parrish, L. A. Burns, D. G. A. Smith, A. C. Simmonett,
    A. E. DePrince III, E. G. Hohenstein, U. Bozkaya, A. Yu. Sokolov,
    R. Di Remigio, R. M. Richard, J. F. Gonthier, A. M. James,
    H. R. McAlexander, A. Kumar, M. Saitow, X. Wang, B. P. Pritchard,
    P. Verma, H. F. Schaefer III, K. Patkowski, R. A. King, E. F. Valeev,
    F. A. Evangelista, J. M. Turney, T. D. Crawford, and C. D. Sherrill,
    J. Chem. Theory Comput. in press (2017).
    (doi: 10.1021/acs.jctc.7b00174)

    -----------------------------------------------------------------------


    Psi4 started on: Monday, 15 May 2017 03:34PM

    Process ID:  13006
    PSIDATADIR: /home/psilocaluser/gits/hrw-direct/objdir4/stage/usr/local/psi4/share/psi4
    Memory:     500.0 MiB
    Threads:    1
    
  ==> Input File <==

--------------------------------------------------------------------------
#! EOM-CC3/cc-pVTZ on H2O

molecule h2o {
  0 1
# H2O Re geom from Olsen et al., JCP 104, 8007 (1996)
  O 0.0  0.00000000 -0.00900000
  H 0.0 -1.51526300 -1.05889800
  H 0.0  1.51526300 -1.05889800
  units bohr
}

set {
  basis "cc-pVTZ"
  roots_per_irrep [0, 0, 1, 0]
}

energy('eom-cc3')
--------------------------------------------------------------------------

*** tstart() called on psinet
*** at Mon May 15 15:34:51 2017

   => Loading Basis Set <=

    Name: CC-PVTZ
    Role: ORBITAL
    Keyword: BASIS
    atoms 1   entry O          line   247 file /home/psilocaluser/gits/hrw-direct/objdir4/stage/usr/local/psi4/share/psi4/basis/cc-pvtz.gbs 
    atoms 2-3 entry H          line    20 file /home/psilocaluser/gits/hrw-direct/objdir4/stage/usr/local/psi4/share/psi4/basis/cc-pvtz.gbs 


         ---------------------------------------------------------
                                   SCF
            by Justin Turney, Rob Parrish, and Andy Simmonett
                              RHF Reference
                        1 Threads,    500 MiB Core
         ---------------------------------------------------------

  ==> Geometry <==

    Molecular point group: c2v
    Full point group: C2v

    Geometry (in Bohr), charge = 0, multiplicity = 1:

       Center              X                  Y                   Z               Mass       
    ------------   -----------------  -----------------  -----------------  -----------------
           O          0.000000000000     0.000000000000     0.117499201619    15.994914619560
           H          0.000000000000    -1.515263000000    -0.932398798381     1.007825032070
           H         -0.000000000000     1.515263000000    -0.932398798381     1.007825032070

  Running in c2v symmetry.

  Rotational constants: A =     30.50916  B =     13.00778  C =      9.11958 [cm^-1]
  Rotational constants: A = 914641.67040  B = 389963.32063  C = 273398.23581 [MHz]
  Nuclear repulsion =    9.009354229662666

  Charge       = 0
  Multiplicity = 1
  Electrons    = 10
  Nalpha       = 5
  Nbeta        = 5

  ==> Algorithm <==

  SCF Algorithm Type is PK.
  DIIS enabled.
  MOM disabled.
  Fractional occupation disabled.
  Guess Type is SAD.
  Energy threshold   = 1.00e-08
  Density threshold  = 1.00e-08
  Integral threshold = 0.00e+00

  ==> Primary Basis <==

  Basis Set: CC-PVTZ
    Blend: CC-PVTZ
    Number of shells: 22
    Number of basis function: 58
    Number of Cartesian functions: 65
    Spherical Harmonics?: true
    Max angular momentum: 3

  ==> Pre-Iterations <==

   -------------------------------------------------------
    Irrep   Nso     Nmo     Nalpha   Nbeta   Ndocc  Nsocc
   -------------------------------------------------------
     A1        23      23       0       0       0       0
     A2         7       7       0       0       0       0
     B1        11      11       0       0       0       0
     B2        17      17       0       0       0       0
   -------------------------------------------------------
    Total      58      58       5       5       5       0
   -------------------------------------------------------

  ==> Integral Setup <==

  Using in-core PK algorithm.
   Calculation information:
      Number of atoms:                   3
      Number of AO shells:              22
      Number of primitives:             42
      Number of atomic orbitals:        65
      Number of basis functions:        58

      Integral cutoff                 1.00e-12
      Number of threads:                 1

  Performing in-core PK
  Using 2929232 doubles for integral storage.
  We computed 32131 shell quartets total.
  Whereas there are 32131 unique shell quartets.
  ==> DiskJK: Disk-Based J/K Matrices <==

    J tasked:                  Yes
    K tasked:                  Yes
    wK tasked:                  No
    Memory (MB):               375
    Schwarz Cutoff:          1E-12

    OpenMP threads:              1
  Minimum eigenvalue in the overlap matrix is 2.5859987910E-03.
  Using Symmetric Orthogonalization.

  SCF Guess: Superposition of Atomic Densities via on-the-fly atomic UHF.

  ==> Iterations <==

                        Total Energy        Delta E     RMS |[F,P]|

   @RHF iter   0:   -75.86919676257928   -7.58692e+01   5.17182e-02 
   @RHF iter   1:   -76.02591340294912   -1.56717e-01   8.57685e-03 
   @RHF iter   2:   -76.04674656394026   -2.08332e-02   5.00109e-03 DIIS
   @RHF iter   3:   -76.05422394303842   -7.47738e-03   5.16520e-04 DIIS
   @RHF iter   4:   -76.05441084767729   -1.86905e-04   1.51928e-04 DIIS
   @RHF iter   5:   -76.05443501762272   -2.41699e-05   3.80845e-05 DIIS
   @RHF iter   6:   -76.05443722182255   -2.20420e-06   7.69698e-06 DIIS
   @RHF iter   7:   -76.05443731244634   -9.06238e-08   9.32880e-07 DIIS
   @RHF iter   8:   -76.05443731345918   -1.01284e-09   7.13034e-08 DIIS
   @RHF iter   9:   -76.05443731346293   -3.75167e-12   1.10084e-08 DIIS
   @RHF iter  10:   -76.05443731346303   -9.94760e-14   2.22551e-09 DIIS

  ==> Post-Iterations <==

    Orbital Energies (a.u.)
    -----------------------

    Doubly Occupied:                                                      

       1A1   -20.554691     2A1    -1.332053     1B2    -0.710515  
       3A1    -0.562421     1B1    -0.500873  

    Virtual:                                                              

       4A1     0.141065     2B2     0.201193     3B2     0.547919  
       5A1     0.569034     6A1     0.677906     2B1     0.788425  
       4B2     0.800995     7A1     0.832376     1A2     0.844910  
       3B1     0.978659     8A1     1.138830     5B2     1.169232  
       9A1     1.525849     6B2     1.526356     4B1     1.999830  
       2A2     2.072522     7B2     2.084160    10A1     2.139946  
      11A1     2.246522    12A1     2.635187     8B2     2.927357  
       5B1     3.406029    13A1     3.508375     3A2     3.522755  
       9B2     3.590268     6B1     3.792529    10B2     3.867332  
      14A1     3.876533     4A2     3.932747     7B1     4.034153  
      11B2     4.089875    15A1     4.157930     5A2     4.323317  
      16A1     4.424550    12B2     4.441704     8B1     4.671023  
      13B2     4.829504    17A1     5.050498    18A1     5.249272  
      14B2     5.548362     9B1     5.978481    19A1     6.396945  
      10B1     6.894361     6A2     6.915304    20A1     6.961890  
      11B1     6.988849    21A1     7.111576    15B2     7.132524  
       7A2     7.181763    22A1     7.490992    16B2     7.707261  
      17B2     8.168792    23A1    12.614541  

    Final Occupation by Irrep:
             A1    A2    B1    B2 
    DOCC [     3,    0,    1,    1 ]

  Energy converged.

  @RHF Final Energy:   -76.05443731346303

   => Energetics <=

    Nuclear Repulsion Energy =              9.0093542296626659
    One-Electron Energy =                -122.8064782102997441
    Two-Electron Energy =                  37.7426866671740484
    DFT Exchange-Correlation Energy =       0.0000000000000000
    Empirical Dispersion Energy =           0.0000000000000000
    PCM Polarization Energy =               0.0000000000000000
    EFP Energy =                            0.0000000000000000
    Total Energy =                        -76.0544373134630405



Properties will be evaluated at   0.000000,   0.000000,   0.000000 Bohr

Properties computed using the SCF density matrix

  Nuclear Dipole Moment: (a.u.)
     X:     0.0000      Y:     0.0000      Z:    -0.9248

  Electronic Dipole Moment: (a.u.)
     X:     0.0000      Y:     0.0000      Z:     0.1620

  Dipole Moment: (a.u.)
     X:     0.0000      Y:     0.0000      Z:    -0.7628     Total:     0.7628

  Dipole Moment: (Debye)
     X:     0.0000      Y:     0.0000      Z:    -1.9387     Total:     1.9387


*** tstop() called on psinet at Mon May 15 15:34:52 2017
Module time:
	user time   =       0.65 seconds =       0.01 minutes
	system time =       0.03 seconds =       0.00 minutes
	total time  =          1 seconds =       0.02 minutes
Total time:
	user time   =       0.65 seconds =       0.01 minutes
	system time =       0.03 seconds =       0.00 minutes
	total time  =          1 seconds =       0.02 minutes
 MINTS: Wrapper to libmints.
   by Justin Turney

   Calculation information:
      Number of threads:                 1
      Number of atoms:                   3
      Number of AO shells:              22
      Number of SO shells:              16
      Number of primitives:             42
      Number of atomic orbitals:        65
      Number of basis functions:        58

      Number of irreps:                  4
      Integral cutoff                 0.00e+00
      Number of functions per irrep: [  23    7   11   17 ]

 OEINTS: Overlap, kinetic, potential, dipole, and quadrupole integrals
         stored in file 35.

      Computing two-electron integrals...done
      Computed 362089 non-zero two-electron integrals.
        Stored in file 33.


*** tstart() called on psinet
*** at Mon May 15 15:34:52 2017


	Wfn Parameters:
	--------------------
	Wavefunction         = CC3
	Number of irreps     = 4
	Number of MOs        = 58
	Number of active MOs = 58
	AO-Basis             = NONE
	Semicanonical        = false
	Reference            = RHF
	Print Level          = 1

	IRREP	# MOs	# FZDC	# DOCC	# SOCC	# VIRT	# FZVR
	-----	-----	------	------	------	------	------
	 A1	   23	    0	    3	    0	    20	    0
	 A2	   7	    0	    0	    0	    7	    0
	 B1	   11	    0	    1	    0	    10	    0
	 B2	   17	    0	    1	    0	    16	    0
	Transforming integrals...
	IWL integrals will be deleted.
	(OO|OO)...
	Presorting SO-basis two-electron integrals.
	Sorting File: SO Ints (nn|nn) nbuckets = 1
	Transforming the one-electron integrals and constructing Fock matrices
	Starting first half-transformation.
	Sorting half-transformed integrals.
	First half integral transformation complete.
	Starting second half-transformation.
	Two-electron integral transformation complete.
	(OO|OV)...
	Starting second half-transformation.
	Two-electron integral transformation complete.
	(OO|VV)...
	Starting second half-transformation.
	Two-electron integral transformation complete.
	(OV|OO)...
	Starting first half-transformation.
	Sorting half-transformed integrals.
	First half integral transformation complete.
	Starting second half-transformation.
	Two-electron integral transformation complete.
	(OV|OV)...
	Starting second half-transformation.
	Two-electron integral transformation complete.
	(OV|VV)...
	Starting second half-transformation.
	Two-electron integral transformation complete.
	(VV|OO)...
	Starting first half-transformation.
	Sorting half-transformed integrals.
	First half integral transformation complete.
	Starting second half-transformation.
	Two-electron integral transformation complete.
	(VV|OV)...
	Starting second half-transformation.
	Two-electron integral transformation complete.
	(VV|VV)...
	Starting second half-transformation.
	Two-electron integral transformation complete.
	Frozen core energy     =      0.00000000000000

	Size of irrep 0 of <ab|cd> integrals:      0.648 (MW) /      5.184 (MB)
	Size of irrep 1 of <ab|cd> integrals:      0.360 (MW) /      2.880 (MB)
	Size of irrep 2 of <ab|cd> integrals:      0.389 (MW) /      3.115 (MB)
	Size of irrep 3 of <ab|cd> integrals:      0.608 (MW) /      4.867 (MB)
	Total:                                     2.006 (MW) /     16.046 (MB)

	Size of irrep 0 of <ia|bc> integrals:      0.069 (MW) /      0.554 (MB)
	Size of irrep 1 of <ia|bc> integrals:      0.028 (MW) /      0.226 (MB)
	Size of irrep 2 of <ia|bc> integrals:      0.036 (MW) /      0.285 (MB)
	Size of irrep 3 of <ia|bc> integrals:      0.059 (MW) /      0.468 (MB)
	Total:                                     0.191 (MW) /      1.532 (MB)

	Size of irrep 0 of tijab amplitudes:       0.009 (MW) /      0.071 (MB)
	Size of irrep 1 of tijab amplitudes:       0.001 (MW) /      0.010 (MB)
	Size of irrep 2 of tijab amplitudes:       0.004 (MW) /      0.030 (MB)
	Size of irrep 3 of tijab amplitudes:       0.005 (MW) /      0.037 (MB)
	Total:                                     0.018 (MW) /      0.148 (MB)

	Nuclear Rep. energy          =      9.00935422966267
	SCF energy                   =    -76.05443731346303
	One-electron energy          =   -122.80647806829835
	Two-electron energy          =     37.74268652517269
	Reference energy             =    -76.05443731346300

*** tstop() called on psinet at Mon May 15 15:34:52 2017
Module time:
	user time   =       0.23 seconds =       0.00 minutes
	system time =       0.15 seconds =       0.00 minutes
	total time  =          0 seconds =       0.00 minutes
Total time:
	user time   =       1.00 seconds =       0.02 minutes
	system time =       0.19 seconds =       0.00 minutes
	total time  =          1 seconds =       0.02 minutes

*** tstart() called on psinet
*** at Mon May 15 15:34:52 2017

            **************************
            *                        *
            *        CCENERGY        *
            *                        *
            **************************

    Nuclear Rep. energy (wfn)     =    9.009354229662666
    SCF energy          (wfn)     =  -76.054437313463026
    Reference energy    (file100) =  -76.054437313462998

    Input parameters:
    -----------------
    Wave function   =     CC3
    Reference wfn   =     RHF
    Brueckner       =     No
    Memory (Mbytes) =     524.3
    Maxiter         =     50
    R_Convergence   =     1.0e-07
    E_Convergence   =     1.0e-06
    Restart         =     Yes
    DIIS            =     Yes
    AO Basis        =     NONE
    ABCD            =     NEW
    Cache Level     =     2
    Cache Type      =     LOW
    Print Level     =     1
    Num. of threads =     1
    # Amps to Print =     10
    Print MP2 Amps? =     No
    Analyze T2 Amps =     No
    Print Pair Ener =     No
    Local CC        =     No
    T3 Ws incore    =     No
    SCS-MP2         =     False
    SCSN-MP2        =     False
    SCS-CCSD        =     False

MP2 correlation energy -0.2758350535710778
                Solving CC Amplitude Equations
                ------------------------------
  Iter             Energy              RMS        T1Diag      D1Diag    New D1Diag    D2Diag
  ----     ---------------------    ---------   ----------  ----------  ----------   --------
     0        -0.275835053571077    0.000e+00    0.000000    0.000000    0.000000    0.117056
     1        -0.284194342295744    2.916e-02    0.004406    0.008041    0.008041    0.125326
     2        -0.289394065784020    1.031e-02    0.005096    0.009416    0.009416    0.130919
     3        -0.289651484844096    2.694e-03    0.005531    0.010486    0.010486    0.132163
     4        -0.289681269022568    7.302e-04    0.005595    0.010758    0.010758    0.132420
     5        -0.289694266393482    2.079e-04    0.005617    0.010893    0.010893    0.132436
     6        -0.289692050184867    7.001e-05    0.005624    0.010944    0.010944    0.132427
     7        -0.289692055658294    2.234e-05    0.005628    0.010968    0.010968    0.132426
     8        -0.289691638733677    4.124e-06    0.005629    0.010970    0.010970    0.132425
     9        -0.289691586089557    1.121e-06    0.005629    0.010971    0.010971    0.132425
    10        -0.289691608492813    2.606e-07    0.005629    0.010971    0.010971    0.132425
    11        -0.289691607071927    6.247e-08    0.005629    0.010971    0.010971    0.132425

    Iterations converged.


    Largest TIA Amplitudes:
              3  27        -0.0068849973
              2   0        -0.0063232782
              4  41         0.0053297330
              3  28        -0.0043934645
              2   3         0.0041740308
              2   5        -0.0040037993
              1   2         0.0038552445
              2   2        -0.0037971301
              4  46         0.0036633872
              2  11         0.0035898243

    Largest TIjAb Amplitudes:
      3   3  27  27        -0.0499894564
      2   2   2   2        -0.0326014544
      4   4   1   1        -0.0291682375
      2   3   2  27        -0.0283326678
      3   2  27   2        -0.0283326678
      4   4  38  38        -0.0281223939
      2   2  38  38        -0.0235715578
      3   4  27  39        -0.0232682921
      4   3  39  27        -0.0232682921
      4   4  39  39        -0.0232373445

    SCF energy       (wfn)                    =  -76.054437313463026
    Reference energy (file100)                =  -76.054437313462998

    Opposite-spin MP2 correlation energy      =   -0.209130957063002
    Same-spin MP2 correlation energy          =   -0.066704096508075
    MP2 correlation energy                    =   -0.275835053571078
      * MP2 total energy                      =  -76.330272367034070
    CC3 correlation energy                    =   -0.289691607071927
      * CC3 total energy                      =  -76.344128920534928


*** tstop() called on psinet at Mon May 15 15:34:57 2017
Module time:
	user time   =       3.30 seconds =       0.06 minutes
	system time =       0.95 seconds =       0.02 minutes
	total time  =          5 seconds =       0.08 minutes
Total time:
	user time   =       4.30 seconds =       0.07 minutes
	system time =       1.14 seconds =       0.02 minutes
	total time  =          6 seconds =       0.10 minutes

*** tstart() called on psinet
*** at Mon May 15 15:34:57 2017


			**************************
			*                        *
			*         CCHBAR         *
			*                        *
			**************************

Dots of (HeT1)c in names "CC3 Wxxx" in CC3_HET1 
<WAmEf (Am,Ef) | WAmEf (Am,Ef)> =   11.4550009954
<WMnIe (Mn,Ie) | WMnIe (Mn,Ie)> =    3.5330094137
<WMnIj (Mn,Ij) | WMnIj (Mn,Ij)> =   38.6161220090
<WMbIj (Ij,Mb) | WMbIj (Ij,Mb)> =    3.5598235794
<WMbIj (Mb,Ij) | WMbIj (Mb,Ij)> =    3.5598235794
<WMbEj (ME,jb) | WMbEj (ME,jb)> =    1.7094466761
<WMbeJ (Me,Jb) | WMbeJ (Me,Jb)> =  113.7063701750
<WAbEi (Ie,bA) | WAbEi (Ie,bA)> =   11.5303140743

*** tstop() called on psinet at Mon May 15 15:34:57 2017
Module time:
	user time   =       0.03 seconds =       0.00 minutes
	system time =       0.04 seconds =       0.00 minutes
	total time  =          0 seconds =       0.00 minutes
Total time:
	user time   =       4.33 seconds =       0.07 minutes
	system time =       1.18 seconds =       0.02 minutes
	total time  =          6 seconds =       0.10 minutes

*** tstart() called on psinet
*** at Mon May 15 15:34:57 2017


	**********************************************************
	*  CCEOM: An Equation of Motion Coupled Cluster Program  *
	**********************************************************

	Nuclear Rep. energy (wfn)     =    9.009354229662666
	SCF energy          (wfn)     =  -76.054437313463026
	Reference energy    (file100) =  -76.054437313462998
	CC3 energy          (file100) =   -0.289691607071927

	Input parameters:
	-----------------
	Reference wfn   =     RHF
	Reference EOM wfn=     RHF
	Memory (Mbytes) =  524.3
	ABCD            =     NEW
	Cache Level     =    2
	Cache Type      =     LRU
	T3 Ws incore  =      No
	Num. of threads =     1
	Local CC        =     No


	CCEOM parameters:
	-----------------
	States sought per irrep     = A1 0, A2 0, B1 1, B2 0,
	Max. number of iterations   =    80
	Vectors stored per root     =    12
	Print HbarSS iterations?    =     0
	Excitation range for HBarSS =     2
	Eigenvalue tolerance        = 1.0e-06
	Eigenvalue toleranceSS      = 1.0e-06
	Residual vector tolerance   = 1.0e-06
	Residual vector toleranceSS = 1.0e-06
	Complex tolerance           = 1.0e-12
	Root for properties         =     1
	Sym of state for properties =     B1
	Guess vectors taken from    = SINGLES
	Restart EOM CC3             = NO
	Collapse with last vector   = YES


Symmetry of ground state: A1
Symmetry of excited state: B1
Symmetry of right eigenvector: B1
Seeking states with multiplicity of 1
Obtaining initial guess from singles-singles block of Hbar...Done.

Iter=1    L=1     Root    EOM Energy     Delta E   Res. Norm    Conv?
                     1   0.4167468680   4.17e-01    5.57e-01      N
Iter=2    L=2     Root    EOM Energy     Delta E   Res. Norm    Conv?
                     1   0.2982708163  -1.18e-01    8.87e-02      N
Iter=3    L=3     Root    EOM Energy     Delta E   Res. Norm    Conv?
                     1   0.2959659054  -2.30e-03    2.40e-02      N
Iter=4    L=4     Root    EOM Energy     Delta E   Res. Norm    Conv?
                     1   0.2958576020  -1.08e-04    7.63e-03      N
Iter=5    L=5     Root    EOM Energy     Delta E   Res. Norm    Conv?
                     1   0.2958527923  -4.81e-06    1.85e-03      N
Iter=6    L=6     Root    EOM Energy     Delta E   Res. Norm    Conv?
                     1   0.2958533161   5.24e-07    6.71e-04      N
Iter=7    L=7     Root    EOM Energy     Delta E   Res. Norm    Conv?
                     1   0.2958537796   4.64e-07    2.57e-04      N
Iter=8    L=8     Root    EOM Energy     Delta E   Res. Norm    Conv?
                     1   0.2958543006   5.21e-07    6.99e-05      N
Iter=9    L=9     Root    EOM Energy     Delta E   Res. Norm    Conv?
                     1   0.2958540107  -2.90e-07    1.98e-05      N
Iter=10   L=10    Root    EOM Energy     Delta E   Res. Norm    Conv?
                     1   0.2958540870   7.63e-08    5.71e-06      N
Iter=11   L=11    Root    EOM Energy     Delta E   Res. Norm    Conv?
                     1   0.2958540919   4.97e-09    1.36e-06      N
Iter=12   L=12    Root    EOM Energy     Delta E   Res. Norm    Conv?
                     1   0.2958540945   2.52e-09    3.56e-07      Y
Iter=13   L=2     Root    EOM Energy     Delta E   Res. Norm    Conv?
                     1   0.2958540945   1.29e-13    3.56e-07      Y
Completed EOM_CCSD
Collapsing to only 1 vector(s).
Copying root 1 to CC3_MISC file.
Setting initial CC3 eigenvalue to    0.2958540945
Iter=1    L=1     Root    EOM Energy     Delta E   Res. Norm    Conv?
                     1   0.2934866845  -2.37e-03    4.89e-02      N
Iter=2    L=2     Root    EOM Energy     Delta E   Res. Norm    Conv?
                     1   0.2921146019  -1.37e-03    1.39e-02      N
Iter=3    L=3     Root    EOM Energy     Delta E   Res. Norm    Conv?
                     1   0.2921684749   5.39e-05    3.64e-03      N
Iter=4    L=4     Root    EOM Energy     Delta E   Res. Norm    Conv?
                     1   0.2921507853  -1.77e-05    1.14e-03      N
Iter=5    L=5     Root    EOM Energy     Delta E   Res. Norm    Conv?
                     1   0.2921471299  -3.66e-06    3.19e-04      N
Iter=6    L=6     Root    EOM Energy     Delta E   Res. Norm    Conv?
                     1   0.2921485000   1.37e-06    8.65e-05      N
Iter=7    L=7     Root    EOM Energy     Delta E   Res. Norm    Conv?
                     1   0.2921486607   1.61e-07    2.92e-05      N
Iter=8    L=8     Root    EOM Energy     Delta E   Res. Norm    Conv?
                     1   0.2921486168  -4.39e-08    7.44e-06      N
Iter=9    L=9     Root    EOM Energy     Delta E   Res. Norm    Conv?
                     1   0.2921486277   1.10e-08    2.13e-06      N
Iter=10   L=10    Root    EOM Energy     Delta E   Res. Norm    Conv?
                     1   0.2921486311   3.41e-09    7.50e-07      Y
Collapsing to 2 vector(s).
Change in CC3 energy from last iterated value   -0.0037054633
Iter=11   L=2     Root    EOM Energy     Delta E   Res. Norm    Conv?
                     1   0.2921457717  -2.86e-06    5.74e-05      N
Iter=12   L=3     Root    EOM Energy     Delta E   Res. Norm    Conv?
                     1   0.2921454284  -3.43e-07    1.85e-05      N
Iter=13   L=4     Root    EOM Energy     Delta E   Res. Norm    Conv?
                     1   0.2921452358  -1.93e-07    4.78e-06      N
Iter=14   L=5     Root    EOM Energy     Delta E   Res. Norm    Conv?
                     1   0.2921452588   2.30e-08    1.49e-06      N
Iter=15   L=6     Root    EOM Energy     Delta E   Res. Norm    Conv?
                     1   0.2921452615   2.71e-09    4.55e-07      Y
Forcing restart to make sure new sigma vectors give same eigenvalue.
Collapsing to only 1 vector(s).
Change in CC3 energy from last iterated value   -0.0000033696
Setting old CC3 eigenvalue to    0.2921452615
Iter=16   L=1     Root    EOM Energy     Delta E   Res. Norm    Conv?
                     1   0.2921452584  -3.06e-09    4.60e-07      Y
Collapsing to only 1 vector(s).
Change in CC3 energy from last iterated value   -0.0000000031

Procedure converged for 1 root(s).
Energy written to CC_INFO:Etot  -76.0519836621
States per irrep written to CC_INFO.
EOM CC3 R0 for root 0 =   0.00000000000

Final Energetic Summary for Converged Roots of Irrep B1
                     Excitation Energy              Total Energy
                (eV)     (cm^-1)     (au)             (au)
EOM State 1      7.950    64118.5   0.2921452584   -76.051983662088

Largest components of excited wave function #1:
 RIA (libdpd indices) : (cscf notation)
         0 >   0      :       1b1 >    4a1 :    0.6714703701
         0 >   1      :       1b1 >    5a1 :   -0.0981472158
         0 >   2      :       1b1 >    6a1 :    0.0587842837
         0 >   3      :       1b1 >    7a1 :   -0.0247616593
         0 >   4      :       1b1 >    8a1 :   -0.0246210996
 RIjAb (libdpd indices)     : (cscf notation)
        0   0 >   0   0     :    1b1    1b1 >    4a1    2b1 :    0.0759932240
        0   0 >   0   0     :    1b1    1b1 >    2b1    4a1 :    0.0759932240
        0   0 >   0   0     :    1b1    1b2 >    4a1    2b2 :    0.0548457579
        0   0 >   0   0     :    1b2    1b1 >    2b2    4a1 :    0.0548457579
        2   0 >   2   0     :    3a1    1b1 >    6a1    4a1 :    0.0513307087

	Putting into environment energy for root of R irrep 3 and root 1.
	Putting into environment CURRENT ENERGY:              -76.0519836621

	Total # of sigma evaluations: 29

*** tstop() called on psinet at Mon May 15 15:35:13 2017
Module time:
	user time   =      13.55 seconds =       0.23 minutes
	system time =       2.55 seconds =       0.04 minutes
	total time  =         16 seconds =       0.27 minutes
Total time:
	user time   =      17.88 seconds =       0.30 minutes
	system time =       3.73 seconds =       0.06 minutes
	total time  =         22 seconds =       0.37 minutes

*** Psi4 exiting successfully. Buy a developer a beer!
