    -----------------------------------------------------------------------
          PSI4: An Open-Source Ab Initio Electronic Structure Package
                              PSI 4.0.0-beta4+ Driver

               Git: Rev {c4} ef7097b1d82a7804b2d78ad28247f837c1527697

    J. M. Turney, A. C. Simmonett, R. M. Parrish, E. G. Hohenstein,
    F. A. Evangelista, J. T. Fermann, B. J. Mintz, L. A. Burns, J. J. Wilke,
    M. L. Abrams, N. J. Russ, M. L. Leininger, C. L. Janssen, E. T. Seidl,
    W. D. Allen, H. F. Schaefer, R. A. King, E. F. Valeev, C. D. Sherrill,
    and T. D. Crawford, WIREs Comput. Mol. Sci., (2011) (doi: 10.1002/wcms.93)

                         Additional Contributions by
    A. E. DePrince, M. Saitow, U. Bozkaya, A. Yu. Sokolov
    -----------------------------------------------------------------------

    Process ID:  18208
    PSI4DATADIR: /theoryfs2/ds/loriab/chem/psi4_trials/c4/psi4/lib

    Using LocalCommunicator (Number of processes = 1)

    Memory level set to 256.000 MB

  ==> Input File <==

--------------------------------------------------------------------------
#! optimization HF/svp on water

print '        <<< Literal ZMAT to Cfour >>>'

cfour {
Geometry optimization of H2O at HF-SCF level
O
H 1 R*
H 1 R* 2 A*

R=0.958
A=104.5

*ACES2(CALC=HF,BASIS=svp
CONV=10
SCF_CONV=14)
}

energy('cfour')

compare_values(9.3126203356, get_variable('NUCLEAR REPULSION ENERGY'), 6, 'NRE')  #TEST
compare_values(-75.96133851112, get_variable('current energy'), 6, 'SCF')  #TEST


clean()
clean_variables()
cfour {}  # clear literal block since running sequentially

print '        <<< Translation of ZMAT to Psi4 format to Cfour >>>'

memory 200 mb

molecule {
O
H 1 R
H 1 R 2 A

R=0.958
A=104.5
}

set {
cfour_calc_level hf
cfour_basis svp
cfour_convergence 10
cfour_scf_conv 12
}

optimize('cfour')

compare_values(9.3126203356, get_variable('NUCLEAR REPULSION ENERGY'), 3, 'NRE')  #TEST
compare_values(-75.96133851112, get_variable('current energy'), 6, 'SCF')  #TEST

--------------------------------------------------------------------------

  GENBAS loaded from /theoryfs2/ds/cdsgroup/scripts/bin/GENBAS
  CFOUR to be run from /scratch/loriab//psi.18208..cfour.24097
 --invoking executable xjoda


   *************************************************************************
         <<<     CCCCCC     CCCCCC   |||     CCCCCC     CCCCCC   >>>
       <<<      CCC        CCC       |||    CCC        CCC         >>>
      <<<      CCC        CCC        |||   CCC        CCC            >>>
    <<<        CCC        CCC        |||   CCC        CCC              >>>
      <<<      CCC        CCC        |||   CCC        CCC            >>>
       <<<      CCC        CCC       |||    CCC        CCC         >>>
         <<<     CCCCCC     CCCCCC   |||     CCCCCC     CCCCCC   >>>
   *************************************************************************

     ****************************************************************
     * CFOUR Coupled-Cluster techniques for Computational Chemistry *
     ****************************************************************
 

   Department of Chemistry                Institut fuer Physikalische Chemie
   University of Texas at Austin          Universitaet Mainz
   Austin, TX  48792, USA                 D-55099 Mainz, Germany
 
                       version 1.2
 
                     john3                                             
                     Mon Oct 14 02:53:00 EDT 2013                      
                     integer*8 version is running
 
    -------------------------------------------------------------------
                    Input from ZMAT file
    -------------------------------------------------------------------
 
                                                                                
 Geometry optimization of H2O at HF-SCF level                                   
 O                                                                              
 H 1 R*                                                                         
 H 1 R* 2 A*                                                                    
                                                                                
 R=0.958                                                                        
 A=104.5                                                                        
                                                                                
 *ACES2(CALC=HF,BASIS=svp                                                       
 CONV=10                                                                        
 SCF_CONV=14)                                                                   
                                                                                
 
    -------------------------------------------------------------------
                    CFOUR Control Parameters 
    -------------------------------------------------------------------
        External           Internal           Value            Units
          Name               Name
    -------------------------------------------------------------------
       PRINT                IPRNT               0               ***   
       CALCLEVEL            ICLLVL           SCF        [  0]   ***   
       DERIV_LEV            IDRLVL            FIRST     [  1]   ***   
       CC_CONV              ICCCNV          10D-  7             ***   
       SCF_CONV             ISCFCV          10D- 14             ***   
       XFORM_TOL            IXFTOL          10D- 11             ***   
       CC_MAXCYC            ICCCYC              0              cycles 
       LINDEP_TOL           ILINDP              8               ***   
       RDO                  IRDOFM             OFF      [  0]   ***   
  
       SCF_EXTRAPO          IRPP                ON      [  1]   ***   
       REFERENCE            IREFNC             RHF      [  0]   ***   
       CC_EXPORDER          ICCEOR              0               ***   
       TAMP_SUM             IEVERY              0               ***   
       NTOP_TAMP            ITOPT2             15               ***   
       CCORBOPT             ICCORB             OFF      [  0] x 0.01  
       SCF_MAXCYC           ISCFCY            150              cycles 
       OCCUPATION           IOCCU   ESTIMATED BY SCF 
       PROPS                IPROPS             OFF      [  0]   ***   
       RELAX_DENS           IRDENS             OFF      [  0]   ***   
  
       SCF_EXPORDE          IRPPOR              6               ***   
       CC_EXTRAPOL          ICCEXT             DIIS     [  1]   ***   
       BRUECKNER            IBRKNR             OFF      [  0]   ***   
       XFIELD               IXEFLD              0             x 10-6  
       YFIELD               IYEFLD              0             x 10-6  
       ZFIELD               IZEFLD              0             x 10-6  
       SAVE_INTS            ISVINT             OFF      [  0]   ***   
       DROPMO               IDRPMO      NONE         
       CHARGE               ICHRGE              0               ***   
       MULTIPLICTY          IMULTP              1               ***   
  
       CPHF_CONVER          ICPHFT          10D- 16             ***   
       CPHF_MAXCYC          ICPHFC             64              cycles 
       INCORE               INCORE             OFF      [  0]   ***   
       MEMORY_SIZE          IMEMSZ         100000000           words  
       FILE_RECSIZ          IFLREC              4096           words  
       NON-HF               INONHF             OFF      [  0]   ***   
       ORBITALS             IORBTP           STANDARD   [  0]   ***   
  
       SCF_EXPSTAR          IRPPLS              8               ***   
       LOCK_ORBOCC          ILOCOC             OFF      [  0]   ***   
       HBAR                 IHBAR              OFF      [  0]   ***   
       CACHE_RECS           ICHREC             10               ***   
       GUESS                IGUESS            MOREAD    [  0]   ***   
       JODA_PRINT           IJPRNT              0               ***   
       GEO_METHOD           INR                NR       [  0]   ***   
       GEO_CONV             ICONTL             10              H/bohr 
       EIGENVECTOR          IVEC                1               ***   
  
       NEGEVAL              IDIE             ABORT      [  0]   ***   
       CURVILINEAR          ICURVY            OFF       [  0]   ***   
       SCALE_ON             ISTCRT              0               ***   
       GEO_MAXSTEP          IMXSTP            300            millibohr
       VIBRATION            IVIB              NO        [  0]   ***   
       EVAL_HESS            IRECAL              0            # of cyc.
       INTEGRALS            INTTYP             VMOL     [  1]   ***   
       FD_STEPSIZE          IDISFD              0            10-4 bohr
       POINTS               IGRDFD              0               ***   
       CONTRACTION          ICNTYP          GENERAL     [  1]   ***   
  
       SYMMETRY             ISYM             ON         [  0]   ***   
       BASIS                IBASIS         svp          [ 28]   ***   
       SPHERICAL            IDFGHI             ON       [  1]   ***   
       RESET_FLAGS          IRESET             OFF      [  0]   ***   
       PERT_ORB             IPTORB         STANDARD     [  0]   ***   
       GENBAS_1             IGNBS1              0               ***   
       GENBAS_2             IGNBS2              0               ***   
       GENBAS_3             IGNBS3              0               ***   
       COORDINATES          ICOORD         INTERNAL     [  0]   ***   
       SYM_CHECK            ISYMCK         OVERRIDE     [  1]   ***   
  
       SCF_PRINT            ISCFPR              0               ***   
       ECP                  IECP           OFF          [  0]   ***   
       RESTART_CC           ICCRES         OFF          [  0]   ***   
       TRANS_INV            ITRAIN         USE          [  0]   ***   
       HFSTABILITY          ISTABL         OFF          [  0]   ***   
       ROT_EVEC             ROTVEC              0               ***   
       BRUCK_CONV           IBRTOL          10D-  4             ***   
       UNITS                IUNITS         ANGSTROM     [  0]   ***   
       FD_USEGROUP          IFDGRP         FULL         [  0]   ***   
  
       FD_PROJECT           IFDPRJ         ON           [  0]   ***   
       FD_CALTYPE           IFDCAL         GRADONLY     [  0]   ***   
       VTRAN                IVTRAN         FULL/PARTIAL [  0]   ***   
       HF2_FILE             IHF2Fl         USE          [  1]   ***   
       SUBGROUP             ISUBGP         DEFAULT      [  0]   ***   
       SUBGRPAXIS           ISBXYZ         X            [  0]   ***   
       EXCITE               IEXCIT         NONE         [  0]   ***   
       LINEQ_CONV           IZTACN          10D-  7           cycles  
  
       TREAT_PERT           ITREAT         SIMULTANEOUS [  0]   ***   
       ESTATE_PROP          IEXPRP         OFF          [  0]   ***   
       GEO_MAXCYC           IOPTCY             50               ***   
       ABCDTYPE             IABCDT         STANDARD     [  0]   ***   
       AO_LADDERS           IAOLAD         SINGLEPASS   [  1]   ***   
       FOCK                 IFOCK          AO           [  1]   ***   
       ESTATE_MAXC          IEXMXC             20               ***   
       ESTATE_CONV          IEXTOL          10D-  5             ***   
       DIRECT               IDIRCT         OFF          [  0]   ***   
  
       GAMMA_ABCD           IGABCD         STORE        [  0]   ***   
       LINEQ_TYPE           ILTYPE         DIIS         [  1]   ***   
       LINEQ_MAXCY          ILMAXC             50               ***   
       TRANGRAD             IRESRM         OFF          [  0]   ***   
       PSI                  IPSI           OFF          [  0]   ***   
       GAMMA_ABCI           IGABCI         STORE        [  0]   ***   
       ESTATE_DIAG          IEXDIG         ITERATIVE    [  0]   ***   
       FC_FIELD             IFINFC              0             x 10-6  
       SD_FIELD             IFINSD              0             x 10-6  
       DIFF_TYPE            IDIFTY         RELAXED      [  0]   ***   
  
       LINEQ_EXPOR          ILMAXD              5               ***   
       FINITE_PERT          IFIPER              0             x 10-6  
       ANHARMONIC           IANHAR         OFF          [  0]   ***   
       CC_PROGRAM           ICCPRO         VCC          [  0]   ***   
       OPEN-SHELL           IOPEN          SPIN-ORBITAL [  0]   ***   
       UIJ_THRESHO          IUIJTH             25               ***   
       SCF_DAMPING          IDAMP               0             x 10-3  
       PROP_INTEGR          IINTYP         INTERNAL     [  0]   ***   
       ANH_SYMMETR          IANHSM         ABELIAN      [  0]   ***   
       ANH_ALGORIT          IANALG         STANDARD     [  0]   ***   
  
       EOM_NONIT            EOMNON         OFF          [  0]   ***   
       VIB_ALGORIT          IGEALG         STANDARD     [  0]   ***   
       ANH_DERIVAT          IANDER         SECOND       [  1]   ***   
       SPINROTATIO          ISRCON         OFF          [  0]   ***   
       CIS_CONV             ICISTL              5               ***   
       ANH_STEPSIZ          ICUBST             50000          x 10-6  
       SPIN_FLIP            ISPFLP         OFF          [  0]   ***   
       GRID                 IGRID          OFF          [  0]   ***   
  
       DBOC                 IDBOC          OFF          [  0]   ***   
       EOMFOLLOW            IEOMSR         ENERGY       [  0]   ***   
       T3_EXTRAPOL          IT3EXT         OFF          [  0]   ***   
       ESTATE_LOCK          IESLOC         OFF          [  0]   ***   
       UNOS                 IUNOS          OFF          [  0]   ***   
       FREQ_ALGORI          IVIALG         STANDARD     [  0]   ***   
       RELATIVIST           IRELAT         OFF          [  0]   ***   
       FROZEN_CORE          IFROCO         OFF          [  0]   ***   
       EXCITATION           IEXCIT              0               ***   
       INPUT_MRCC           IMRCC          ON           [  1]   ***   
  
       GIAO                 IGIAO          OFF          [  1]   ***   
       EOM_NSING            IEOMSI          10D-  0             ***   
       EOM_NTRIP            IEOMTR          10D-  0             ***   
       EOM_NSTATES          IMRCCD         DAVIDSON     [  0]   ***   
       DIAG_MRCC            IEOMST          10D-  0             ***   
       NEWNORM              INEWNO         OFF          [  0]   ***   
       TESTSUITE            ITESTS         OFF          [  0]   ***   
       BUFFERSIZE           IBUFFS            600               ***   
       SPINORBIT            ISOCAL         OFF          [  0]   ***   
       DCT                  IDCT           OFF          [  0]   ***   
  
       PARALLEL             IPARAL         ON           [  1]   ***   
       PARA_PRINT           IPPRIN              0               ***   
       COMM_SIZE            IPSIZE            ***               ***   
       PARA_INT             IPINTS         ON           [  1]   ***   
       RAMAN_INT            IRAMIN         OFF          [  0]   ***   
       RAMAN_ORB            IRAMRE         UNRELAXED    [  0]   ***   
       BREIT                IBREIT         OFF          [  0]   ***   
       MEM_UNIT             IMEMU          INTEGERWORDS [  0]   ***   
       SPIN_ORBIT           ISPORB         OFF          [  0]   ***   
       GENBAS_4             IGNBS4              0               ***   
  
       SPIN_SCAL            ISCSMP         OFF          [  0]   ***   
       GRID_ALGO            IGALGO         SERIAL       [  0]   ***   
       VIBPHASE             ISETPH         STANDARD     [  0]   ***   
       SEQUENCE             ISEQUE         OFF          [  0]   ***   
       HESS_TYPE            IHESTP         SCF          [  0]   ***   
       CONTINUUM            ICONTU         NONE         [  0]   ***   
       SCF_NOSTOP           ISCFST         OFF          [  0]   ***   
       CONSTANT             ICONST         OLD          [  1]   ***   
  
       EOM_MRCC             IMRCCE         OLD          [  0]   ***   
       EOM_ORDER            IEXORD         ENERGY       [  0]   ***   
       GIMIC                IGIMIC         OFF          [  0]   ***   
    -------------------------------------------------------------------
   3 entries found in Z-matrix 
   Job Title : Geometry optimization of H2O at HF-SCF level                                    
   There are  2 unique internal coordinates.
   Of these,  2 will be optimized.
   User supplied Z-matrix: 
--------------------------------------------------------------------------------
       SYMBOL    BOND      LENGTH    ANGLE     ANGLE     DIHED     ANGLE
                  TO      (ANGST)    WRT      (DEG)      WRT      (DEG)
--------------------------------------------------------------------------------
        O    
        H          1         R    
        H          1         R          2        A    
                  *Initial values for internal coordinates* 
                      Name             Value
                        R               0.9580000000
                        A             104.5000000000
--------------------------------------------------------------------------------
  1  O          8    15.99491
  2  H          1     1.00783
  3  H          1     1.00783
   Rotational constants (in cm-1): 
          9.5117577156            14.5760005103            27.3769230540
   Rotational constants (in MHz): 
     285155.3624957671        436977.5632982104        820739.6204653939
********************************************************************************
   The full molecular point group is C2v .
   The largest Abelian subgroup of the full molecular point group is C2v .
   The computational point group is C2v .
********************************************************************************
--------------------------------------------------------------------------------
   Analysis of internal coordinates specified by Z-matrix 
--------------------------------------------------------------------------------
   *The nuclear repulsion energy is    9.18733 a.u.
   *There are   2 degrees of freedom within the tot. symm. molecular subspace.
   *Z-matrix requests optimization of   2 coordinates.
   *The optimization is unconstrained and your Z-matrix is great.
--------------------------------------------------------------------------------
 ----------------------------------------------------------------
 Z-matrix   Atomic            Coordinates (in bohr)
  Symbol    Number           X              Y              Z
 ----------------------------------------------------------------
     O         8         0.00000000     0.00000000     0.12403889
     H         1         0.00000000    -1.43143120    -0.98429357
     H         1         0.00000000     1.43143120    -0.98429357
 ----------------------------------------------------------------
   Interatomic distance matrix (Angstroms) 
 
                 O             H             H    
                [ 1]        [ 2]        [ 3]
  O    [ 1]     0.00000
  H    [ 2]     0.95800     0.00000
  H    [ 3]     0.95800     1.51496     0.00000
   Rotational constants (in cm-1): 
          9.5117577156            27.3769230540            14.5760005103
   Rotational constants (in MHz): 
     285155.3624957672        820739.6204653946        436977.5632982106
  There are   24 basis functions.
                0.12 seconds walltime passed
 --executable xjoda finished with status            0
  flag is                      0
 --invoking executable xvmol
 Serial version of molecule started
 
    -------------------------------------------------------------------
                    Input from MOL file
    -------------------------------------------------------------------
 INTGRL        1    0    1    0    0    0    0    0    0                        
          *** CFOUR Program System (Release V0.1) ***                           
 Geometry optimization of H2O at HF-SCF level                                   
     2    2 X  Y       0.10E-08              0    0                             
    9999.00      3.00                                                           
           8.00000000    1    3    2    2    1                                  
 O #1      0.000000000000      0.000000000000      0.124038886472               
     5    1                                                                     
    2266.17677850000      -5.343200000000000E-003                               
    340.870101900000      -3.989000000000000E-002                               
    77.3631352000000      -0.178539100000000                                    
    21.4796449000000      -0.464276800000000                                    
    6.65894330000000      -0.443097500000000                                    
     2    2                                                                     
   0.809759800000000        1.00000000000000       0.000000000000000E+000       
   0.255307700000000       0.000000000000000E+000   1.00000000000000            
     3    1                                                                     
    17.7215043000000       4.339460000000000E-002                               
    3.86355050000000       0.230941200000000                                    
    1.04809210000000       0.513753100000000                                    
     1    1                                                                     
   0.276415400000000        1.00000000000000                                    
     1    1                                                                     
    1.20000000000000        1.00000000000000                                    
           1.00000000    1    2    1    1                                       
 H #2      0.000000000000     -1.431431200720     -0.984293568339               
     4    2                                                                     
    13.0107010000000       1.968220000000000E-002  0.000000000000000E+000       
    1.96225720000000       0.137965200000000       0.000000000000000E+000       
   0.444538000000000       0.478319300000000       0.000000000000000E+000       
   0.121949600000000       0.000000000000000E+000   1.00000000000000            
     1    1                                                                     
   0.800000000000000        1.00000000000000                                    
 FINISH                                                                         
 
    -------------------------------------------------------------------
 
 One- and two-electron integrals over symmetry-adapted AOs are calculated.

  Spherical harmonics are used.
  
  Integrals less than  0.10E-13 are neglected.

   Basis function not normalized: 
   Center (as ordered in MOL file):   1
   Angular Momentum type          : s
   Offset within angular momentum :  1
   <chi|chi>                      :    1.0086408406
   Basis function not normalized: 
   Center (as ordered in MOL file):   1
   Angular Momentum type          : p
   Offset within angular momentum :  1
   <chi|chi>                      :    1.4432737704
   Basis function not normalized: 
   Center (as ordered in MOL file):   2
   Angular Momentum type          : s
   Offset within angular momentum :  1
   <chi|chi>                      :    1.7013118403
  Nuclear repulsion energy :    9.1873316533 a.u.
  required memory for a1 array                3001252  words 
  required memory for a2 array                2004428  words 
 basis number:   8    15
 basis number:   1     5
  @MOLECU-I, One electron integrals required         0.00000 seconds.
  @TWOEL-I,       2350 integrals of symmetry type  I I I I
  @TWOEL-I,       4467 integrals of symmetry type  I J I J
  @TWOEL-I,       2860 integrals of symmetry type  I I J J
  @TWOEL-I,       1735 integrals of symmetry type  I J K L
  @TWOEL-I, Total number of 2-e integrals      11412.
  @MOLECU-I, Two electron integrals required         0.03000 seconds.
  @CHECKOUT-I, Total execution time :       0.0300 seconds.
                0.00 seconds walltime passed
 --executable xvmol finished with status            0
 --invoking executable xvmol2ja
  @CHECKOUT-I, Total execution time :       0.0000 seconds.
                0.00 seconds walltime passed
 --executable xvmol2ja finished with status            0
 --invoking executable xvscf
 NSOSCF                     0
  There are   24 functions in the AO basis.

  There are 4 irreducible representations.

       Irrep        # of functions
         1                 11
         2                  4
         3                  7
         4                  2


  Parameters for SCF calculation: 
        SCF reference function:  RHF  
  Maximum number of iterations:  150
     Full symmetry point group: C2v 
     Computational point group: C2v 
        Initial density matrix: MOREAD                 
     SCF convergence tolerance: 10**(-14)
  DIIS convergence acceleration:  ON
          Latest start for DIIS:   8
                     DIIS order:   6

  Memory information:      62156 words required.
  Fock matrices are constructed from AO integral file.
  Initialization and symmetry analysis required      0.000 seconds.

  @INITGES-I, Occupancies from core Hamiltonian:

          Alpha population by irrep:   3    1    1    0
           Beta population by irrep:   3    1    1    0


 total no. of electrons in initial guess :  0.000000000000000E+000
  --------------------------------------------------------------------
  Iteration         Total Energy            Largest Density Difference
  --------------------------------------------------------------------
       0             9.187331653304790              0.0000000000D+00
   current occupation vector 
     3  1  1  0
     3  1  1  0
       1           -68.933498286128227              0.3485736168D+01
   current occupation vector 
     3  1  1  0
     3  1  1  0
       2           -69.822606394559614              0.5398703093D+01
   current occupation vector 
     3  0  2  0
     3  0  2  0
       3           -73.245196970417567              0.5393702492D+01
   current occupation vector 
     3  1  1  0
     3  1  1  0
       4           -73.291862339678175              0.4269635691D+01
   current occupation vector 
     4  0  1  0
     4  0  1  0
       5           -74.603355178182909              0.4212136221D+01
   current occupation vector 
     3  1  1  0
     3  1  1  0
       6           -75.422868575107671              0.1085736196D+01
   current occupation vector 
     3  1  1  0
     3  1  1  0
       7           -75.769740084606084              0.7756551360D+00
   current occupation vector 
     3  1  1  0
     3  1  1  0
       8           -75.894121638785691              0.3828662344D+00
   current occupation vector 
     3  1  1  0
     3  1  1  0
       9           -75.960952351333290              0.1507360610D+00
   current occupation vector 
     3  1  1  0
     3  1  1  0
      10           -75.960969991254643              0.2645164916D-02
   current occupation vector 
     3  1  1  0
     3  1  1  0
      11           -75.960971922918944              0.1044919553D-02
   current occupation vector 
     3  1  1  0
     3  1  1  0
      12           -75.960971986274856              0.2030986500D-03
   current occupation vector 
     3  1  1  0
     3  1  1  0
      13           -75.960971986920157              0.3150677662D-04
   current occupation vector 
     3  1  1  0
     3  1  1  0
      14           -75.960971986942766              0.4131402730D-05
   current occupation vector 
     3  1  1  0
     3  1  1  0
      15           -75.960971986944074              0.1103776662D-05
   current occupation vector 
     3  1  1  0
     3  1  1  0
      16           -75.960971986944045              0.1943155981D-06
   current occupation vector 
     3  1  1  0
     3  1  1  0
      17           -75.960971986944315              0.3863243936D-07
   current occupation vector 
     3  1  1  0
     3  1  1  0
      18           -75.960971986944287              0.7517800993D-08
   current occupation vector 
     3  1  1  0
     3  1  1  0
      19           -75.960971986944116              0.9945060331D-09
   current occupation vector 
     3  1  1  0
     3  1  1  0
      20           -75.960971986944173              0.9475686902D-10
   current occupation vector 
     3  1  1  0
     3  1  1  0
      21           -75.960971986944045              0.2187694470D-10
   current occupation vector 
     3  1  1  0
     3  1  1  0
      22           -75.960971986944102              0.4871103521D-11
   current occupation vector 
     3  1  1  0
     3  1  1  0
      23           -75.960971986944244              0.1539546268D-11
   current occupation vector 
     3  1  1  0
     3  1  1  0
      24           -75.960971986944088              0.2630118345D-12
   current occupation vector 
     3  1  1  0
     3  1  1  0
      25           -75.960971986944074              0.3419486916D-13
   current occupation vector 
     3  1  1  0
     3  1  1  0
      26           -75.960971986944116              0.3386180225D-13
   current occupation vector 
     3  1  1  0
     3  1  1  0
      27           -75.960971986944102              0.2731148641D-13
   current occupation vector 
     3  1  1  0
     3  1  1  0

  SCF has converged.

 save density matrix on hard disk
 total electron number:   10.0000000000000     
     E(SCF)=       -75.960971986944188              0.7993605777D-14

  Eigenvector printing suppressed.

 @PUTMOS-I, Writing converged MOs to NEWMOS. 
 @PUTMOS-I, Symmetry   1 Full   2 Partial   3
 @PUTMOS-I, Symmetry   2 Full   1 Partial   0
 @PUTMOS-I, Symmetry   3 Full   1 Partial   3
 @PUTMOS-I, Symmetry   4 Full   0 Partial   2


 
  ORBITAL EIGENVALUES (ALPHA)  (1H = 27.2113838 eV)

       MO #        E(hartree)               E(eV)           FULLSYM    COMPSYM
       ----   --------------------   --------------------   -------   ---------
    1     1         -20.5458694849        -559.0815404599      A1        A1 (1)
    2     2          -1.3185443745         -35.8794170584      A1        A1 (1)
    3    16          -0.7032159420         -19.1354789060      B2        B2 (3)
    4     3          -0.5680863355         -15.4584153176      A1        A1 (1)
    5    12          -0.4980407840         -13.5523789315      B1        B1 (2)
  +++++++++++++++++++++++++++++++++++++++++++++++++++++++++++++++++++++++++++++
    6     4           0.1761158988           4.7923573177      A1        A1 (1)
    7    17           0.2552431512           6.9455193539      B2        B2 (3)
    8    18           0.7942679443          21.6131298874      B2        B2 (3)
    9     5           0.8684845498          23.6326664262      A1        A1 (1)
   10     6           1.1847377322          32.2383531551      A1        A1 (1)
   11    13           1.2019277657          32.7061177562      B1        B1 (2)
   12    19           1.2692908985          34.5391618166      B2        B2 (3)
   13     7           1.3402519502          36.4701102330      A1        A1 (1)
   14    23           1.5973359404          43.4657213628      A2        A2 (4)
   15     8           1.6638852040          45.2766189169      A1        A1 (1)
   16    14           1.8085431129          49.2129607996      B1        B1 (2)
   17    20           2.0596696029          56.0464601057      B2        B2 (3)
   18    21           2.5620940006          69.7181232310      B2        B2 (3)
   19     9           2.6017641408          70.7976026442      A1        A1 (1)
   20    15           3.3267053371          90.5242557826      B1        B1 (2)
   21    24           3.3847484695          92.1036897361      A2        A2 (4)
   22    10           3.5707995597          97.1663973605      A1        A1 (1)
   23    11           3.9021625545         106.1832429967      A1        A1 (1)
   24    22           4.2331891702         115.1909352918      B2        B2 (3)


  VSCF finished.

  @CHECKOUT-I, Total execution time :       0.0100 seconds.
                0.00 seconds walltime passed
 --executable xvscf finished with status            0
 --invoking executable xvdint
 One- and two-electron integral derivatives are calculated
 for RHF gradients and dipole moments.
 Spherical gaussians are used.

                     Kinetic energy integral gradient
                     --------------------------------

                         O #1 z    -0.9278290893
                         H #2 y     1.2425384467
                         H #2 z     0.9278290893


 O #1       0.0000000000            0.0000000000           -0.9278290893
 H #2 1     0.0000000000            0.6212692234            0.4639145447
 H #2 2     0.0000000000           -0.6212692234            0.4639145447



                   Nuclear attraction integral gradient
                   ------------------------------------

                         O #1 z     8.3329865926
                         H #2 y   -11.2165074219
                         H #2 z    -8.3329865926


 O #1       0.0000000000            0.0000000000            8.3329865926
 H #2 1     0.0000000000           -5.6082537110           -4.1664932963
 H #2 2     0.0000000000            5.6082537110           -4.1664932963



                      Reorthonormalization gradient
                      -----------------------------

                         O #1 z    -0.4333447586
                         H #2 y     0.5354050689
                         H #2 z     0.4333447586


 O #1       0.0000000000            0.0000000000           -0.4333447586
 H #2 1     0.0000000000            0.2677025344            0.2166723793
 H #2 2     0.0000000000           -0.2677025344            0.2166723793



                Electronic contributions to dipole moment
                -----------------------------------------

                               au             Debye

                    z      0.13693058      0.34804288

  Conversion factor used: 1 a.u. =   2.54174691 Debye 


  Evaluation of 1e integral derivatives required    0.01 seconds.
  Evaluation of 2el integral derivatives

                      Two-electron integral gradient
                      ------------------------------

                         O #1 z    -3.9647368388
                         H #2 y     5.3118516017
                         H #2 z     3.9647368388


 O #1       0.0000000000            0.0000000000           -3.9647368388
 H #2 1     0.0000000000            2.6559258009            1.9823684194
 H #2 2     0.0000000000           -2.6559258009            1.9823684194


  Evaluation of 2e integral derivatives required    0.03 seconds.

                            Molecular gradient
                            ------------------

                         O #1 z     0.0182774379
                         H #2 y    -0.0226035584
                         H #2 z    -0.0182774379


 O #1       0.0000000000            0.0000000000            0.0182774379
 H #2 1     0.0000000000           -0.0113017792           -0.0091387190
 H #2 2     0.0000000000            0.0113017792           -0.0091387190


  Molecular gradient norm 0.343E-01

                           Total dipole moment
                           -------------------

                               au             Debye

                    z     -0.83934546     -2.13340374

  Conversion factor used: 1 a.u. =   2.54174691 Debye 


  @CHECKOUT-I, Total execution time :       0.0400 seconds.
                0.12 seconds walltime passed
 --executable xvdint finished with status            0
 --invoking executable xjoda
   JODA beginning optimization cycle #  1.
 OriVec is   0.000000000000000E+000  -1.00000000000000     
  3.102413931082717E-016                    -2
   Internal coordinate forces and energy gradients (atomic units): 
           R       dV/dR             R       dV/dR             R       dV/dR
 [R    ]  1.81036  0.0145311 [R    ]  1.81036  0.0145311 [A    ]  1.82387 -0.0005553
                     0                     0                     0 ****
   Optimization cycle  1.  Updating structure with Newton-Raphson step.
  @EFOL-I, Current internal coordinate Hessian written to FCMINT.
   There are   2 independent internal coordinates which will be optimized.
   Hessian matrix in totally symmetric symmetry coordinates: 
              R         A    
  R          1.000000  0.000000
  A          0.000000  0.250000
   The eigenvectors of the Hessian matrix: 
                   1         2
  R          0.000000  1.000000
  A          1.000000  0.000000
   The eigenvalues of the Hessian matrix: 
     0.25000    1.00000
   Gradients along Hessian eigenvectors: 
    -0.00056    0.02055
   There are  0 negative eigenvalues.
   Summary of Optimization Cycle: 
   The maximum unscaled step is:    0.01470.
   Scale factor set to:  1.00000.
   Forces are in hartree/bohr and hartree/radian.
   Parameter values are in Angstroms and degrees.
--------------------------------------------------------------------------
  Parameter     dV/dR           Step          Rold            Rnew
--------------------------------------------------------------------------
    R       0.0145310806   -0.0076895151    0.9580000000    0.9503104849
    A      -0.0005553188    0.1272696874  104.5000000000  104.6272696874
--------------------------------------------------------------------------
  Minimum force:  0.000555319 / RMS force:  0.010282526
 Updating structure...
   Rotational constants (in cm-1): 
          9.6650971692            14.7874151842            27.9017827904
   Rotational constants (in MHz): 
     289752.3643103875        443315.6166599584        836474.5217204257
 ----------------------------------------------------------------
 Z-matrix   Atomic            Coordinates (in bohr)
  Symbol    Number           X              Y              Z
 ----------------------------------------------------------------
     O         8         0.00000000     0.00000000     0.12286670
     H         1         0.00000000    -1.42116183    -0.97499186
     H         1         0.00000000     1.42116183    -0.97499186
 ----------------------------------------------------------------
   Interatomic distance matrix (Angstroms) 
 
                 O             H             H    
                [ 1]        [ 2]        [ 3]
  O    [ 1]     0.00000
  H    [ 2]     0.95031     0.00000
  H    [ 3]     0.95031     1.50409     0.00000
   Rotational constants (in cm-1): 
          9.6650971692            27.9017827904            14.7874151842
   Rotational constants (in MHz): 
     289752.3643103877        836474.5217204266        443315.6166599587
  There are   24 basis functions.
                0.00 seconds walltime passed
 --executable xjoda finished with status            0
 --invoking executable xvmol
 Serial version of molecule started
 
    -------------------------------------------------------------------
                    Input from MOL file
    -------------------------------------------------------------------
 INTGRL        1    0    1    0    0    0    0    0    0                        
          *** CFOUR Program System (Release V0.1) ***                           
 Geometry optimization of H2O at HF-SCF level                                   
     2    2 X  Y       0.10E-08              0    0                             
    9999.00      3.00                                                           
           8.00000000    1    3    2    2    1                                  
 O #1      0.000000000000      0.000000000000      0.122866701625               
     5    1                                                                     
    2266.17677850000      -5.343200000000000E-003                               
    340.870101900000      -3.989000000000000E-002                               
    77.3631352000000      -0.178539100000000                                    
    21.4796449000000      -0.464276800000000                                    
    6.65894330000000      -0.443097500000000                                    
     2    2                                                                     
   0.809759800000000        1.00000000000000       0.000000000000000E+000       
   0.255307700000000       0.000000000000000E+000   1.00000000000000            
     3    1                                                                     
    17.7215043000000       4.339460000000000E-002                               
    3.86355050000000       0.230941200000000                                    
    1.04809210000000       0.513753100000000                                    
     1    1                                                                     
   0.276415400000000        1.00000000000000                                    
     1    1                                                                     
    1.20000000000000        1.00000000000000                                    
           1.00000000    1    2    1    1                                       
 H #2      0.000000000000     -1.421161825953     -0.974991856281               
     4    2                                                                     
    13.0107010000000       1.968220000000000E-002  0.000000000000000E+000       
    1.96225720000000       0.137965200000000       0.000000000000000E+000       
   0.444538000000000       0.478319300000000       0.000000000000000E+000       
   0.121949600000000       0.000000000000000E+000   1.00000000000000            
     1    1                                                                     
   0.800000000000000        1.00000000000000                                    
 FINISH                                                                         
 
    -------------------------------------------------------------------
 
 One- and two-electron integrals over symmetry-adapted AOs are calculated.

  Spherical harmonics are used.
  
  Integrals less than  0.10E-13 are neglected.

   Basis function not normalized: 
   Center (as ordered in MOL file):   1
   Angular Momentum type          : s
   Offset within angular momentum :  1
   <chi|chi>                      :    1.0086408406
   Basis function not normalized: 
   Center (as ordered in MOL file):   1
   Angular Momentum type          : p
   Offset within angular momentum :  1
   <chi|chi>                      :    1.4432737704
   Basis function not normalized: 
   Center (as ordered in MOL file):   2
   Angular Momentum type          : s
   Offset within angular momentum :  1
   <chi|chi>                      :    1.7013118403
  Nuclear repulsion energy :    9.2613693660 a.u.
  required memory for a1 array                3001252  words 
  required memory for a2 array                2004428  words 
 basis number:   8    15
 basis number:   1     5
  @MOLECU-I, One electron integrals required         0.00000 seconds.
  @TWOEL-I,       2350 integrals of symmetry type  I I I I
  @TWOEL-I,       4467 integrals of symmetry type  I J I J
  @TWOEL-I,       2860 integrals of symmetry type  I I J J
  @TWOEL-I,       1735 integrals of symmetry type  I J K L
  @TWOEL-I, Total number of 2-e integrals      11412.
  @MOLECU-I, Two electron integrals required         0.03000 seconds.
  @CHECKOUT-I, Total execution time :       0.0300 seconds.
                0.12 seconds walltime passed
 --executable xvmol finished with status            0
 --invoking executable xvmol2ja
  @CHECKOUT-I, Total execution time :       0.0000 seconds.
                0.00 seconds walltime passed
 --executable xvmol2ja finished with status            0
 --invoking executable xvscf
 NSOSCF                     0
  There are   24 functions in the AO basis.

  There are 4 irreducible representations.

       Irrep        # of functions
         1                 11
         2                  4
         3                  7
         4                  2


  Parameters for SCF calculation: 
        SCF reference function:  RHF  
  Maximum number of iterations:  150
     Full symmetry point group: C2v 
     Computational point group: C2v 
        Initial density matrix: MOREAD                 
     SCF convergence tolerance: 10**(-14)
  DIIS convergence acceleration:  ON
          Latest start for DIIS:   8
                     DIIS order:   6

     Alpha population by irrep:   3    1    1    0
      Beta population by irrep:   3    1    1    0


  Memory information:      62156 words required.
  Fock matrices are constructed from AO integral file.
  Initialization and symmetry analysis required      0.000 seconds.

 total no. of electrons in initial guess :  0.000000000000000E+000
  --------------------------------------------------------------------
  Iteration         Total Energy            Largest Density Difference
  --------------------------------------------------------------------
       0           -75.971330401389451              0.0000000000D+00
   current occupation vector 
     3  1  1  0
     3  1  1  0
       1           -75.961264525030330              0.3675343900D-02
   current occupation vector 
     3  1  1  0
     3  1  1  0
       2           -75.961271528484374              0.1908518840D-02
   current occupation vector 
     3  1  1  0
     3  1  1  0
       3           -75.961273023253952              0.8673509502D-03
   current occupation vector 
     3  1  1  0
     3  1  1  0
       4           -75.961273137938761              0.1982954626D-03
   current occupation vector 
     3  1  1  0
     3  1  1  0
       5           -75.961273151186447              0.8455766569D-04
   current occupation vector 
     3  1  1  0
     3  1  1  0
       6           -75.961273151947580              0.2290790210D-04
   current occupation vector 
     3  1  1  0
     3  1  1  0
       7           -75.961273151962843              0.3474553380D-05
   current occupation vector 
     3  1  1  0
     3  1  1  0
       8           -75.961273151963269              0.4048163856D-06
   current occupation vector 
     3  1  1  0
     3  1  1  0
       9           -75.961273151963226              0.8746512886D-07
   current occupation vector 
     3  1  1  0
     3  1  1  0
      10           -75.961273151963098              0.7921875156D-08
   current occupation vector 
     3  1  1  0
     3  1  1  0
      11           -75.961273151963212              0.1465501498D-08
   current occupation vector 
     3  1  1  0
     3  1  1  0
      12           -75.961273151963212              0.3369146073D-09
   current occupation vector 
     3  1  1  0
     3  1  1  0
      13           -75.961273151963184              0.1188760201D-09
   current occupation vector 
     3  1  1  0
     3  1  1  0
      14           -75.961273151963155              0.1060540544D-10
   current occupation vector 
     3  1  1  0
     3  1  1  0
      15           -75.961273151963113              0.3621658529D-11
   current occupation vector 
     3  1  1  0
     3  1  1  0
      16           -75.961273151963255              0.6658007479D-12
   current occupation vector 
     3  1  1  0
     3  1  1  0
      17           -75.961273151963155              0.1182387521D-12
   current occupation vector 
     3  1  1  0
     3  1  1  0
      18           -75.961273151963240              0.1698641228D-13
   current occupation vector 
     3  1  1  0
     3  1  1  0
      19           -75.961273151963255              0.1276756478D-13
   current occupation vector 
     3  1  1  0
     3  1  1  0

  SCF has converged.

 save density matrix on hard disk
 total electron number:   10.0000000000000     
     E(SCF)=       -75.961273151963240              0.8049116929D-14

  Eigenvector printing suppressed.

 @PUTMOS-I, Writing converged MOs to NEWMOS. 
 @PUTMOS-I, Symmetry   1 Full   2 Partial   3
 @PUTMOS-I, Symmetry   2 Full   1 Partial   0
 @PUTMOS-I, Symmetry   3 Full   1 Partial   3
 @PUTMOS-I, Symmetry   4 Full   0 Partial   2
 @PUTMOS-I, NEWMOS already exists and will be deleted. 


 
  ORBITAL EIGENVALUES (ALPHA)  (1H = 27.2113838 eV)

       MO #        E(hartree)               E(eV)           FULLSYM    COMPSYM
       ----   --------------------   --------------------   -------   ---------
    1     1         -20.5445606698        -559.0459257916      A1        A1 (1)
    2     2          -1.3224611991         -35.9859992760      A1        A1 (1)
    3    16          -0.7076313456         -19.2556281479      B2        B2 (3)
    4     3          -0.5692579558         -15.4902967277      A1        A1 (1)
    5    12          -0.4985969074         -13.5675118175      B1        B1 (2)
  +++++++++++++++++++++++++++++++++++++++++++++++++++++++++++++++++++++++++++++
    6     4           0.1773159444           4.8250122215      A1        A1 (1)
    7    17           0.2563770854           6.9763752722      B2        B2 (3)
    8    18           0.8005014597          21.7827524683      B2        B2 (3)
    9     5           0.8760244258          23.8378368865      A1        A1 (1)
   10     6           1.1842543854          32.2252006202      A1        A1 (1)
   11    13           1.2018524878          32.7040693411      B1        B1 (2)
   12    19           1.2686490857          34.5216972021      B2        B2 (3)
   13     7           1.3399006099          36.4605497758      A1        A1 (1)
   14    23           1.5987619854          43.5045260213      A2        A2 (4)
   15     8           1.6641474788          45.2837557768      A1        A1 (1)
   16    14           1.8108902884          49.2768306940      B1        B1 (2)
   17    20           2.0678011486          56.2677307161      B2        B2 (3)
   18    21           2.5819419157          70.2582124678      B2        B2 (3)
   19     9           2.6189728595          71.2658756925      A1        A1 (1)
   20    15           3.3332865852          90.7033406518      B1        B1 (2)
   21    24           3.3935061699          92.3419988824      A2        A2 (4)
   22    10           3.5815291675          97.4583648390      A1        A1 (1)
   23    11           3.9131826428         106.4831148490      A1        A1 (1)
   24    22           4.2410610706         115.4051405941      B2        B2 (3)


  VSCF finished.

  @CHECKOUT-I, Total execution time :       0.0100 seconds.
                0.00 seconds walltime passed
 --executable xvscf finished with status            0
 --invoking executable xvdint
 One- and two-electron integral derivatives are calculated
 for RHF gradients and dipole moments.
 Spherical gaussians are used.

                     Kinetic energy integral gradient
                     --------------------------------

                         O #1 z    -0.9405653898
                         H #2 y     1.2632382781
                         H #2 z     0.9405653898


 O #1       0.0000000000            0.0000000000           -0.9405653898
 H #2 1     0.0000000000            0.6316191391            0.4702826949
 H #2 2     0.0000000000           -0.6316191391            0.4702826949



                   Nuclear attraction integral gradient
                   ------------------------------------

                         O #1 z     8.4042359012
                         H #2 y   -11.3442098582
                         H #2 z    -8.4042359012


 O #1       0.0000000000            0.0000000000            8.4042359012
 H #2 1     0.0000000000           -5.6721049291           -4.2021179506
 H #2 2     0.0000000000            5.6721049291           -4.2021179506



                      Reorthonormalization gradient
                      -----------------------------

                         O #1 z    -0.4345997211
                         H #2 y     0.5385846195
                         H #2 z     0.4345997211


 O #1       0.0000000000            0.0000000000           -0.4345997211
 H #2 1     0.0000000000            0.2692923097            0.2172998606
 H #2 2     0.0000000000           -0.2692923097            0.2172998606



                Electronic contributions to dipole moment
                -----------------------------------------

                               au             Debye

                    z      0.13173161      0.33482840

  Conversion factor used: 1 a.u. =   2.54174691 Debye 


  Evaluation of 1e integral derivatives required    0.00 seconds.
  Evaluation of 2el integral derivatives

                      Two-electron integral gradient
                      ------------------------------

                         O #1 z    -3.9878690518
                         H #2 y     5.3598109442
                         H #2 z     3.9878690518


 O #1       0.0000000000            0.0000000000           -3.9878690518
 H #2 1     0.0000000000            2.6799054721            1.9939345259
 H #2 2     0.0000000000           -2.6799054721            1.9939345259


  Evaluation of 2e integral derivatives required    0.04 seconds.

                            Molecular gradient
                            ------------------

                         O #1 z     0.0081980578
                         H #2 y    -0.0088357633
                         H #2 z    -0.0081980578


 O #1       0.0000000000            0.0000000000            0.0081980578
 H #2 1     0.0000000000           -0.0044178817           -0.0040990289
 H #2 2     0.0000000000            0.0044178817           -0.0040990289


  Molecular gradient norm 0.146E-01

                           Total dipole moment
                           -------------------

                               au             Debye

                    z     -0.83531849     -2.12316820

  Conversion factor used: 1 a.u. =   2.54174691 Debye 


  @CHECKOUT-I, Total execution time :       0.0400 seconds.
                0.12 seconds walltime passed
 --executable xvdint finished with status            0
 --invoking executable xjoda
   JODA beginning optimization cycle #  2.
   Retrieving information from last optimization cycle.
 OriVec is   0.000000000000000E+000  -1.00000000000000     
  1.171812038942696E-016                    -2
   Internal coordinate forces and energy gradients (atomic units): 
           R       dV/dR             R       dV/dR             R       dV/dR
 [R    ]  1.79583  0.0060021 [R    ]  1.79583  0.0060021 [A    ]  1.82609 -0.0009752
                     1                    -1                     0 ****
   Hessian from cycle  1 read.
   BFGS update using last two gradients and previous step.
   Optimization cycle  2.  Updating structure with Newton-Raphson step.
  @EFOL-I, Current internal coordinate Hessian written to FCMINT.
   There are   2 independent internal coordinates which will be optimized.
   Hessian matrix in totally symmetric symmetry coordinates: 
              R         A    
  R          0.592079  0.047452
  A          0.047452  0.249986
   The eigenvectors of the Hessian matrix: 
                   1         2
  R          0.134896  0.990860
  A         -0.990860  0.134896
   The eigenvalues of the Hessian matrix: 
     0.24353    0.59854
   Gradients along Hessian eigenvectors: 
     0.00211    0.00828
   There are  0 negative eigenvalues.
   Summary of Optimization Cycle: 
   The maximum unscaled step is:    0.01248.
   Scale factor set to:  1.00000.
   Forces are in hartree/bohr and hartree/radian.
   Parameter values are in Angstroms and degrees.
--------------------------------------------------------------------------
  Parameter     dV/dR           Step          Rold            Rnew
--------------------------------------------------------------------------
    R       0.0060020699   -0.0055660805    0.9503104849    0.9447444044
    A      -0.0009751742    0.3852866409  104.6272696874  105.0125563283
--------------------------------------------------------------------------
  Minimum force:  0.000975174 / RMS force:  0.004299756
 Updating structure...
   Rotational constants (in cm-1): 
          9.7756076355            14.8849174009            28.4792112589
   Rotational constants (in MHz): 
     293065.3852058296        446238.6599923538        853785.3941338971
 ----------------------------------------------------------------
 Z-matrix   Atomic            Coordinates (in bohr)
  Symbol    Number           X              Y              Z
 ----------------------------------------------------------------
     O         8         0.00000000     0.00000000     0.12161474
     H         1         0.00000000    -1.41649959    -0.96505705
     H         1         0.00000000     1.41649959    -0.96505705
 ----------------------------------------------------------------
   Interatomic distance matrix (Angstroms) 
 
                 O             H             H    
                [ 1]        [ 2]        [ 3]
  O    [ 1]     0.00000
  H    [ 2]     0.94474     0.00000
  H    [ 3]     0.94474     1.49916     0.00000
   Rotational constants (in cm-1): 
          9.7756076355            28.4792112589            14.8849174009
   Rotational constants (in MHz): 
     293065.3852058298        853785.3941338983        446238.6599923541
  There are   24 basis functions.
                0.00 seconds walltime passed
 --executable xjoda finished with status            0
 --invoking executable xvmol
 Serial version of molecule started
 
    -------------------------------------------------------------------
                    Input from MOL file
    -------------------------------------------------------------------
 INTGRL        1    0    1    0    0    0    0    0    0                        
          *** CFOUR Program System (Release V0.1) ***                           
 Geometry optimization of H2O at HF-SCF level                                   
     2    2 X  Y       0.10E-08              0    0                             
    9999.00      3.00                                                           
           8.00000000    1    3    2    2    1                                  
 O #1      0.000000000000      0.000000000000      0.121614735019               
     5    1                                                                     
    2266.17677850000      -5.343200000000000E-003                               
    340.870101900000      -3.989000000000000E-002                               
    77.3631352000000      -0.178539100000000                                    
    21.4796449000000      -0.464276800000000                                    
    6.65894330000000      -0.443097500000000                                    
     2    2                                                                     
   0.809759800000000        1.00000000000000       0.000000000000000E+000       
   0.255307700000000       0.000000000000000E+000   1.00000000000000            
     3    1                                                                     
    17.7215043000000       4.339460000000000E-002                               
    3.86355050000000       0.230941200000000                                    
    1.04809210000000       0.513753100000000                                    
     1    1                                                                     
   0.276415400000000        1.00000000000000                                    
     1    1                                                                     
    1.20000000000000        1.00000000000000                                    
           1.00000000    1    2    1    1                                       
 H #2      0.000000000000     -1.416499586740     -0.965057047019               
     4    2                                                                     
    13.0107010000000       1.968220000000000E-002  0.000000000000000E+000       
    1.96225720000000       0.137965200000000       0.000000000000000E+000       
   0.444538000000000       0.478319300000000       0.000000000000000E+000       
   0.121949600000000       0.000000000000000E+000   1.00000000000000            
     1    1                                                                     
   0.800000000000000        1.00000000000000                                    
 FINISH                                                                         
 
    -------------------------------------------------------------------
 
 One- and two-electron integrals over symmetry-adapted AOs are calculated.

  Spherical harmonics are used.
  
  Integrals less than  0.10E-13 are neglected.

   Basis function not normalized: 
   Center (as ordered in MOL file):   1
   Angular Momentum type          : s
   Offset within angular momentum :  1
   <chi|chi>                      :    1.0086408406
   Basis function not normalized: 
   Center (as ordered in MOL file):   1
   Angular Momentum type          : p
   Offset within angular momentum :  1
   <chi|chi>                      :    1.4432737704
   Basis function not normalized: 
   Center (as ordered in MOL file):   2
   Angular Momentum type          : s
   Offset within angular momentum :  1
   <chi|chi>                      :    1.7013118403
  Nuclear repulsion energy :    9.3150190575 a.u.
  required memory for a1 array                3001252  words 
  required memory for a2 array                2004428  words 
 basis number:   8    15
 basis number:   1     5
  @MOLECU-I, One electron integrals required         0.01000 seconds.
  @TWOEL-I,       2350 integrals of symmetry type  I I I I
  @TWOEL-I,       4467 integrals of symmetry type  I J I J
  @TWOEL-I,       2860 integrals of symmetry type  I I J J
  @TWOEL-I,       1735 integrals of symmetry type  I J K L
  @TWOEL-I, Total number of 2-e integrals      11412.
  @MOLECU-I, Two electron integrals required         0.02000 seconds.
  @CHECKOUT-I, Total execution time :       0.0300 seconds.
                0.12 seconds walltime passed
 --executable xvmol finished with status            0
 --invoking executable xvmol2ja
  @CHECKOUT-I, Total execution time :       0.0000 seconds.
                0.00 seconds walltime passed
 --executable xvmol2ja finished with status            0
 --invoking executable xvscf
 NSOSCF                     0
  There are   24 functions in the AO basis.

  There are 4 irreducible representations.

       Irrep        # of functions
         1                 11
         2                  4
         3                  7
         4                  2


  Parameters for SCF calculation: 
        SCF reference function:  RHF  
  Maximum number of iterations:  150
     Full symmetry point group: C2v 
     Computational point group: C2v 
        Initial density matrix: MOREAD                 
     SCF convergence tolerance: 10**(-14)
  DIIS convergence acceleration:  ON
          Latest start for DIIS:   8
                     DIIS order:   6

     Alpha population by irrep:   3    1    1    0
      Beta population by irrep:   3    1    1    0


  Memory information:      62156 words required.
  Fock matrices are constructed from AO integral file.
  Initialization and symmetry analysis required      0.000 seconds.

 total no. of electrons in initial guess :  0.000000000000000E+000
  --------------------------------------------------------------------
  Iteration         Total Energy            Largest Density Difference
  --------------------------------------------------------------------
       0           -75.968708545279057              0.0000000000D+00
   current occupation vector 
     3  1  1  0
     3  1  1  0
       1           -75.961333321548238              0.2960142370D-02
   current occupation vector 
     3  1  1  0
     3  1  1  0
       2           -75.961337122213408              0.1446887872D-02
   current occupation vector 
     3  1  1  0
     3  1  1  0
       3           -75.961337886392414              0.6318551632D-03
   current occupation vector 
     3  1  1  0
     3  1  1  0
       4           -75.961337971057660              0.1860145325D-03
   current occupation vector 
     3  1  1  0
     3  1  1  0
       5           -75.961337980323847              0.6678564070D-04
   current occupation vector 
     3  1  1  0
     3  1  1  0
       6           -75.961337980819323              0.1955267574D-04
   current occupation vector 
     3  1  1  0
     3  1  1  0
       7           -75.961337980826457              0.2256909291D-05
   current occupation vector 
     3  1  1  0
     3  1  1  0
       8           -75.961337980826798              0.2933192533D-06
   current occupation vector 
     3  1  1  0
     3  1  1  0
       9           -75.961337980826826              0.6158448329D-07
   current occupation vector 
     3  1  1  0
     3  1  1  0
      10           -75.961337980826897              0.5252194346D-08
   current occupation vector 
     3  1  1  0
     3  1  1  0
      11           -75.961337980826784              0.9426919245D-09
   current occupation vector 
     3  1  1  0
     3  1  1  0
      12           -75.961337980826812              0.1134221606D-09
   current occupation vector 
     3  1  1  0
     3  1  1  0
      13           -75.961337980826769              0.3156352957D-10
   current occupation vector 
     3  1  1  0
     3  1  1  0
      14           -75.961337980826897              0.6639799821D-11
   current occupation vector 
     3  1  1  0
     3  1  1  0
      15           -75.961337980826841              0.1032063324D-11
   current occupation vector 
     3  1  1  0
     3  1  1  0
      16           -75.961337980826841              0.2913225217D-12
   current occupation vector 
     3  1  1  0
     3  1  1  0
      17           -75.961337980826869              0.9459100170D-13
   current occupation vector 
     3  1  1  0
     3  1  1  0
      18           -75.961337980826855              0.3819167205D-13
   current occupation vector 
     3  1  1  0
     3  1  1  0
      19           -75.961337980826883              0.1010302952D-13
   current occupation vector 
     3  1  1  0
     3  1  1  0

  SCF has converged.

 save density matrix on hard disk
 total electron number:   10.0000000000000     
     E(SCF)=       -75.961337980826855              0.6106226635D-14

  Eigenvector printing suppressed.

 @PUTMOS-I, Writing converged MOs to NEWMOS. 
 @PUTMOS-I, Symmetry   1 Full   2 Partial   3
 @PUTMOS-I, Symmetry   2 Full   1 Partial   0
 @PUTMOS-I, Symmetry   3 Full   1 Partial   3
 @PUTMOS-I, Symmetry   4 Full   0 Partial   2
 @PUTMOS-I, NEWMOS already exists and will be deleted. 


 
  ORBITAL EIGENVALUES (ALPHA)  (1H = 27.2113838 eV)

       MO #        E(hartree)               E(eV)           FULLSYM    COMPSYM
       ----   --------------------   --------------------   -------   ---------
    1     1         -20.5434517206        -559.0157497482      A1        A1 (1)
    2     2          -1.3250895707         -36.0575209031      A1        A1 (1)
    3    16          -0.7114264342         -19.3588977600      B2        B2 (3)
    4     3          -0.5695143567         -15.4972737517      A1        A1 (1)
    5    12          -0.4989037800         -13.5758622458      B1        B1 (2)
  +++++++++++++++++++++++++++++++++++++++++++++++++++++++++++++++++++++++++++++
    6     4           0.1782365014           4.8500618516      A1        A1 (1)
    7    17           0.2571400445           6.9971364451      B2        B2 (3)
    8    18           0.8061971233          21.9377393554      B2        B2 (3)
    9     5           0.8802540336          23.9529303671      A1        A1 (1)
   10     6           1.1838136381          32.2132072768      A1        A1 (1)
   11    13           1.2018228625          32.7032631955      B1        B1 (2)
   12    19           1.2679644908          34.5030684293      B2        B2 (3)
   13     7           1.3391085481          36.4389966780      A1        A1 (1)
   14    23           1.5988623619          43.5072574037      A2        A2 (4)
   15     8           1.6683412686          45.3978746032      A1        A1 (1)
   16    14           1.8143445812          49.3708267786      B1        B1 (2)
   17    20           2.0717430341          56.3749948766      B2        B2 (3)
   18    21           2.5973772864          70.6782302639      B2        B2 (3)
   19     9           2.6311351946          71.5968296616      A1        A1 (1)
   20    15           3.3363670993          90.7871657017      B1        B1 (2)
   21    24           3.4011451807          92.5498669375      A2        A2 (4)
   22    10           3.5876321071          97.6244342705      A1        A1 (1)
   23    11           3.9239395467         106.7758250909      A1        A1 (1)
   24    22           4.2448633228         115.5086051389      B2        B2 (3)


  VSCF finished.

  @CHECKOUT-I, Total execution time :       0.0000 seconds.
                0.00 seconds walltime passed
 --executable xvscf finished with status            0
 --invoking executable xvdint
 One- and two-electron integral derivatives are calculated
 for RHF gradients and dipole moments.
 Spherical gaussians are used.

                     Kinetic energy integral gradient
                     --------------------------------

                         O #1 z    -0.9453567726
                         H #2 y     1.2813160656
                         H #2 z     0.9453567726


 O #1       0.0000000000            0.0000000000           -0.9453567726
 H #2 1     0.0000000000            0.6406580328            0.4726783863
 H #2 2     0.0000000000           -0.6406580328            0.4726783863



                   Nuclear attraction integral gradient
                   ------------------------------------

                         O #1 z     8.4197879172
                         H #2 y   -11.4651946128
                         H #2 z    -8.4197879172


 O #1       0.0000000000            0.0000000000            8.4197879172
 H #2 1     0.0000000000           -5.7325973064           -4.2098939586
 H #2 2     0.0000000000            5.7325973064           -4.2098939586



                      Reorthonormalization gradient
                      -----------------------------

                         O #1 z    -0.4335631711
                         H #2 y     0.5419991491
                         H #2 z     0.4335631711


 O #1       0.0000000000            0.0000000000           -0.4335631711
 H #2 1     0.0000000000            0.2709995746            0.2167815856
 H #2 2     0.0000000000           -0.2709995746            0.2167815856



                Electronic contributions to dipole moment
                -----------------------------------------

                               au             Debye

                    z      0.12658033      0.32173516

  Conversion factor used: 1 a.u. =   2.54174691 Debye 


  Evaluation of 1e integral derivatives required    0.01 seconds.
  Evaluation of 2el integral derivatives

                      Two-electron integral gradient
                      ------------------------------

                         O #1 z    -3.9854330423
                         H #2 y     5.4105751225
                         H #2 z     3.9854330423


 O #1       0.0000000000            0.0000000000           -3.9854330423
 H #2 1     0.0000000000            2.7052875613            1.9927165211
 H #2 2     0.0000000000           -2.7052875613            1.9927165211


  Evaluation of 2e integral derivatives required    0.03 seconds.

                            Molecular gradient
                            ------------------

                         O #1 z    -0.0000385109
                         H #2 y     0.0007635227
                         H #2 z     0.0000385109


 O #1       0.0000000000            0.0000000000           -0.0000385109
 H #2 1     0.0000000000            0.0003817613            0.0000192555
 H #2 2     0.0000000000           -0.0003817613            0.0000192555


  Molecular gradient norm 0.765E-03

                           Total dipole moment
                           -------------------

                               au             Debye

                    z     -0.83061589     -2.11121536

  Conversion factor used: 1 a.u. =   2.54174691 Debye 


  @CHECKOUT-I, Total execution time :       0.0400 seconds.
                0.12 seconds walltime passed
 --executable xvdint finished with status            0
 --invoking executable xjoda
   JODA beginning optimization cycle #  3.
   Retrieving information from last optimization cycle.
 OriVec is   0.000000000000000E+000  -1.00000000000000     
  0.000000000000000E+000                    -2
   Internal coordinate forces and energy gradients (atomic units): 
           R       dV/dR             R       dV/dR             R       dV/dR
 [R    ]  1.78531 -0.0003146 [R    ]  1.78531 -0.0003146 [A    ]  1.83281 -0.0003876
                     2                    -1                     0 ****
   Hessian from cycle  2 read.
   BFGS update using last two gradients and previous step.
   Optimization cycle  3.  Updating structure with Newton-Raphson step.
  @EFOL-I, Current internal coordinate Hessian written to FCMINT.
   There are   2 independent internal coordinates which will be optimized.
   Hessian matrix in totally symmetric symmetry coordinates: 
              R         A    
  R          0.632821  0.071411
  A          0.071411  0.245349
   The eigenvectors of the Hessian matrix: 
                   1         2
  R          0.175658  0.984451
  A         -0.984451  0.175658
   The eigenvalues of the Hessian matrix: 
     0.23261    0.64556
   Gradients along Hessian eigenvectors: 
     0.00030   -0.00051
   There are  0 negative eigenvalues.
   Summary of Optimization Cycle: 
   The maximum unscaled step is:    0.00147.
   Scale factor set to:  1.00000.
   Forces are in hartree/bohr and hartree/radian.
   Parameter values are in Angstroms and degrees.
--------------------------------------------------------------------------
  Parameter     dV/dR           Step          Rold            Rnew
--------------------------------------------------------------------------
    R      -0.0003146174    0.0002030562    0.9447444044    0.9449474606
    A      -0.0003875739    0.0814594066  105.0125563283  105.0940157349
--------------------------------------------------------------------------
  Minimum force:  0.000314617 / RMS force:  0.000352986
 Updating structure...
   Rotational constants (in cm-1): 
          9.7706236854            14.8623139079            28.5198175739
   Rotational constants (in MHz): 
     292915.9701211175        445561.0242248246        855002.7410013772
 ----------------------------------------------------------------
 Z-matrix   Atomic            Coordinates (in bohr)
  Symbol    Number           X              Y              Z
 ----------------------------------------------------------------
     O         8         0.00000000     0.00000000     0.12152813
     H         1         0.00000000    -1.41757633    -0.96436978
     H         1         0.00000000     1.41757633    -0.96436978
 ----------------------------------------------------------------
   Interatomic distance matrix (Angstroms) 
 
                 O             H             H    
                [ 1]        [ 2]        [ 3]
  O    [ 1]     0.00000
  H    [ 2]     0.94495     0.00000
  H    [ 3]     0.94495     1.50030     0.00000
   Rotational constants (in cm-1): 
          9.7706236854            28.5198175739            14.8623139079
   Rotational constants (in MHz): 
     292915.9701211174        855002.7410013775        445561.0242248246
  There are   24 basis functions.
                0.00 seconds walltime passed
 --executable xjoda finished with status            0
 --invoking executable xvmol
 Serial version of molecule started
 
    -------------------------------------------------------------------
                    Input from MOL file
    -------------------------------------------------------------------
 INTGRL        1    0    1    0    0    0    0    0    0                        
          *** CFOUR Program System (Release V0.1) ***                           
 Geometry optimization of H2O at HF-SCF level                                   
     2    2 X  Y       0.10E-08              0    0                             
    9999.00      3.00                                                           
           8.00000000    1    3    2    2    1                                  
 O #1      0.000000000000      0.000000000000      0.121528127079               
     5    1                                                                     
    2266.17677850000      -5.343200000000000E-003                               
    340.870101900000      -3.989000000000000E-002                               
    77.3631352000000      -0.178539100000000                                    
    21.4796449000000      -0.464276800000000                                    
    6.65894330000000      -0.443097500000000                                    
     2    2                                                                     
   0.809759800000000        1.00000000000000       0.000000000000000E+000       
   0.255307700000000       0.000000000000000E+000   1.00000000000000            
     3    1                                                                     
    17.7215043000000       4.339460000000000E-002                               
    3.86355050000000       0.230941200000000                                    
    1.04809210000000       0.513753100000000                                    
     1    1                                                                     
   0.276415400000000        1.00000000000000                                    
     1    1                                                                     
    1.20000000000000        1.00000000000000                                    
           1.00000000    1    2    1    1                                       
 H #2      0.000000000000     -1.417576326011     -0.964369781595               
     4    2                                                                     
    13.0107010000000       1.968220000000000E-002  0.000000000000000E+000       
    1.96225720000000       0.137965200000000       0.000000000000000E+000       
   0.444538000000000       0.478319300000000       0.000000000000000E+000       
   0.121949600000000       0.000000000000000E+000   1.00000000000000            
     1    1                                                                     
   0.800000000000000        1.00000000000000                                    
 FINISH                                                                         
 
    -------------------------------------------------------------------
 
 One- and two-electron integrals over symmetry-adapted AOs are calculated.

  Spherical harmonics are used.
  
  Integrals less than  0.10E-13 are neglected.

   Basis function not normalized: 
   Center (as ordered in MOL file):   1
   Angular Momentum type          : s
   Offset within angular momentum :  1
   <chi|chi>                      :    1.0086408406
   Basis function not normalized: 
   Center (as ordered in MOL file):   1
   Angular Momentum type          : p
   Offset within angular momentum :  1
   <chi|chi>                      :    1.4432737704
   Basis function not normalized: 
   Center (as ordered in MOL file):   2
   Angular Momentum type          : s
   Offset within angular momentum :  1
   <chi|chi>                      :    1.7013118403
[...]
    17.7215043000000       4.339460000000000E-002                               
    3.86355050000000       0.230941200000000                                    
    1.04809210000000       0.513753100000000                                    
     1    1                                                                     
   0.276415400000000        1.00000000000000                                    
     1    1                                                                     
    1.20000000000000        1.00000000000000                                    
           1.00000000    1    2    1    1                                       
 H #2      0.000000000000     -1.418385590346      0.963527481815               
     4    2                                                                     
    13.0107010000000       1.968220000000000E-002  0.000000000000000E+000       
    1.96225720000000       0.137965200000000       0.000000000000000E+000       
   0.444538000000000       0.478319300000000       0.000000000000000E+000       
   0.121949600000000       0.000000000000000E+000   1.00000000000000            
     1    1                                                                     
   0.800000000000000        1.00000000000000                                    
 FINISH                                                                         
 
    -------------------------------------------------------------------
 
 One- and two-electron integrals over symmetry-adapted AOs are calculated.

  Spherical harmonics are used.
  
  Integrals less than  0.10E-13 are neglected.

   Basis function not normalized: 
   Center (as ordered in MOL file):   1
   Angular Momentum type          : s
   Offset within angular momentum :  1
   <chi|chi>                      :    1.0086408406
   Basis function not normalized: 
   Center (as ordered in MOL file):   1
   Angular Momentum type          : p
   Offset within angular momentum :  1
   <chi|chi>                      :    1.4432737704
   Basis function not normalized: 
   Center (as ordered in MOL file):   2
   Angular Momentum type          : s
   Offset within angular momentum :  1
   <chi|chi>                      :    1.7013118403
  Nuclear repulsion energy :    9.3122921671 a.u.
  required memory for a1 array                3001252  words 
  required memory for a2 array                2004428  words 
 basis number:   8    15
 basis number:   1     5
  @MOLECU-I, One electron integrals required         0.00000 seconds.
  @TWOEL-I,       2350 integrals of symmetry type  I I I I
  @TWOEL-I,       4467 integrals of symmetry type  I J I J
  @TWOEL-I,       2860 integrals of symmetry type  I I J J
  @TWOEL-I,       1735 integrals of symmetry type  I J K L
  @TWOEL-I, Total number of 2-e integrals      11412.
  @MOLECU-I, Two electron integrals required         0.03000 seconds.
  @CHECKOUT-I, Total execution time :       0.0300 seconds.
                0.12 seconds walltime passed
 --executable xvmol finished with status            0
 --invoking executable xvmol2ja
  @CHECKOUT-I, Total execution time :       0.0000 seconds.
                0.00 seconds walltime passed
 --executable xvmol2ja finished with status            0
 --invoking executable xvscf
 NSOSCF                     0
  There are   24 functions in the AO basis.

  There are 4 irreducible representations.

       Irrep        # of functions
         1                 11
         2                  4
         3                  7
         4                  2


  Parameters for SCF calculation: 
        SCF reference function:  RHF  
  Maximum number of iterations:  150
     Full symmetry point group: C2v 
     Computational point group: C2v 
        Initial density matrix: MOREAD                 
     SCF convergence tolerance: 10**(-12)
  DIIS convergence acceleration:  ON
          Latest start for DIIS:   8
                     DIIS order:   6

  Memory information:      62156 words required.
  Fock matrices are constructed from AO integral file.
  Initialization and symmetry analysis required      0.000 seconds.

  @INITGES-I, Occupancies from core Hamiltonian:

          Alpha population by irrep:   3    1    1    0
           Beta population by irrep:   3    1    1    0


 total no. of electrons in initial guess :  0.000000000000000E+000
  --------------------------------------------------------------------
  Iteration         Total Energy            Largest Density Difference
  --------------------------------------------------------------------
       0             9.312292167075489              0.0000000000D+00
   current occupation vector 
     3  1  1  0
     3  1  1  0
       1           -68.909868810622029              0.3512548586D+01
   current occupation vector 
     3  1  1  0
     3  1  1  0
       2           -69.854603500697991              0.5483969947D+01
   current occupation vector 
     3  0  2  0
     3  0  2  0
       3           -73.288292852102785              0.5478776630D+01
   current occupation vector 
     3  1  1  0
     3  1  1  0
       4           -73.338587318944647              0.4315941256D+01
   current occupation vector 
     4  0  1  0
     4  0  1  0
       5           -74.649372489906838              0.4257603277D+01
   current occupation vector 
     3  1  1  0
     3  1  1  0
       6           -75.462584259413774              0.1070074600D+01
   current occupation vector 
     3  1  1  0
     3  1  1  0
       7           -75.789897268375711              0.7061732250D+00
   current occupation vector 
     3  1  1  0
     3  1  1  0
       8           -75.903193077345364              0.3633297172D+00
   current occupation vector 
     3  1  1  0
     3  1  1  0
       9           -75.961324915952233              0.1354617968D+00
   current occupation vector 
     3  1  1  0
     3  1  1  0
      10           -75.961337081400202              0.2248722114D-02
   current occupation vector 
     3  1  1  0
     3  1  1  0
      11           -75.961338422981513              0.8672637478D-03
   current occupation vector 
     3  1  1  0
     3  1  1  0
      12           -75.961338460081336              0.1549416837D-03
   current occupation vector 
     3  1  1  0
     3  1  1  0
      13           -75.961338460421800              0.2441236858D-04
   current occupation vector 
     3  1  1  0
     3  1  1  0
      14           -75.961338460432572              0.2645775060D-05
   current occupation vector 
     3  1  1  0
     3  1  1  0
      15           -75.961338460433069              0.8367485751D-06
   current occupation vector 
     3  1  1  0
     3  1  1  0
      16           -75.961338460433211              0.1278566567D-06
   current occupation vector 
     3  1  1  0
     3  1  1  0
      17           -75.961338460433083              0.2822196254D-07
   current occupation vector 
     3  1  1  0
     3  1  1  0
      18           -75.961338460433325              0.6727553292D-08
   current occupation vector 
     3  1  1  0
     3  1  1  0
      19           -75.961338460433339              0.8418862274D-09
   current occupation vector 
     3  1  1  0
     3  1  1  0
      20           -75.961338460433197              0.8369610560D-10
   current occupation vector 
     3  1  1  0
     3  1  1  0
      21           -75.961338460433225              0.2024380663D-10
   current occupation vector 
     3  1  1  0
     3  1  1  0
      22           -75.961338460433424              0.6558087406D-11
   current occupation vector 
     3  1  1  0
     3  1  1  0
      23           -75.961338460433240              0.1774913549D-11
   current occupation vector 
     3  1  1  0
     3  1  1  0

  SCF has converged.

 save density matrix on hard disk
 total electron number:   10.0000000000000     
     E(SCF)=       -75.961338460433154              0.2357003481D-12

  Eigenvector printing suppressed.

 @PUTMOS-I, Writing converged MOs to NEWMOS. 
 @PUTMOS-I, Symmetry   1 Full   2 Partial   3
 @PUTMOS-I, Symmetry   2 Full   1 Partial   0
 @PUTMOS-I, Symmetry   3 Full   1 Partial   3
 @PUTMOS-I, Symmetry   4 Full   0 Partial   2


 
  ORBITAL EIGENVALUES (ALPHA)  (1H = 27.2113838 eV)

       MO #        E(hartree)               E(eV)           FULLSYM    COMPSYM
       ----   --------------------   --------------------   -------   ---------
    1     1         -20.5434033682        -559.0144340117      A1        A1 (1)
    2     2          -1.3248220892         -36.0502423614      A1        A1 (1)
    3    16          -0.7116040092         -19.3637298209      B2        B2 (3)
    4     3          -0.5691438949         -15.4871929737      A1        A1 (1)
    5    12          -0.4988238751         -13.5736879235      B1        B1 (2)
  +++++++++++++++++++++++++++++++++++++++++++++++++++++++++++++++++++++++++++++
    6     4           0.1782353171           4.8500296248      A1        A1 (1)
    7    17           0.2570862964           6.9956738861      B2        B2 (3)
    8    18           0.8066245925          21.9493713843      B2        B2 (3)
    9     5           0.8792697474          23.9261465769      A1        A1 (1)
   10     6           1.1838007653          32.2128569903      A1        A1 (1)
   11    13           1.2018711913          32.7045782879      B1        B1 (2)
   12    19           1.2678395382          34.4996682951      B2        B2 (3)
   13     7           1.3388038764          36.4307061405      A1        A1 (1)
   14    23           1.5982705874          43.4911544018      A2        A2 (4)
   15     8           1.6705107805          45.4569100218      A1        A1 (1)
   16    14           1.8152066405          49.3942846056      B1        B1 (2)
   17    20           2.0703467784          56.3370008279      B2        B2 (3)
   18    21           2.5972696979          70.6753026318      B2        B2 (3)
   19     9           2.6303752178          71.5761496410      A1        A1 (1)
   20    15           3.3352022948          90.7554697584      B1        B1 (2)
   21    24           3.4015709481          92.5614526585      A2        A2 (4)
   22    10           3.5863317429          97.5890495598      A1        A1 (1)
   23    11           3.9250697885         106.8065805345      A1        A1 (1)
   24    22           4.2435488323         115.4728360326      B2        B2 (3)


  VSCF finished.

  @CHECKOUT-I, Total execution time :       0.0100 seconds.
                0.00 seconds walltime passed
 --executable xvscf finished with status            0
 --invoking executable xvdint
 One- and two-electron integral derivatives are calculated
 for RHF gradients and dipole moments.
 Spherical gaussians are used.

                     Kinetic energy integral gradient
                     --------------------------------

                         O #1 z     0.9424680921
                         H #2 y     1.2823759325
                         H #2 z    -0.9424680921


 O #1       0.0000000000            0.0000000000            0.9424680921
 H #2 1     0.0000000000            0.6411879663           -0.4712340460
 H #2 2     0.0000000000           -0.6411879663           -0.4712340460



                   Nuclear attraction integral gradient
                   ------------------------------------

                         O #1 z    -8.3973247457
                         H #2 y   -11.4771305282
                         H #2 z     8.3973247457


 O #1       0.0000000000            0.0000000000           -8.3973247457
 H #2 1     0.0000000000           -5.7385652641            4.1986623728
 H #2 2     0.0000000000            5.7385652641            4.1986623728



                      Reorthonormalization gradient
                      -----------------------------

                         O #1 z     0.4324831102
                         H #2 y     0.5425881521
                         H #2 z    -0.4324831102


 O #1       0.0000000000            0.0000000000            0.4324831102
 H #2 1     0.0000000000            0.2712940760           -0.2162415551
 H #2 2     0.0000000000           -0.2712940760           -0.2162415551



                Electronic contributions to dipole moment
                -----------------------------------------

                               au             Debye

                    z     -0.12593298     -0.32008976

  Conversion factor used: 1 a.u. =   2.54174691 Debye 


  Evaluation of 1e integral derivatives required    0.00 seconds.
  Evaluation of 2el integral derivatives

                      Two-electron integral gradient
                      ------------------------------

                         O #1 z     3.9741058847
                         H #2 y     5.4183044551
                         H #2 z    -3.9741058847


 O #1       0.0000000000            0.0000000000            3.9741058847
 H #2 1     0.0000000000            2.7091522275           -1.9870529423
 H #2 2     0.0000000000           -2.7091522275           -1.9870529423


  Evaluation of 2e integral derivatives required    0.04 seconds.

                            Molecular gradient
                            ------------------

                         O #1 z     0.0000582379
                         H #2 y    -0.0001665387
                         H #2 z    -0.0000582379


 O #1       0.0000000000            0.0000000000            0.0000582379
 H #2 1     0.0000000000           -0.0000832693           -0.0000291190
 H #2 2     0.0000000000            0.0000832693           -0.0000291190


  Molecular gradient norm 0.186E-03

                           Total dipole moment
                           -------------------

                               au             Debye

                    z      0.82974613      2.10900466

  Conversion factor used: 1 a.u. =   2.54174691 Debye 


  @CHECKOUT-I, Total execution time :       0.0400 seconds.
                0.12 seconds walltime passed
 --executable xvdint finished with status            0
 --invoking executable xjoda
                0.00 seconds walltime passed
 --executable xjoda finished with status            0

  //>>>>>>>>>>>>>>>>>>>>>>>>>>>>>>>>>>>//
  //    Cfour cfour Gradient Results   //
  //<<<<<<<<<<<<<<<<<<<<<<<<<<<<<<<<<<<//


  Variable Map:
  ----------------------------------------------------------------------------
  "CFOUR ERROR CODE"         =>       0.000000000000
  "CURRENT ENERGY"           =>     -75.961338460433
  "CURRENT REFERENCE ENERGY" =>     -75.961338460433
  "NUCLEAR REPULSION ENERGY" =>       9.312292167100
  "SCF TOTAL ENERGY"         =>     -75.961338460433


  Irrep: 1 Size: 3 x 3

                 1            2            3

    1    0.0000000    0.0000000    0.0000582
    2    0.0000000   -0.0000833   -0.0000291
    3    0.0000000    0.0000833   -0.0000291




  CFOUR scratch file GRD has been read
    3        0.0000000000
        8.0000000000        0.0000000000        0.0000000000       -0.1214219820
        1.0000000000        0.0000000000       -1.4183855903        0.9635274818
        1.0000000000        0.0000000000        1.4183855903        0.9635274818
        8.0000000000        0.0000000000        0.0000000000        0.0000582379
        1.0000000000        0.0000000000       -0.0000832693       -0.0000291190
        1.0000000000        0.0000000000        0.0000832693       -0.0000291190



			-----------------------------------------
			 OPTKING 2.0: for geometry optimizations 
			  - R.A. King,  Bethel University        
			-----------------------------------------

	Previous internal coordinate definitions found.
	---Fragment 1 Geometry and Gradient---
	 O           0.0000000000        0.0000000000       -0.1214219568
	 H           0.0000000000       -1.4183852992        0.9635272843
	 H           0.0000000000        1.4183852992        0.9635272843
	             0.0000000000        0.0000000000        0.0000582379
	             0.0000000000       -0.0000832693       -0.0000291190
	             0.0000000000        0.0000832693       -0.0000291190

	---Fragment 1 Intrafragment Coordinates---
	 - Coordinate -           - BOHR/RAD -       - ANG/DEG -
	 R(1,2)           =         1.785758	       0.944983
	 R(1,3)           =         1.785758	       0.944983
	 B(2,1,3)         =         1.835631	     105.173910

	Current energy   :       -75.9613384604

	Energy change for the previous step:
		Projected    :        -0.0000072618
		Actual       :        -0.0000066365
	Energy ratio indicates good step: Trust radius increased to 1.000e+00.


	Performing BFGS update with previous 1 gradient(s).
	Going to follow RFO solution 1.
	Projected energy change by RFO approximation:        -0.0000000506

	Back-transformation to cartesian coordinates...
	Successfully converged to displaced geometry.

	---Internal Coordinate Step in ANG or DEG, aJ/ANG or AJ/DEG ---
	 ----------------------------------------------------------------------
	 Coordinate             Previous        Force       Change         New 
	 ----------             --------       ------       ------       ------
	 R(1,2)          =      0.944983    -0.000399    -0.000021     0.944961
	 R(1,3)          =      0.944983    -0.000399    -0.000021     0.944961
	 B(2,1,3)        =    105.173910    -0.000010    -0.042356   105.131554
	 ----------------------------------------------------------------------

  ==> Convergence Check <==

  Measures of convergence in internal coordinates in au.
  Criteria marked as inactive (o), active & met (*), and active & unmet ( ).
  ---------------------------------------------------------------------------------------------
   Step     Total Energy     Delta E     MAX Force     RMS Force      MAX Disp      RMS Disp   
  ---------------------------------------------------------------------------------------------
    Convergence Criteria    1.00e-06 *    3.00e-04 *             o    1.20e-03 *             o
  ---------------------------------------------------------------------------------------------
      3     -75.96133846   -6.64e-06      1.32e-04 *    8.57e-05 o    7.39e-04 *    4.28e-04 o  ~
  ---------------------------------------------------------------------------------------------


  **** Optimization is complete! ****

  ==> Optimization Summary <==

  Measures of convergence in internal coordinates in au.
  --------------------------------------------------------------------------------------------------------------- ~
   Step         Total Energy             Delta E       MAX Force       RMS Force        MAX Disp        RMS Disp  ~
  --------------------------------------------------------------------------------------------------------------- ~
      1     -75.960971986944    -75.960971986944      0.01453108      0.01186891      0.02595696      0.02128740  ~
      2     -75.961331823936     -0.000359836992      0.00140697      0.00117772      0.00830754      0.00492273  ~
      3     -75.961338460433     -0.000006636497      0.00013164      0.00008568      0.00073926      0.00042807  ~
  --------------------------------------------------------------------------------------------------------------- ~

	Writing optimization data to binary file.
	Final energy is    -75.9613384604332
	Final (previous) structure:
	Cartesian Geometry (in Angstrom)
	    O     0.0000000000   0.0000000000  -0.0642537371
	    H     0.0000000000  -0.7505772307   0.5098767176
	    H     0.0000000000   0.7505772307   0.5098767176
	Saving final (previous) structure.
			--------------------------
			 OPTKING Finished Execution 
			--------------------------

    Final optimized geometry and variables:
    Molecular point group: c2v
    Full point group: C2v

    Geometry (in Angstrom), charge = 0, multiplicity = 1:

    O       
    H             1           R
    H             1           R      2           A

    A         =  105.1739100418
    R         =    0.9449824453


*** PSI4 exiting successfully. Buy a developer a beer!
