
    -----------------------------------------------------------------------
          Psi4: An Open-Source Ab Initio Electronic Structure Package
                               Psi4 1.4a2.dev514 

                         Git: Rev {rho_cutoff} 479097d dirty


    R. M. Parrish, L. A. Burns, D. G. A. Smith, A. C. Simmonett,
    A. E. DePrince III, E. G. Hohenstein, U. Bozkaya, A. Yu. Sokolov,
    R. Di Remigio, R. M. Richard, J. F. Gonthier, A. M. James,
    H. R. McAlexander, A. Kumar, M. Saitow, X. Wang, B. P. Pritchard,
    P. Verma, H. F. Schaefer III, K. Patkowski, R. A. King, E. F. Valeev,
    F. A. Evangelista, J. M. Turney, T. D. Crawford, and C. D. Sherrill,
    J. Chem. Theory Comput. 13(7) pp 3185--3197 (2017).
    (doi: 10.1021/acs.jctc.7b00174)


                         Additional Contributions by
    P. Kraus, H. Kruse, M. H. Lechner, M. C. Schieber, R. A. Shaw,
    A. Alenaizan, R. Galvelis, Z. L. Glick, S. Lehtola, and J. P. Misiewicz

    -----------------------------------------------------------------------


    Psi4 started on: Wednesday, 15 April 2020 11:27AM

    Process ID: 47675
    Host:       hokru.local
    PSIDATADIR: /Users/kruse/qc/psi4.bin/share/psi4
    Memory:     500.0 MiB
    Threads:    1
    
  ==> Input File <==

--------------------------------------------------------------------------
# LibXC density screening test. Tests empty, C-only, X-only and XC superfunctionals.
# 'super_mix' showcases how to use different screening values for X and C parts.
# SCF will fail or crash (nans) without screening!

molecule h2o {
0 2
H
}

set {
print 1
basis sto-3g
dft_spherical_points 302
dft_radial_points 50
dft_pruning_scheme treutler
reference uks
}

cut_val = 1e-10
set DFT_DENSITY_TOLERANCE $cut_val


# build the various functionals.
def super(name, npoints, deriv, restricted):
    sup = core.SuperFunctional.blank()
    sup.set_name('test')
    sup.set_description('   Empty SuperFunctional\n')
    return sup


def super_c(name, npoints, deriv, restricted):
    sup = core.SuperFunctional.blank()
    sup.set_name('test')
    sup.set_description('   C-only SuperFunctional\n')
    sup.add_c_functional(core.LibXCFunctional('XC_MGGA_C_TPSS', restricted))
    return sup


def super_x(name, npoints, deriv, restricted):
    sup = core.SuperFunctional.blank()
    sup.set_name('test')
    sup.set_description('   X-only SuperFunctional\n')
    sup.add_x_functional(core.LibXCFunctional('XC_MGGA_X_TPSS', restricted))
    return sup


def super_xc(name, npoints, deriv, restricted):
    sup = core.SuperFunctional.blank()
    sup.set_name('test')
    sup.set_description('   XC SuperFunctional\n')
    sup.add_x_functional(core.LibXCFunctional('XC_MGGA_X_TPSS', restricted))
    sup.add_x_functional(core.LibXCFunctional('XC_MGGA_X_TPSS', restricted))
    sup.add_c_functional(core.LibXCFunctional('XC_MGGA_C_TPSS', restricted))
    sup.add_c_functional(core.LibXCFunctional('XC_MGGA_C_TPSS', restricted))
    return sup


# LibXCFunctional PsiAPI test. Custom thresholds.
def super_mix(name, npoints, deriv, restricted):
    sup = core.SuperFunctional.blank()
    sup.set_name('test')
    sup.set_description('   XC SuperFunctional\n')
    Cfun = core.LibXCFunctional('XC_MGGA_C_TPSS', restricted)
    Cfun.set_density_cutoff(1e-9)
    Xfun = core.LibXCFunctional('XC_MGGA_X_TPSS', restricted)
    Xfun2 = core.LibXCFunctional('XC_LDA_X', restricted)
    Xfun.set_density_cutoff(1e-8)
    sup.add_c_functional(Cfun)
    sup.add_x_functional(Xfun)
    sup.add_x_functional(Xfun2)
    return sup


ref_vals = { #TEST
    'WB97X-V':-0.4650551043168708, #TEST
    'EMPTY': -0.0794260295393005, #TEST
    'Conly': -0.0794260295393005, #TEST
    'Xonly': -0.4667410699056061, #TEST
    'XC': -0.8540561102719116, #TEST
    'MIX': -0.7988413011640255, #TEST
    'CUT_C': 1.0E-9.as_integer_ratio(), #TEST
    'CUT_X': 1.0E-8.as_integer_ratio(), #TEST
} #TEST


# libxc-defined functional
func_call, wfn1 = energy('WB97X-V',return_wfn=True)
func = wfn1.V_potential().functional()
cut = func.density_tolerance()
print(cut)
compare_values(ref_vals["WB97X-V"], func_call, 6, "is_libxc SuperFunctional")  #TEST
compare_integers(cut_val.as_integer_ratio(), cut.as_integer_ratio()," is_libxc density_tolernace")

# empty functional (=HF)
func_call = energy('SCF', dft_functional=super)
compare_values(ref_vals["EMPTY"], func_call, 6, "Empty SuperFunctional")  #TEST

# C-only functional and smo
func_call, wfn = energy('SCF', dft_functional=super_c, return_wfn=True)
compare_values(ref_vals["Conly"], func_call, 6, "C-only SuperFunctional")  #TEST

# test the PsiAPI
func = wfn.V_potential().functional()
func.print_density_threshold()
density_cutoff = func.c_functionals()[0].density_cutoff()
compare_values(cut_val.as_integer_ratio(), density_cutoff.as_integer_ratio(),
               "LibXCFunctional density_cutoff")  #TEST
density_tolerance = func.density_tolerance()
compare_integers(cut_val.as_integer_ratio(), density_tolerance.as_integer_ratio(),
               "SuperFunctional density_tolerance")  #TEST

# X-only
func_call = energy('SCF', dft_functional=super_x)
compare_values(ref_vals["Xonly"], func_call, 6, "X-only SuperFunctional")  #TEST

# XC (normal case)
func_call = energy('SCF', dft_functional=super_xc)
compare_values(ref_vals["XC"], func_call, 6, "normal XC SuperFunctional")  #TEST

# turn off default screening for next test to allow custom values
set DFT_DENSITY_TOLERANCE -1.0

# custom XC with different sceening values for X and C
func_call, wfn_mix = energy('SCF', dft_functional=super_mix,return_wfn=True)
compare_values(ref_vals["MIX"], func_call, 6, "individual screening")  #TEST
func = wfn_mix.V_potential().functional()
cut_c = func.c_functionals()[0].density_cutoff()
cut_x = func.x_functionals()[0].density_cutoff()
compare_integers(ref_vals["CUT_C"],cut_c.as_integer_ratio(),"screening value C")  #TEST
compare_integers(ref_vals["CUT_X"],cut_x.as_integer_ratio(),"screening value X")  #TEST
--------------------------------------------------------------------------

Scratch directory: /Users/kruse/scratch/PSI4/H_atom/dft-dens-cut/

*** tstart() called on hokru.local
*** at Wed Apr 15 11:27:34 2020

   => Loading Basis Set <=

    Name: STO-3G
    Role: ORBITAL
    Keyword: BASIS
    atoms 1 entry H          line    19 file /Users/kruse/qc/psi4.bin/share/psi4/basis/sto-3g.gbs 


         ---------------------------------------------------------
                                   SCF
               by Justin Turney, Rob Parrish, Andy Simmonett
                          and Daniel G. A. Smith
                              UKS Reference
                        1 Threads,    500 MiB Core
         ---------------------------------------------------------

  ==> Geometry <==

    Molecular point group: d2h
    Geometry (in Angstrom), charge = 0, multiplicity = 2:

       Center              X                  Y                   Z               Mass       
    ------------   -----------------  -----------------  -----------------  -----------------
         H            0.000000000000     0.000000000000     0.000000000000     1.007825032230

  Running in d2h symmetry.

  Rotational constants: A = ************  B = ************  C = ************ [cm^-1]
  Rotational constants: A = ************  B = ************  C = ************ [MHz]
  Nuclear repulsion =    0.000000000000000

  Charge       = 0
  Multiplicity = 2
  Electrons    = 1
  Nalpha       = 1
  Nbeta        = 0

  ==> Algorithm <==

  SCF Algorithm Type is DF.
  DIIS enabled.
  MOM disabled.
  Fractional occupation disabled.
  Guess Type is CORE.
  Energy threshold   = 1.00e-06
  Density threshold  = 1.00e-06
  Integral threshold = 0.00e+00

  ==> Primary Basis <==

  Basis Set: STO-3G
    Blend: STO-3G
    Number of shells: 1
    Number of basis function: 1
    Number of Cartesian functions: 1
    Spherical Harmonics?: true
    Max angular momentum: 0

  ==> DFT Potential <==

   => Composite Functional: WB97X-V <= 

    wB97X-V Hyb-GGA Exchange-Correlation Functional

    N. Mardirossian and M. Head-Gordon, Phys. Chem. Chem. Phys. 16, 9904 (2014)

    Deriv               =              1
    GGA                 =           TRUE
    Meta                =          FALSE

    Exchange Hybrid     =           TRUE
    MP2 Hybrid          =          FALSE

   => Exchange-Correlation Functionals <=

    1.0000   wB97X-V range-separated functional

   => Exact (HF) Exchange <=

    0.8330            HF,LR [omega = 0.3000]
    0.1670               HF 

   => LibXC Density Thresholds  <==

    XC_HYB_GGA_XC_WB97X_V:  1.00E-10 

   => VV10 Non-Local Parameters <=

    VV10 B              =     6.0000E+00
    VV10 C              =     1.0000E-02

   => Molecular Quadrature <=

    Radial Scheme          =       TREUTLER
    Pruning Scheme         =       TREUTLER
    Pruning Type           =         REGION
    Nuclear Scheme         =       TREUTLER

    BS radius alpha        =              1
    Pruning alpha          =              1
    Radial Points          =             50
    Spherical Points       =            302
    Total Points           =           8416
    Total Blocks           =             98
    Max Points             =            256
    Max Functions          =              1
    Weights Tolerance      =       1.00E-15

   => Loading Basis Set <=

    Name: (STO-3G AUX)
    Role: JKFIT
    Keyword: DF_BASIS_SCF
    atoms 1 entry H          line    18 file /Users/kruse/qc/psi4.bin/share/psi4/basis/def2-universal-jkfit.gbs 

  ==> Integral Setup <==

  DFHelper Memory: AOs need 0.000 GiB; user supplied 0.366 GiB. Using in-core AOs.

  ==> MemDFJK: Density-Fitted J/K Matrices <==

    J tasked:                   Yes
    K tasked:                   Yes
    wK tasked:                  Yes
    Omega:                3.000E-01
    OpenMP threads:               1
    Memory [MiB]:               374
    Algorithm:                 Core
    Schwarz Cutoff:           1E-12
    Mask sparsity (%):       0.0000
    Fitting Condition:        1E-10

   => Auxiliary Basis Set <=

  Basis Set: (STO-3G AUX)
    Blend: DEF2-UNIVERSAL-JKFIT
    Number of shells: 6
    Number of basis function: 18
    Number of Cartesian functions: 20
    Spherical Harmonics?: true
    Max angular momentum: 2

  Cached 100.0% of DFT collocation blocks in 0.000 [GiB].

  Minimum eigenvalue in the overlap matrix is 1.0000000000E+00.
  Reciprocal condition number of the overlap matrix is 1.0000000000E+00.
    Using symmetric orthogonalization.

  ==> Pre-Iterations <==

  SCF Guess: Core (One-Electron) Hamiltonian.

   -------------------------------------------------------
    Irrep   Nso     Nmo     Nalpha   Nbeta   Ndocc  Nsocc
   -------------------------------------------------------
     Ag         1       1       1       0       0       1
     B1g        0       0       0       0       0       0
     B2g        0       0       0       0       0       0
     B3g        0       0       0       0       0       0
     Au         0       0       0       0       0       0
     B1u        0       0       0       0       0       0
     B2u        0       0       0       0       0       0
     B3u        0       0       0       0       0       0
   -------------------------------------------------------
    Total       1       1       1       0       0       1
   -------------------------------------------------------

  ==> Iterations <==

                           Total Energy        Delta E     RMS |[F,P]|

   @DF-UKS iter   1:    -0.46505510431687   -4.65055e-01   0.00000e+00 DIIS
   @DF-UKS iter   2:    -0.46505510431687    0.00000e+00   0.00000e+00 DIIS
  Energy and wave function converged.


  ==> Post-Iterations <==

   @Spin Contamination Metric:   0.000000000E+00
   @S^2 Expected:                7.500000000E-01
   @S^2 Observed:                7.500000000E-01
   @S   Expected:                5.000000000E-01
   @S   Observed:                5.000000000E-01

    Orbital Energies [Eh]
    ---------------------

    Alpha Occupied:                                                       

       1Ag    -0.352842  

    Alpha Virtual:                                                        

    

    Beta Occupied:                                                        

    

    Beta Virtual:                                                         

       1Ag     0.670955  

    Final Occupation by Irrep:
             Ag   B1g   B2g   B3g    Au   B1u   B2u   B3u 
    DOCC [     0,    0,    0,    0,    0,    0,    0,    0 ]
    SOCC [     1,    0,    0,    0,    0,    0,    0,    0 ]

  @DF-UKS Final Energy:    -0.46505510431687

   => Energetics <=

    Nuclear Repulsion Energy =              0.0000000000000000
    One-Electron Energy =                  -0.4665818495572753
    Two-Electron Energy =                   0.1953223815292989
    DFT Exchange-Correlation Energy =      -0.1984017296398981
    Empirical Dispersion Energy =           0.0000000000000000
    VV10 Nonlocal Energy =                  0.0046060933510037
    Total Energy =                         -0.4650551043168708

  UHF NO Occupations:
  HONO-0 :    1 Ag 1.0000000


Computation Completed


Properties will be evaluated at   0.000000,   0.000000,   0.000000 [a0]

Properties computed using the SCF density matrix

  Nuclear Dipole Moment: [e a0]
     X:     0.0000      Y:     0.0000      Z:     0.0000

  Electronic Dipole Moment: [e a0]
     X:     0.0000      Y:     0.0000      Z:     0.0000

  Dipole Moment: [e a0]
     X:     0.0000      Y:     0.0000      Z:     0.0000     Total:     0.0000

  Dipole Moment: [D]
     X:     0.0000      Y:     0.0000      Z:     0.0000     Total:     0.0000


*** tstop() called on hokru.local at Wed Apr 15 11:27:34 2020
Module time:
	user time   =       0.33 seconds =       0.01 minutes
	system time =       0.01 seconds =       0.00 minutes
	total time  =          0 seconds =       0.00 minutes
Total time:
	user time   =       0.33 seconds =       0.01 minutes
	system time =       0.01 seconds =       0.00 minutes
	total time  =          0 seconds =       0.00 minutes
    is_libxc SuperFunctional..........................................PASSED
     is_libxc density_tolernace.......................................PASSED

Scratch directory: /Users/kruse/scratch/PSI4/H_atom/dft-dens-cut/

*** tstart() called on hokru.local
*** at Wed Apr 15 11:27:34 2020

   => Loading Basis Set <=

    Name: STO-3G
    Role: ORBITAL
    Keyword: BASIS
    atoms 1 entry H          line    19 file /Users/kruse/qc/psi4.bin/share/psi4/basis/sto-3g.gbs 


         ---------------------------------------------------------
                                   SCF
               by Justin Turney, Rob Parrish, Andy Simmonett
                          and Daniel G. A. Smith
                              UKS Reference
                        1 Threads,    500 MiB Core
         ---------------------------------------------------------

  ==> Geometry <==

    Molecular point group: d2h
    Geometry (in Angstrom), charge = 0, multiplicity = 2:

       Center              X                  Y                   Z               Mass       
    ------------   -----------------  -----------------  -----------------  -----------------
         H            0.000000000000     0.000000000000     0.000000000000     1.007825032230

  Running in d2h symmetry.

  Rotational constants: A = ************  B = ************  C = ************ [cm^-1]
  Rotational constants: A = ************  B = ************  C = ************ [MHz]
  Nuclear repulsion =    0.000000000000000

  Charge       = 0
  Multiplicity = 2
  Electrons    = 1
  Nalpha       = 1
  Nbeta        = 0

  ==> Algorithm <==

  SCF Algorithm Type is DF.
  DIIS enabled.
  MOM disabled.
  Fractional occupation disabled.
  Guess Type is CORE.
  Energy threshold   = 1.00e-06
  Density threshold  = 1.00e-06
  Integral threshold = 0.00e+00

  ==> Primary Basis <==

  Basis Set: STO-3G
    Blend: STO-3G
    Number of shells: 1
    Number of basis function: 1
    Number of Cartesian functions: 1
    Spherical Harmonics?: true
    Max angular momentum: 0

   => Loading Basis Set <=

    Name: (STO-3G AUX)
    Role: JKFIT
    Keyword: DF_BASIS_SCF
    atoms 1 entry H          line    18 file /Users/kruse/qc/psi4.bin/share/psi4/basis/def2-universal-jkfit.gbs 

  ==> Integral Setup <==

  DFHelper Memory: AOs need 0.000 GiB; user supplied 0.366 GiB. Using in-core AOs.

  ==> MemDFJK: Density-Fitted J/K Matrices <==

    J tasked:                   Yes
    K tasked:                    No
    wK tasked:                   No
    OpenMP threads:               1
    Memory [MiB]:               375
    Algorithm:                 Core
    Schwarz Cutoff:           1E-12
    Mask sparsity (%):       0.0000
    Fitting Condition:        1E-10

   => Auxiliary Basis Set <=

  Basis Set: (STO-3G AUX)
    Blend: DEF2-UNIVERSAL-JKFIT
    Number of shells: 6
    Number of basis function: 18
    Number of Cartesian functions: 20
    Spherical Harmonics?: true
    Max angular momentum: 2

  Minimum eigenvalue in the overlap matrix is 1.0000000000E+00.
  Reciprocal condition number of the overlap matrix is 1.0000000000E+00.
    Using symmetric orthogonalization.

  ==> Pre-Iterations <==

  SCF Guess: Core (One-Electron) Hamiltonian.

   -------------------------------------------------------
    Irrep   Nso     Nmo     Nalpha   Nbeta   Ndocc  Nsocc
   -------------------------------------------------------
     Ag         1       1       1       0       0       1
     B1g        0       0       0       0       0       0
     B2g        0       0       0       0       0       0
     B3g        0       0       0       0       0       0
     Au         0       0       0       0       0       0
     B1u        0       0       0       0       0       0
     B2u        0       0       0       0       0       0
     B3u        0       0       0       0       0       0
   -------------------------------------------------------
    Total       1       1       1       0       0       1
   -------------------------------------------------------

  ==> Iterations <==

                           Total Energy        Delta E     RMS |[F,P]|

   @DF-UKS iter   1:    -0.07942602953930   -7.94260e-02   0.00000e+00 DIIS
   @DF-UKS iter   2:    -0.07942602953930    0.00000e+00   0.00000e+00 DIIS
  Energy and wave function converged.


  ==> Post-Iterations <==

   @Spin Contamination Metric:   0.000000000E+00
   @S^2 Expected:                7.500000000E-01
   @S^2 Observed:                7.500000000E-01
   @S   Expected:                5.000000000E-01
   @S   Observed:                5.000000000E-01

    Orbital Energies [Eh]
    ---------------------

    Alpha Occupied:                                                       

       1Ag     0.307730  

    Alpha Virtual:                                                        

    

    Beta Occupied:                                                        

    

    Beta Virtual:                                                         

       1Ag     0.307730  

    Final Occupation by Irrep:
             Ag   B1g   B2g   B3g    Au   B1u   B2u   B3u 
    DOCC [     0,    0,    0,    0,    0,    0,    0,    0 ]
    SOCC [     1,    0,    0,    0,    0,    0,    0,    0 ]

  @DF-UKS Final Energy:    -0.07942602953930

   => Energetics <=

    Nuclear Repulsion Energy =              0.0000000000000000
    One-Electron Energy =                  -0.4665818495572753
    Two-Electron Energy =                   0.3871558200179748
    Total Energy =                         -0.0794260295393006

  UHF NO Occupations:
  HONO-0 :    1 Ag 1.0000000


Computation Completed


Properties will be evaluated at   0.000000,   0.000000,   0.000000 [a0]

Properties computed using the SCF density matrix

  Nuclear Dipole Moment: [e a0]
     X:     0.0000      Y:     0.0000      Z:     0.0000

  Electronic Dipole Moment: [e a0]
     X:     0.0000      Y:     0.0000      Z:     0.0000

  Dipole Moment: [e a0]
     X:     0.0000      Y:     0.0000      Z:     0.0000     Total:     0.0000

  Dipole Moment: [D]
     X:     0.0000      Y:     0.0000      Z:     0.0000     Total:     0.0000


*** tstop() called on hokru.local at Wed Apr 15 11:27:34 2020
Module time:
	user time   =       0.14 seconds =       0.00 minutes
	system time =       0.01 seconds =       0.00 minutes
	total time  =          0 seconds =       0.00 minutes
Total time:
	user time   =       0.49 seconds =       0.01 minutes
	system time =       0.02 seconds =       0.00 minutes
	total time  =          0 seconds =       0.00 minutes
    Empty SuperFunctional.............................................PASSED

Scratch directory: /Users/kruse/scratch/PSI4/H_atom/dft-dens-cut/

*** tstart() called on hokru.local
*** at Wed Apr 15 11:27:34 2020

   => Loading Basis Set <=

    Name: STO-3G
    Role: ORBITAL
    Keyword: BASIS
    atoms 1 entry H          line    19 file /Users/kruse/qc/psi4.bin/share/psi4/basis/sto-3g.gbs 


         ---------------------------------------------------------
                                   SCF
               by Justin Turney, Rob Parrish, Andy Simmonett
                          and Daniel G. A. Smith
                              UKS Reference
                        1 Threads,    500 MiB Core
         ---------------------------------------------------------

  ==> Geometry <==

    Molecular point group: d2h
    Geometry (in Angstrom), charge = 0, multiplicity = 2:

       Center              X                  Y                   Z               Mass       
    ------------   -----------------  -----------------  -----------------  -----------------
         H            0.000000000000     0.000000000000     0.000000000000     1.007825032230

  Running in d2h symmetry.

  Rotational constants: A = ************  B = ************  C = ************ [cm^-1]
  Rotational constants: A = ************  B = ************  C = ************ [MHz]
  Nuclear repulsion =    0.000000000000000

  Charge       = 0
  Multiplicity = 2
  Electrons    = 1
  Nalpha       = 1
  Nbeta        = 0

  ==> Algorithm <==

  SCF Algorithm Type is DF.
  DIIS enabled.
  MOM disabled.
  Fractional occupation disabled.
  Guess Type is CORE.
  Energy threshold   = 1.00e-06
  Density threshold  = 1.00e-06
  Integral threshold = 0.00e+00

  ==> Primary Basis <==

  Basis Set: STO-3G
    Blend: STO-3G
    Number of shells: 1
    Number of basis function: 1
    Number of Cartesian functions: 1
    Spherical Harmonics?: true
    Max angular momentum: 0

  ==> DFT Potential <==

   => Composite Functional: test <= 

   C-only SuperFunctional



    Deriv               =              1
    GGA                 =           TRUE
    Meta                =           TRUE

    Exchange Hybrid     =          FALSE
    MP2 Hybrid          =          FALSE

   => Exchange Functionals <=


   => Correlation Functionals <=

    1.0000   XC_MGGA_C_TPSS

   => LibXC Density Thresholds  <==

    XC_MGGA_C_TPSS:  1.00E-10 

   => Molecular Quadrature <=

    Radial Scheme          =       TREUTLER
    Pruning Scheme         =       TREUTLER
    Pruning Type           =         REGION
    Nuclear Scheme         =       TREUTLER

    BS radius alpha        =              1
    Pruning alpha          =              1
    Radial Points          =             50
    Spherical Points       =            302
    Total Points           =           8416
    Total Blocks           =             98
    Max Points             =            256
    Max Functions          =              1
    Weights Tolerance      =       1.00E-15

   => Loading Basis Set <=

    Name: (STO-3G AUX)
    Role: JKFIT
    Keyword: DF_BASIS_SCF
    atoms 1 entry H          line    18 file /Users/kruse/qc/psi4.bin/share/psi4/basis/def2-universal-jkfit.gbs 

  ==> Integral Setup <==

  DFHelper Memory: AOs need 0.000 GiB; user supplied 0.366 GiB. Using in-core AOs.

  ==> MemDFJK: Density-Fitted J/K Matrices <==

    J tasked:                   Yes
    K tasked:                    No
    wK tasked:                   No
    OpenMP threads:               1
    Memory [MiB]:               374
    Algorithm:                 Core
    Schwarz Cutoff:           1E-12
    Mask sparsity (%):       0.0000
    Fitting Condition:        1E-10

   => Auxiliary Basis Set <=

  Basis Set: (STO-3G AUX)
    Blend: DEF2-UNIVERSAL-JKFIT
    Number of shells: 6
    Number of basis function: 18
    Number of Cartesian functions: 20
    Spherical Harmonics?: true
    Max angular momentum: 2

  Cached 100.0% of DFT collocation blocks in 0.001 [GiB].

  Minimum eigenvalue in the overlap matrix is 1.0000000000E+00.
  Reciprocal condition number of the overlap matrix is 1.0000000000E+00.
    Using symmetric orthogonalization.

  ==> Pre-Iterations <==

  SCF Guess: Core (One-Electron) Hamiltonian.

   -------------------------------------------------------
    Irrep   Nso     Nmo     Nalpha   Nbeta   Ndocc  Nsocc
   -------------------------------------------------------
     Ag         1       1       1       0       0       1
     B1g        0       0       0       0       0       0
     B2g        0       0       0       0       0       0
     B3g        0       0       0       0       0       0
     Au         0       0       0       0       0       0
     B1u        0       0       0       0       0       0
     B2u        0       0       0       0       0       0
     B3u        0       0       0       0       0       0
   -------------------------------------------------------
    Total       1       1       1       0       0       1
   -------------------------------------------------------

  ==> Iterations <==

                           Total Energy        Delta E     RMS |[F,P]|

   @DF-UKS iter   1:    -0.07942602953930   -7.94260e-02   0.00000e+00 DIIS
   @DF-UKS iter   2:    -0.07942602953930    0.00000e+00   0.00000e+00 DIIS
  Energy and wave function converged.


  ==> Post-Iterations <==

   @Spin Contamination Metric:   0.000000000E+00
   @S^2 Expected:                7.500000000E-01
   @S^2 Observed:                7.500000000E-01
   @S   Expected:                5.000000000E-01
   @S   Observed:                5.000000000E-01

    Orbital Energies [Eh]
    ---------------------

    Alpha Occupied:                                                       

       1Ag     0.307730  

    Alpha Virtual:                                                        

    

    Beta Occupied:                                                        

    

    Beta Virtual:                                                         

       1Ag     0.320385  

    Final Occupation by Irrep:
             Ag   B1g   B2g   B3g    Au   B1u   B2u   B3u 
    DOCC [     0,    0,    0,    0,    0,    0,    0,    0 ]
    SOCC [     1,    0,    0,    0,    0,    0,    0,    0 ]

  @DF-UKS Final Energy:    -0.07942602953930

   => Energetics <=

    Nuclear Repulsion Energy =              0.0000000000000000
    One-Electron Energy =                  -0.4665818495572753
    Two-Electron Energy =                   0.3871558200179748
    DFT Exchange-Correlation Energy =       0.0000000000000000
    Empirical Dispersion Energy =           0.0000000000000000
    VV10 Nonlocal Energy =                  0.0000000000000000
    Total Energy =                         -0.0794260295393005

  UHF NO Occupations:
  HONO-0 :    1 Ag 1.0000000


Computation Completed


Properties will be evaluated at   0.000000,   0.000000,   0.000000 [a0]

Properties computed using the SCF density matrix

  Nuclear Dipole Moment: [e a0]
     X:     0.0000      Y:     0.0000      Z:     0.0000

  Electronic Dipole Moment: [e a0]
     X:     0.0000      Y:     0.0000      Z:     0.0000

  Dipole Moment: [e a0]
     X:     0.0000      Y:     0.0000      Z:     0.0000     Total:     0.0000

  Dipole Moment: [D]
     X:     0.0000      Y:     0.0000      Z:     0.0000     Total:     0.0000


*** tstop() called on hokru.local at Wed Apr 15 11:27:34 2020
Module time:
	user time   =       0.17 seconds =       0.00 minutes
	system time =       0.00 seconds =       0.00 minutes
	total time  =          0 seconds =       0.00 minutes
Total time:
	user time   =       0.67 seconds =       0.01 minutes
	system time =       0.02 seconds =       0.00 minutes
	total time  =          0 seconds =       0.00 minutes
    C-only SuperFunctional............................................PASSED
   => LibXC Density Thresholds  <==

    XC_MGGA_C_TPSS:  1.00E-10 

    LibXCFunctional density_cutoff....................................PASSED
    SuperFunctional density_tolerance.................................PASSED

Scratch directory: /Users/kruse/scratch/PSI4/H_atom/dft-dens-cut/

*** tstart() called on hokru.local
*** at Wed Apr 15 11:27:34 2020

   => Loading Basis Set <=

    Name: STO-3G
    Role: ORBITAL
    Keyword: BASIS
    atoms 1 entry H          line    19 file /Users/kruse/qc/psi4.bin/share/psi4/basis/sto-3g.gbs 


         ---------------------------------------------------------
                                   SCF
               by Justin Turney, Rob Parrish, Andy Simmonett
                          and Daniel G. A. Smith
                              UKS Reference
                        1 Threads,    500 MiB Core
         ---------------------------------------------------------

  ==> Geometry <==

    Molecular point group: d2h
    Geometry (in Angstrom), charge = 0, multiplicity = 2:

       Center              X                  Y                   Z               Mass       
    ------------   -----------------  -----------------  -----------------  -----------------
         H            0.000000000000     0.000000000000     0.000000000000     1.007825032230

  Running in d2h symmetry.

  Rotational constants: A = ************  B = ************  C = ************ [cm^-1]
  Rotational constants: A = ************  B = ************  C = ************ [MHz]
  Nuclear repulsion =    0.000000000000000

  Charge       = 0
  Multiplicity = 2
  Electrons    = 1
  Nalpha       = 1
  Nbeta        = 0

  ==> Algorithm <==

  SCF Algorithm Type is DF.
  DIIS enabled.
  MOM disabled.
  Fractional occupation disabled.
  Guess Type is CORE.
  Energy threshold   = 1.00e-06
  Density threshold  = 1.00e-06
  Integral threshold = 0.00e+00

  ==> Primary Basis <==

  Basis Set: STO-3G
    Blend: STO-3G
    Number of shells: 1
    Number of basis function: 1
    Number of Cartesian functions: 1
    Spherical Harmonics?: true
    Max angular momentum: 0

  ==> DFT Potential <==

   => Composite Functional: test <= 

   X-only SuperFunctional



    Deriv               =              1
    GGA                 =           TRUE
    Meta                =           TRUE

    Exchange Hybrid     =          FALSE
    MP2 Hybrid          =          FALSE

   => Exchange Functionals <=

    1.0000   XC_MGGA_X_TPSS

   => Correlation Functionals <=


   => LibXC Density Thresholds  <==

    XC_MGGA_X_TPSS:  1.00E-10 

   => Molecular Quadrature <=

    Radial Scheme          =       TREUTLER
    Pruning Scheme         =       TREUTLER
    Pruning Type           =         REGION
    Nuclear Scheme         =       TREUTLER

    BS radius alpha        =              1
    Pruning alpha          =              1
    Radial Points          =             50
    Spherical Points       =            302
    Total Points           =           8416
    Total Blocks           =             98
    Max Points             =            256
    Max Functions          =              1
    Weights Tolerance      =       1.00E-15

   => Loading Basis Set <=

    Name: (STO-3G AUX)
    Role: JKFIT
    Keyword: DF_BASIS_SCF
    atoms 1 entry H          line    18 file /Users/kruse/qc/psi4.bin/share/psi4/basis/def2-universal-jkfit.gbs 

  ==> Integral Setup <==

  DFHelper Memory: AOs need 0.000 GiB; user supplied 0.366 GiB. Using in-core AOs.

  ==> MemDFJK: Density-Fitted J/K Matrices <==

    J tasked:                   Yes
    K tasked:                    No
    wK tasked:                   No
    OpenMP threads:               1
    Memory [MiB]:               374
    Algorithm:                 Core
    Schwarz Cutoff:           1E-12
    Mask sparsity (%):       0.0000
    Fitting Condition:        1E-10

   => Auxiliary Basis Set <=

  Basis Set: (STO-3G AUX)
    Blend: DEF2-UNIVERSAL-JKFIT
    Number of shells: 6
    Number of basis function: 18
    Number of Cartesian functions: 20
    Spherical Harmonics?: true
    Max angular momentum: 2

  Cached 100.0% of DFT collocation blocks in 0.001 [GiB].

  Minimum eigenvalue in the overlap matrix is 1.0000000000E+00.
  Reciprocal condition number of the overlap matrix is 1.0000000000E+00.
    Using symmetric orthogonalization.

  ==> Pre-Iterations <==

  SCF Guess: Core (One-Electron) Hamiltonian.

   -------------------------------------------------------
    Irrep   Nso     Nmo     Nalpha   Nbeta   Ndocc  Nsocc
   -------------------------------------------------------
     Ag         1       1       1       0       0       1
     B1g        0       0       0       0       0       0
     B2g        0       0       0       0       0       0
     B3g        0       0       0       0       0       0
     Au         0       0       0       0       0       0
     B1u        0       0       0       0       0       0
     B2u        0       0       0       0       0       0
     B3u        0       0       0       0       0       0
   -------------------------------------------------------
    Total       1       1       1       0       0       1
   -------------------------------------------------------

  ==> Iterations <==

                           Total Energy        Delta E     RMS |[F,P]|

   @DF-UKS iter   1:    -0.46674106990561   -4.66741e-01   0.00000e+00 DIIS
   @DF-UKS iter   2:    -0.46674106990561    0.00000e+00   0.00000e+00 DIIS
  Energy and wave function converged.


  ==> Post-Iterations <==

   @Spin Contamination Metric:   0.000000000E+00
   @S^2 Expected:                7.500000000E-01
   @S^2 Observed:                7.500000000E-01
   @S   Expected:                5.000000000E-01
   @S   Observed:                5.000000000E-01

    Orbital Energies [Eh]
    ---------------------

    Alpha Occupied:                                                       

       1Ag    -0.199493  

    Alpha Virtual:                                                        

    

    Beta Occupied:                                                        

    

    Beta Virtual:                                                         

       1Ag     0.307730  

    Final Occupation by Irrep:
             Ag   B1g   B2g   B3g    Au   B1u   B2u   B3u 
    DOCC [     0,    0,    0,    0,    0,    0,    0,    0 ]
    SOCC [     1,    0,    0,    0,    0,    0,    0,    0 ]

  @DF-UKS Final Energy:    -0.46674106990561

   => Energetics <=

    Nuclear Repulsion Energy =              0.0000000000000000
    One-Electron Energy =                  -0.4665818495572753
    Two-Electron Energy =                   0.3871558200179748
    DFT Exchange-Correlation Energy =      -0.3873150403663055
    Empirical Dispersion Energy =           0.0000000000000000
    VV10 Nonlocal Energy =                  0.0000000000000000
    Total Energy =                         -0.4667410699056061

  UHF NO Occupations:
  HONO-0 :    1 Ag 1.0000000


Computation Completed


Properties will be evaluated at   0.000000,   0.000000,   0.000000 [a0]

Properties computed using the SCF density matrix

  Nuclear Dipole Moment: [e a0]
     X:     0.0000      Y:     0.0000      Z:     0.0000

  Electronic Dipole Moment: [e a0]
     X:     0.0000      Y:     0.0000      Z:     0.0000

  Dipole Moment: [e a0]
     X:     0.0000      Y:     0.0000      Z:     0.0000     Total:     0.0000

  Dipole Moment: [D]
     X:     0.0000      Y:     0.0000      Z:     0.0000     Total:     0.0000


*** tstop() called on hokru.local at Wed Apr 15 11:27:35 2020
Module time:
	user time   =       0.16 seconds =       0.00 minutes
	system time =       0.01 seconds =       0.00 minutes
	total time  =          1 seconds =       0.02 minutes
Total time:
	user time   =       0.84 seconds =       0.01 minutes
	system time =       0.03 seconds =       0.00 minutes
	total time  =          1 seconds =       0.02 minutes
    X-only SuperFunctional............................................PASSED

Scratch directory: /Users/kruse/scratch/PSI4/H_atom/dft-dens-cut/

*** tstart() called on hokru.local
*** at Wed Apr 15 11:27:35 2020

   => Loading Basis Set <=

    Name: STO-3G
    Role: ORBITAL
    Keyword: BASIS
    atoms 1 entry H          line    19 file /Users/kruse/qc/psi4.bin/share/psi4/basis/sto-3g.gbs 


         ---------------------------------------------------------
                                   SCF
               by Justin Turney, Rob Parrish, Andy Simmonett
                          and Daniel G. A. Smith
                              UKS Reference
                        1 Threads,    500 MiB Core
         ---------------------------------------------------------

  ==> Geometry <==

    Molecular point group: d2h
    Geometry (in Angstrom), charge = 0, multiplicity = 2:

       Center              X                  Y                   Z               Mass       
    ------------   -----------------  -----------------  -----------------  -----------------
         H            0.000000000000     0.000000000000     0.000000000000     1.007825032230

  Running in d2h symmetry.

  Rotational constants: A = ************  B = ************  C = ************ [cm^-1]
  Rotational constants: A = ************  B = ************  C = ************ [MHz]
  Nuclear repulsion =    0.000000000000000

  Charge       = 0
  Multiplicity = 2
  Electrons    = 1
  Nalpha       = 1
  Nbeta        = 0

  ==> Algorithm <==

  SCF Algorithm Type is DF.
  DIIS enabled.
  MOM disabled.
  Fractional occupation disabled.
  Guess Type is CORE.
  Energy threshold   = 1.00e-06
  Density threshold  = 1.00e-06
  Integral threshold = 0.00e+00

  ==> Primary Basis <==

  Basis Set: STO-3G
    Blend: STO-3G
    Number of shells: 1
    Number of basis function: 1
    Number of Cartesian functions: 1
    Spherical Harmonics?: true
    Max angular momentum: 0

  ==> DFT Potential <==

   => Composite Functional: test <= 

   XC SuperFunctional



    Deriv               =              1
    GGA                 =           TRUE
    Meta                =           TRUE

    Exchange Hybrid     =          FALSE
    MP2 Hybrid          =          FALSE

   => Exchange Functionals <=

    1.0000   XC_MGGA_X_TPSS
    1.0000   XC_MGGA_X_TPSS

   => Correlation Functionals <=

    1.0000   XC_MGGA_C_TPSS
    1.0000   XC_MGGA_C_TPSS

   => LibXC Density Thresholds  <==

    XC_MGGA_C_TPSS:  1.00E-10 
    XC_MGGA_C_TPSS:  1.00E-10 
    XC_MGGA_X_TPSS:  1.00E-10 
    XC_MGGA_X_TPSS:  1.00E-10 

   => Molecular Quadrature <=

    Radial Scheme          =       TREUTLER
    Pruning Scheme         =       TREUTLER
    Pruning Type           =         REGION
    Nuclear Scheme         =       TREUTLER

    BS radius alpha        =              1
    Pruning alpha          =              1
    Radial Points          =             50
    Spherical Points       =            302
    Total Points           =           8416
    Total Blocks           =             98
    Max Points             =            256
    Max Functions          =              1
    Weights Tolerance      =       1.00E-15

   => Loading Basis Set <=

    Name: (STO-3G AUX)
    Role: JKFIT
    Keyword: DF_BASIS_SCF
    atoms 1 entry H          line    18 file /Users/kruse/qc/psi4.bin/share/psi4/basis/def2-universal-jkfit.gbs 

  ==> Integral Setup <==

  DFHelper Memory: AOs need 0.000 GiB; user supplied 0.366 GiB. Using in-core AOs.

  ==> MemDFJK: Density-Fitted J/K Matrices <==

    J tasked:                   Yes
    K tasked:                    No
    wK tasked:                   No
    OpenMP threads:               1
    Memory [MiB]:               374
    Algorithm:                 Core
    Schwarz Cutoff:           1E-12
    Mask sparsity (%):       0.0000
    Fitting Condition:        1E-10

   => Auxiliary Basis Set <=

  Basis Set: (STO-3G AUX)
    Blend: DEF2-UNIVERSAL-JKFIT
    Number of shells: 6
    Number of basis function: 18
    Number of Cartesian functions: 20
    Spherical Harmonics?: true
    Max angular momentum: 2

  Cached 100.0% of DFT collocation blocks in 0.001 [GiB].

  Minimum eigenvalue in the overlap matrix is 1.0000000000E+00.
  Reciprocal condition number of the overlap matrix is 1.0000000000E+00.
    Using symmetric orthogonalization.

  ==> Pre-Iterations <==

  SCF Guess: Core (One-Electron) Hamiltonian.

   -------------------------------------------------------
    Irrep   Nso     Nmo     Nalpha   Nbeta   Ndocc  Nsocc
   -------------------------------------------------------
     Ag         1       1       1       0       0       1
     B1g        0       0       0       0       0       0
     B2g        0       0       0       0       0       0
     B3g        0       0       0       0       0       0
     Au         0       0       0       0       0       0
     B1u        0       0       0       0       0       0
     B2u        0       0       0       0       0       0
     B3u        0       0       0       0       0       0
   -------------------------------------------------------
    Total       1       1       1       0       0       1
   -------------------------------------------------------

  ==> Iterations <==

                           Total Energy        Delta E     RMS |[F,P]|

   @DF-UKS iter   1:    -0.85405611027191   -8.54056e-01   0.00000e+00 DIIS
   @DF-UKS iter   2:    -0.85405611027191    0.00000e+00   0.00000e+00 DIIS
  Energy and wave function converged.


  ==> Post-Iterations <==

   @Spin Contamination Metric:   0.000000000E+00
   @S^2 Expected:                7.500000000E-01
   @S^2 Observed:                7.500000000E-01
   @S   Expected:                5.000000000E-01
   @S   Observed:                5.000000000E-01

    Orbital Energies [Eh]
    ---------------------

    Alpha Occupied:                                                       

       1Ag    -0.706716  

    Alpha Virtual:                                                        

    

    Beta Occupied:                                                        

    

    Beta Virtual:                                                         

       1Ag     0.333041  

    Final Occupation by Irrep:
             Ag   B1g   B2g   B3g    Au   B1u   B2u   B3u 
    DOCC [     0,    0,    0,    0,    0,    0,    0,    0 ]
    SOCC [     1,    0,    0,    0,    0,    0,    0,    0 ]

  @DF-UKS Final Energy:    -0.85405611027191

   => Energetics <=

    Nuclear Repulsion Energy =              0.0000000000000000
    One-Electron Energy =                  -0.4665818495572753
    Two-Electron Energy =                   0.3871558200179748
    DFT Exchange-Correlation Energy =      -0.7746300807326111
    Empirical Dispersion Energy =           0.0000000000000000
    VV10 Nonlocal Energy =                  0.0000000000000000
    Total Energy =                         -0.8540561102719116

  UHF NO Occupations:
  HONO-0 :    1 Ag 1.0000000


Computation Completed


Properties will be evaluated at   0.000000,   0.000000,   0.000000 [a0]

Properties computed using the SCF density matrix

  Nuclear Dipole Moment: [e a0]
     X:     0.0000      Y:     0.0000      Z:     0.0000

  Electronic Dipole Moment: [e a0]
     X:     0.0000      Y:     0.0000      Z:     0.0000

  Dipole Moment: [e a0]
     X:     0.0000      Y:     0.0000      Z:     0.0000     Total:     0.0000

  Dipole Moment: [D]
     X:     0.0000      Y:     0.0000      Z:     0.0000     Total:     0.0000


*** tstop() called on hokru.local at Wed Apr 15 11:27:35 2020
Module time:
	user time   =       0.19 seconds =       0.00 minutes
	system time =       0.01 seconds =       0.00 minutes
	total time  =          0 seconds =       0.00 minutes
Total time:
	user time   =       1.04 seconds =       0.02 minutes
	system time =       0.04 seconds =       0.00 minutes
	total time  =          1 seconds =       0.02 minutes
    normal XC SuperFunctional.........................................PASSED

Scratch directory: /Users/kruse/scratch/PSI4/H_atom/dft-dens-cut/

*** tstart() called on hokru.local
*** at Wed Apr 15 11:27:35 2020

   => Loading Basis Set <=

    Name: STO-3G
    Role: ORBITAL
    Keyword: BASIS
    atoms 1 entry H          line    19 file /Users/kruse/qc/psi4.bin/share/psi4/basis/sto-3g.gbs 

SCF: DFT_DENSITY_TOLERANCE is turned off! Using LibXC defaults.
         ---------------------------------------------------------
                                   SCF
               by Justin Turney, Rob Parrish, Andy Simmonett
                          and Daniel G. A. Smith
                              UKS Reference
                        1 Threads,    500 MiB Core
         ---------------------------------------------------------

  ==> Geometry <==

    Molecular point group: d2h
    Geometry (in Angstrom), charge = 0, multiplicity = 2:

       Center              X                  Y                   Z               Mass       
    ------------   -----------------  -----------------  -----------------  -----------------
         H            0.000000000000     0.000000000000     0.000000000000     1.007825032230

  Running in d2h symmetry.

  Rotational constants: A = ************  B = ************  C = ************ [cm^-1]
  Rotational constants: A = ************  B = ************  C = ************ [MHz]
  Nuclear repulsion =    0.000000000000000

  Charge       = 0
  Multiplicity = 2
  Electrons    = 1
  Nalpha       = 1
  Nbeta        = 0

  ==> Algorithm <==

  SCF Algorithm Type is DF.
  DIIS enabled.
  MOM disabled.
  Fractional occupation disabled.
  Guess Type is CORE.
  Energy threshold   = 1.00e-06
  Density threshold  = 1.00e-06
  Integral threshold = 0.00e+00

  ==> Primary Basis <==

  Basis Set: STO-3G
    Blend: STO-3G
    Number of shells: 1
    Number of basis function: 1
    Number of Cartesian functions: 1
    Spherical Harmonics?: true
    Max angular momentum: 0

  ==> DFT Potential <==

   => Composite Functional: test <= 

   XC SuperFunctional



    Deriv               =              1
    GGA                 =           TRUE
    Meta                =           TRUE

    Exchange Hybrid     =          FALSE
    MP2 Hybrid          =          FALSE

   => Exchange Functionals <=

    1.0000   XC_MGGA_X_TPSS
    1.0000         XC_LDA_X

   => Correlation Functionals <=

    1.0000   XC_MGGA_C_TPSS

   => LibXC Density Thresholds  <==

    XC_MGGA_C_TPSS:  1.00E-09 
    XC_MGGA_X_TPSS:  1.00E-08 
    XC_LDA_X:  1.00E-24 

   => Molecular Quadrature <=

    Radial Scheme          =       TREUTLER
    Pruning Scheme         =       TREUTLER
    Pruning Type           =         REGION
    Nuclear Scheme         =       TREUTLER

    BS radius alpha        =              1
    Pruning alpha          =              1
    Radial Points          =             50
    Spherical Points       =            302
    Total Points           =           8416
    Total Blocks           =             98
    Max Points             =            256
    Max Functions          =              1
    Weights Tolerance      =       1.00E-15

   => Loading Basis Set <=

    Name: (STO-3G AUX)
    Role: JKFIT
    Keyword: DF_BASIS_SCF
    atoms 1 entry H          line    18 file /Users/kruse/qc/psi4.bin/share/psi4/basis/def2-universal-jkfit.gbs 

  ==> Integral Setup <==

  DFHelper Memory: AOs need 0.000 GiB; user supplied 0.366 GiB. Using in-core AOs.

  ==> MemDFJK: Density-Fitted J/K Matrices <==

    J tasked:                   Yes
    K tasked:                    No
    wK tasked:                   No
    OpenMP threads:               1
    Memory [MiB]:               374
    Algorithm:                 Core
    Schwarz Cutoff:           1E-12
    Mask sparsity (%):       0.0000
    Fitting Condition:        1E-10

   => Auxiliary Basis Set <=

  Basis Set: (STO-3G AUX)
    Blend: DEF2-UNIVERSAL-JKFIT
    Number of shells: 6
    Number of basis function: 18
    Number of Cartesian functions: 20
    Spherical Harmonics?: true
    Max angular momentum: 2

  Cached 100.0% of DFT collocation blocks in 0.001 [GiB].

  Minimum eigenvalue in the overlap matrix is 1.0000000000E+00.
  Reciprocal condition number of the overlap matrix is 1.0000000000E+00.
    Using symmetric orthogonalization.

  ==> Pre-Iterations <==

  SCF Guess: Core (One-Electron) Hamiltonian.

   -------------------------------------------------------
    Irrep   Nso     Nmo     Nalpha   Nbeta   Ndocc  Nsocc
   -------------------------------------------------------
     Ag         1       1       1       0       0       1
     B1g        0       0       0       0       0       0
     B2g        0       0       0       0       0       0
     B3g        0       0       0       0       0       0
     Au         0       0       0       0       0       0
     B1u        0       0       0       0       0       0
     B2u        0       0       0       0       0       0
     B3u        0       0       0       0       0       0
   -------------------------------------------------------
    Total       1       1       1       0       0       1
   -------------------------------------------------------

  ==> Iterations <==

                           Total Energy        Delta E     RMS |[F,P]|

   @DF-UKS iter   1:    -0.79884130116403   -7.98841e-01   0.00000e+00 DIIS
   @DF-UKS iter   2:    -0.79884130116403    0.00000e+00   0.00000e+00 DIIS
  Energy and wave function converged.


  ==> Post-Iterations <==

   @Spin Contamination Metric:   0.000000000E+00
   @S^2 Expected:                7.500000000E-01
   @S^2 Observed:                7.500000000E-01
   @S   Expected:                5.000000000E-01
   @S   Observed:                5.000000000E-01

    Orbital Energies [Eh]
    ---------------------

    Alpha Occupied:                                                       

       1Ag    -0.642293  

    Alpha Virtual:                                                        

    

    Beta Occupied:                                                        

    

    Beta Virtual:                                                         

       1Ag     0.320385  

    Final Occupation by Irrep:
             Ag   B1g   B2g   B3g    Au   B1u   B2u   B3u 
    DOCC [     0,    0,    0,    0,    0,    0,    0,    0 ]
    SOCC [     1,    0,    0,    0,    0,    0,    0,    0 ]

  @DF-UKS Final Energy:    -0.79884130116403

   => Energetics <=

    Nuclear Repulsion Energy =              0.0000000000000000
    One-Electron Energy =                  -0.4665818495572753
    Two-Electron Energy =                   0.3871558200179748
    DFT Exchange-Correlation Energy =      -0.7194152716247250
    Empirical Dispersion Energy =           0.0000000000000000
    VV10 Nonlocal Energy =                  0.0000000000000000
    Total Energy =                         -0.7988413011640255

  UHF NO Occupations:
  HONO-0 :    1 Ag 1.0000000


Computation Completed


Properties will be evaluated at   0.000000,   0.000000,   0.000000 [a0]

Properties computed using the SCF density matrix

  Nuclear Dipole Moment: [e a0]
     X:     0.0000      Y:     0.0000      Z:     0.0000

  Electronic Dipole Moment: [e a0]
     X:     0.0000      Y:     0.0000      Z:     0.0000

  Dipole Moment: [e a0]
     X:     0.0000      Y:     0.0000      Z:     0.0000     Total:     0.0000

  Dipole Moment: [D]
     X:     0.0000      Y:     0.0000      Z:     0.0000     Total:     0.0000


*** tstop() called on hokru.local at Wed Apr 15 11:27:35 2020
Module time:
	user time   =       0.17 seconds =       0.00 minutes
	system time =       0.00 seconds =       0.00 minutes
	total time  =          0 seconds =       0.00 minutes
Total time:
	user time   =       1.22 seconds =       0.02 minutes
	system time =       0.04 seconds =       0.00 minutes
	total time  =          1 seconds =       0.02 minutes
    individual screening..............................................PASSED
    screening value C.................................................PASSED
    screening value X.................................................PASSED

    Psi4 stopped on: Wednesday, 15 April 2020 11:27AM
    Psi4 wall time for execution: 0:00:01.31

*** Psi4 exiting successfully. Buy a developer a beer!
