[Molden Format]
[Atoms] (AU)
O    1    8         0.000000000000       0.000000000000      -0.149544924691
H    2    1         0.000000000000      -1.336238163149       1.186693238458
H    3    1         0.000000000000       1.336238163149       1.186693238458
[GTO]
  1 0
 s    6  1.00
     5484.6717000000         0.0018311000
      825.2349500000         0.0139501000
      188.0469600000         0.0684451000
       52.9645000000         0.2327143000
       16.8975700000         0.4701930000
        5.7996353000         0.3585209000
 s    3  1.00
       15.5396160000        -0.1107775000
        3.5999336000        -0.1480263000
        1.0137618000         1.1307670000
 p    3  1.00
       15.5396160000         0.0708743000
        3.5999336000         0.3397528000
        1.0137618000         0.7271586000
 s    1  1.00
        0.2700058000         1.0000000000
 p    1  1.00
        0.2700058000         1.0000000000

  2 0
 s    3  1.00
       18.7311370000         0.0334946000
        2.8253937000         0.2347269500
        0.6401217000         0.8137573300
 s    1  1.00
        0.1612778000         1.0000000000

  3 0
 s    3  1.00
       18.7311370000         0.0334946000
        2.8253937000         0.2347269500
        0.6401217000         0.8137573300
 s    1  1.00
        0.1612778000         1.0000000000

[MO]
 Sym= A1
 Ene=       -20.5792428687
 Spin= Alpha
 Occup=  0.0000
  1       0.995828757593
  2       0.021723269394
  3       0.000000000000
  4       0.000000000000
  5       0.002178151416
  6      -0.007814102299
  7       0.000000000000
  8       0.000000000000
  9      -0.002203200233
 10       0.000299932373
 11       0.001809333841
 12       0.000299932373
 13       0.001809333841
 Sym= A1
 Ene=        -1.3506320635
 Spin= Alpha
 Occup=  0.0000
  1       0.211700337785
  2      -0.472154824157
  3       0.000000000000
  4       0.000000000000
  5      -0.116628291817
  6      -0.478598018745
  7       0.000000000000
  8       0.000000000000
  9      -0.063027646544
 10      -0.134959532629
 11       0.003165848602
 12      -0.134959532629
 13       0.003165848602
 Sym= B2
 Ene=        -0.6612234262
 Spin= Alpha
 Occup=  0.0000
  1       0.000000000000
  2       0.000000000000
  3       0.000000000000
  4       0.518581170725
  5       0.000000000000
  6       0.000000000000
  7       0.000000000000
  8       0.274629109955
  9       0.000000000000
 10      -0.252688668833
 11      -0.161395317335
 12       0.252688668833
 13       0.161395317335
 Sym= A1
 Ene=        -0.5826081986
 Spin= Alpha
 Occup=  0.0000
  1       0.083227346009
  2      -0.191601013171
  3       0.000000000000
  4       0.000000000000
  5       0.535211460065
  6      -0.349412431749
  7       0.000000000000
  8       0.000000000000
  9       0.351725356703
 10       0.166252177342
 11       0.106920163825
 12       0.166252177342
 13       0.106920163825
 Sym= B1
 Ene=        -0.5065338989
 Spin= Alpha
 Occup=  0.0000
  1       0.000000000000
  2       0.000000000000
  3       0.645452668068
  4       0.000000000000
  5       0.000000000000
  6       0.000000000000
  7       0.505856879077
  8       0.000000000000
  9       0.000000000000
 10       0.000000000000
 11       0.000000000000
 12       0.000000000000
 13       0.000000000000
 Sym= A1
 Ene=         0.1887766056
 Spin= Alpha
 Occup=  0.0000
  1       0.084728758538
  2      -0.388207922185
  3       0.000000000000
  4       0.000000000000
  5      -0.788866962657
  6      -0.265110869391
  7       0.000000000000
  8       0.000000000000
  9       0.094315771928
 10       0.428647999549
 11       0.232828005707
 12       0.428647999549
 13       0.232828005707
 Sym= B2
 Ene=         0.2830980306
 Spin= Alpha
 Occup=  0.0000
  1       0.000000000000
  2       0.000000000000
  3       0.000000000000
  4       0.815682060315
  5       0.000000000000
  6       0.000000000000
  7       0.000000000000
  8       0.057229297977
  9       0.000000000000
 10       0.456473981920
 11       0.351606864236
 12      -0.456473981920
 13      -0.351606864236
 Sym= B2
 Ene=         0.9826675122
 Spin= Alpha
 Occup=  0.0000
  1       0.000000000000
  2       0.000000000000
  3       0.000000000000
  4      -0.157184083425
  5       0.000000000000
  6       0.000000000000
  7       0.000000000000
  8       0.311291153079
  9       0.000000000000
 10       0.825087974404
 11      -1.081999566547
 12      -0.825087974404
 13       1.081999566547
 Sym= B1
 Ene=         1.1588215391
 Spin= Alpha
 Occup=  0.0000
  1       0.000000000000
  2       0.000000000000
  3       0.958872863504
  4       0.000000000000
  5       0.000000000000
  6       0.000000000000
  7      -1.039305120247
  8       0.000000000000
  9       0.000000000000
 10       0.000000000000
 11       0.000000000000
 12       0.000000000000
 13       0.000000000000
 Sym= A1
 Ene=         1.1624610300
 Spin= Alpha
 Occup=  0.0000
  1      -0.025997940318
  2      -0.055895350797
  3       0.000000000000
  4       0.000000000000
  5      -0.369522828661
  6       0.868685882150
  7       0.000000000000
  8       0.000000000000
  9       0.633140775755
 10       0.515893906236
 11      -1.041593766258
 12       0.515893906236
 13      -1.041593766258
 Sym= A1
 Ene=         1.2483005774
 Spin= Alpha
 Occup=  0.0000
  1       0.088416671470
  2      -0.714170357521
  3       0.000000000000
  4       0.000000000000
  5       0.538134885986
  6       0.431879143709
  7       0.000000000000
  8       0.000000000000
  9      -1.065023730052
 10       0.611265864775
 11      -0.188433858421
 12       0.611265864775
 13      -0.188433858421
 Sym= B2
 Ene=         1.3533333412
 Spin= Alpha
 Occup=  0.0000
  1       0.000000000000
  2       0.000000000000
  3       0.000000000000
  4       0.685251501287
  5       0.000000000000
  6       0.000000000000
  7       0.000000000000
  8      -1.703540099042
  9       0.000000000000
 10      -0.072154610858
 11      -1.309384725350
 12       0.072154610858
 13       1.309384725350
 Sym= A1
 Ene=         1.7450285973
 Spin= Alpha
 Occup=  0.0000
  1       0.030040925914
  2      -1.541467584185
  3       0.000000000000
  4       0.000000000000
  5      -0.195712854455
  6       2.696150580356
  7       0.000000000000
  8       0.000000000000
  9       1.152403227380
 10      -0.680255596694
 11      -0.570649283584
 12      -0.680255596694
 13      -0.570649283584
