[Molden Format]
[Atoms] (AU)
O    1    8         0.000000000000       0.000000000000      -0.149544924691
H    2    1         0.000000000000      -1.336238163149       1.186693238458
H    3    1         0.000000000000       1.336238163149       1.186693238458
[GTO]
  1 0
 s    6  1.00
     5484.6717000000         0.0018311000
      825.2349500000         0.0139501000
      188.0469600000         0.0684451000
       52.9645000000         0.2327143000
       16.8975700000         0.4701930000
        5.7996353000         0.3585209000
 s    3  1.00
       15.5396160000        -0.1107775000
        3.5999336000        -0.1480263000
        1.0137618000         1.1307670000
 p    3  1.00
       15.5396160000         0.0708743000
        3.5999336000         0.3397528000
        1.0137618000         0.7271586000
 s    1  1.00
        0.2700058000         1.0000000000
 p    1  1.00
        0.2700058000         1.0000000000

  2 0
 s    3  1.00
       18.7311370000         0.0334946000
        2.8253937000         0.2347269500
        0.6401217000         0.8137573300
 s    1  1.00
        0.1612778000         1.0000000000

  3 0
 s    3  1.00
       18.7311370000         0.0334946000
        2.8253937000         0.2347269500
        0.6401217000         0.8137573300
 s    1  1.00
        0.1612778000         1.0000000000

[MO]
 Sym= A1
 Ene=       -20.5792425489
 Spin= Alpha
 Occup=  0.0000
  1       0.995828757080
  2       0.021723272582
  3       0.000000000000
  4       0.000000000000
  5       0.002178155530
  6      -0.007814104670
  7       0.000000000000
  8       0.000000000000
  9      -0.002203203049
 10       0.000299932483
 11       0.001809334727
 12       0.000299932483
 13       0.001809334727
 Sym= A1
 Ene=        -1.3506318922
 Spin= Alpha
 Occup=  0.0000
  1      -0.212306196449
  2       0.473395988198
  3       0.000000000000
  4       0.000000000000
  5       0.111605112607
  6       0.481225011828
  7       0.000000000000
  8       0.000000000000
  9       0.060224374877
 10       0.133938783396
 11      -0.003851395796
 12       0.133938783396
 13      -0.003851395796
 Sym= B2
 Ene=        -0.6612233133
 Spin= Alpha
 Occup=  0.0000
  1       0.000000000000
  2       0.000000000000
  3       0.000000000000
  4      -0.514486072050
  5       0.000000000000
  6       0.000000000000
  7       0.000000000000
  8      -0.274328054911
  9       0.000000000000
 10       0.254963149373
 11       0.163186369419
 12      -0.254963149373
 13      -0.163186369419
 Sym= A1
 Ene=        -0.5826083004
 Spin= Alpha
 Occup=  0.0000
  1       0.082293713177
  2      -0.191409632045
  3       0.000000000000
  4       0.000000000000
  5       0.528644207981
  6      -0.347989098764
  7       0.000000000000
  8       0.000000000000
  9       0.353102144266
 10       0.171405155240
 11       0.109101314814
 12       0.171405155240
 13       0.109101314814
 Sym= B1
 Ene=        -0.5065334477
 Spin= Alpha
 Occup=  0.0000
  1       0.000000000000
  2       0.000000000000
  3       0.645454709412
  4       0.000000000000
  5       0.000000000000
  6       0.000000000000
  7       0.505854666498
  8       0.000000000000
  9       0.000000000000
 10       0.000000000000
 11       0.000000000000
 12       0.000000000000
 13       0.000000000000
 Sym= A1
 Ene=         0.1887766894
 Spin= Alpha
 Occup=  0.0000
  1       0.084121043295
  2      -0.386740137929
  3       0.000000000000
  4       0.000000000000
  5      -0.793996898087
  6      -0.262343195634
  7       0.000000000000
  8       0.000000000000
  9       0.090912834590
 10       0.426832619728
 11       0.231944280810
 12       0.426832619728
 13       0.231944280810
 Sym= B2
 Ene=         0.2830978832
 Spin= Alpha
 Occup=  0.0000
  1       0.000000000000
  2       0.000000000000
  3       0.000000000000
  4      -0.818265279140
  5       0.000000000000
  6       0.000000000000
  7       0.000000000000
  8      -0.058635119766
  9       0.000000000000
 10      -0.455117370112
 11      -0.350952049879
 12       0.455117370112
 13       0.350952049879
 Sym= B2
 Ene=         0.9826674426
 Spin= Alpha
 Occup=  0.0000
  1       0.000000000000
  2       0.000000000000
  3       0.000000000000
  4      -0.198482610737
  5       0.000000000000
  6       0.000000000000
  7       0.000000000000
  8       0.562526872979
  9       0.000000000000
 10      -0.684187349526
 11       1.584444552279
 12       0.684187349526
 13      -1.584444552279
 Sym= B1
 Ene=         1.1588216906
 Spin= Alpha
 Occup=  0.0000
  1       0.000000000000
  2       0.000000000000
  3       0.958871489397
  4       0.000000000000
  5       0.000000000000
  6       0.000000000000
  7      -1.039306197163
  8       0.000000000000
  9       0.000000000000
 10       0.000000000000
 11       0.000000000000
 12       0.000000000000
 13       0.000000000000
 Sym= A1
 Ene=         1.1624610144
 Spin= Alpha
 Occup=  0.0000
  1       0.027884999748
  2       0.162751986582
  3       0.000000000000
  4       0.000000000000
  5       0.415939518681
  6      -1.096229904065
  7       0.000000000000
  8       0.000000000000
  9      -0.798342669217
 10      -0.413971901914
 11       1.079098944573
 12      -0.413971901914
 13       1.079098944573
 Sym= A1
 Ene=         1.2483006791
 Spin= Alpha
 Occup=  0.0000
  1       0.086920717684
  2      -0.720408677344
  3       0.000000000000
  4       0.000000000000
  5       0.516155453458
  6       0.486877554934
  7       0.000000000000
  8       0.000000000000
  9      -1.024999498118
 10       0.637183465090
 11      -0.247620245524
 12       0.637183465090
 13      -0.247620245524
 Sym= B2
 Ene=         1.3533332585
 Spin= Alpha
 Occup=  0.0000
  1       0.000000000000
  2       0.000000000000
  3       0.000000000000
  4       0.674455912648
  5       0.000000000000
  6       0.000000000000
  7       0.000000000000
  8      -1.637839109866
  9       0.000000000000
 10      -0.466847036547
 11      -0.612066650535
 12       0.466847036547
 13       0.612066650535
 Sym= A1
 Ene=         1.7450285851
 Spin= Alpha
 Occup=  0.0000
  1       0.032608818338
  2      -1.530962509381
  3       0.000000000000
  4       0.000000000000
  5      -0.158211057483
  6       2.602215202358
  7       0.000000000000
  8       0.000000000000
  9       1.084069384232
 10      -0.724742859390
 11      -0.469286612117
 12      -0.724742859390
 13      -0.469286612117
