    -----------------------------------------------------------------------
          PSI4: An Open-Source Ab Initio Electronic Structure Package
                              PSI 4.0.0-beta2+ Driver

               Git: Rev 0350b6da0fdf0ee1d0a3112ae1f9b382d80ca081

    J. M. Turney, A. C. Simmonett, R. M. Parrish, E. G. Hohenstein,
    F. A. Evangelista, J. T. Fermann, B. J. Mintz, L. A. Burns, J. J. Wilke,
    M. L. Abrams, N. J. Russ, M. L. Leininger, C. L. Janssen, E. T. Seidl,
    W. D. Allen, H. F. Schaefer, R. A. King, E. F. Valeev, C. D. Sherrill,
    and T. D. Crawford, WIREs Comput. Mol. Sci., (2011) (doi: 10.1002/wcms.93)

                         Additional Contributions by
    A. E. DePrince, M. Saitow, U. Bozkaya, A. Yu. Sokolov
    -----------------------------------------------------------------------

    Process ID:  94107
    PSI4DATADIR: /Users/loriab/linux/psi4/objdir/../lib

    Using LocalCommunicator (Number of processes = 1)

    Memory level set to 256.000 MB

  ==> Input File <==

--------------------------------------------------------------------------
#! SCF with various combinations of pk/density-fitting, castup/no-castup,
#! and spherical/cartesian settings. Demonstrates that puream setting is
#! getting set by orbital basis for all df/castup parts of calc. Demonstrates
#! that answer doesn't depend on presence/absence of castup. Demonstrates (by
#! comparison to castup2) that output file doesn't depend on options
#! (scf_type) being set global or local. This input uses local.

memory 256 mb

molecule zinc {
   0 1 
   C
}

set basis 6-31g*
set df_basis_scf cc-pvdz-jkfit

print_stdout('                                     local    global   used')  #TEST
print_stdout('                    prelims          %s %s %s %s %s %s' % (get_local_option('SCF', 'SCF_TYPE'), has_local_option_changed('SCF', 'SCF_TYPE'), get_global_option('SCF_TYPE'), has_global_option_changed('SCF_TYPE'), get_option('SCF', 'SCF_TYPE'), has_option_changed('SCF', 'SCF_TYPE')))  #TEST

set scf scf_type pk
banner('ITEM 1')
energy('scf')
compare_values(-37.5885579065, get_variable('SCF TOTAL ENERGY'), 8, '[1]     scf default          %s %s %s %s %s %s' % (get_local_option('SCF', 'SCF_TYPE'), has_local_option_changed('SCF', 'SCF_TYPE'), get_global_option('SCF_TYPE'), has_global_option_changed('SCF_TYPE'), get_option('SCF', 'SCF_TYPE'), has_option_changed('SCF', 'SCF_TYPE')))  #TEST
clean()

set scf scf_type pk
banner('ITEM 2')
energy('scf', cast_up=True, cast_up_df=True)
compare_values(-37.5885579065, get_variable('SCF TOTAL ENERGY'), 8, '[2]     scf default   castup %s %s %s %s %s %s' % (get_local_option('SCF', 'SCF_TYPE'), has_local_option_changed('SCF', 'SCF_TYPE'), get_global_option('SCF_TYPE'), has_global_option_changed('SCF_TYPE'), get_option('SCF', 'SCF_TYPE'), has_option_changed('SCF', 'SCF_TYPE')))  #TEST
clean()

set scf scf_type df
banner('ITEM 3')
energy('scf')
compare_values(-37.5885589047, get_variable('SCF TOTAL ENERGY'), 8, '[3]  df-scf default          %s %s %s %s %s %s' % (get_local_option('SCF', 'SCF_TYPE'), has_local_option_changed('SCF', 'SCF_TYPE'), get_global_option('SCF_TYPE'), has_global_option_changed('SCF_TYPE'), get_option('SCF', 'SCF_TYPE'), has_option_changed('SCF', 'SCF_TYPE')))  #TEST
clean()

set scf scf_type df
banner('ITEM 4')
energy('scf', cast_up=True, cast_up_df=True)
compare_values(-37.5885589047, get_variable('SCF TOTAL ENERGY'), 8, '[4]  df-scf default   castup %s %s %s %s %s %s' % (get_local_option('SCF', 'SCF_TYPE'), has_local_option_changed('SCF', 'SCF_TYPE'), get_global_option('SCF_TYPE'), has_global_option_changed('SCF_TYPE'), get_option('SCF', 'SCF_TYPE'), has_option_changed('SCF', 'SCF_TYPE')))  #TEST
clean()

set scf scf_type pk
set puream true
banner('ITEM 5')
energy('scf')
compare_values(-37.5882734783, get_variable('SCF TOTAL ENERGY'), 8, '[5]     scf spherical        %s %s %s %s %s %s' % (get_local_option('SCF', 'SCF_TYPE'), has_local_option_changed('SCF', 'SCF_TYPE'), get_global_option('SCF_TYPE'), has_global_option_changed('SCF_TYPE'), get_option('SCF', 'SCF_TYPE'), has_option_changed('SCF', 'SCF_TYPE')))  #TEST
clean()

set scf scf_type pk
set puream true
banner('ITEM 6')
energy('scf', cast_up=True, cast_up_df=True)
compare_values(-37.5882734783, get_variable('SCF TOTAL ENERGY'), 8, '[6]     scf spherical castup %s %s %s %s %s %s' % (get_local_option('SCF', 'SCF_TYPE'), has_local_option_changed('SCF', 'SCF_TYPE'), get_global_option('SCF_TYPE'), has_global_option_changed('SCF_TYPE'), get_option('SCF', 'SCF_TYPE'), has_option_changed('SCF', 'SCF_TYPE')))  #TEST
clean()

set scf scf_type df
set puream true
banner('ITEM 7')
energy('scf')
compare_values(-37.5882728035, get_variable('SCF TOTAL ENERGY'), 8, '[7]  df-scf spherical        %s %s %s %s %s %s' % (get_local_option('SCF', 'SCF_TYPE'), has_local_option_changed('SCF', 'SCF_TYPE'), get_global_option('SCF_TYPE'), has_global_option_changed('SCF_TYPE'), get_option('SCF', 'SCF_TYPE'), has_option_changed('SCF', 'SCF_TYPE')))  #TEST
clean()

set scf scf_type df
set puream true
banner('ITEM 8')
energy('scf', cast_up=True, cast_up_df=True)
compare_values(-37.5882728035, get_variable('SCF TOTAL ENERGY'), 8, '[8]  df-scf spherical castup %s %s %s %s %s %s' % (get_local_option('SCF', 'SCF_TYPE'), has_local_option_changed('SCF', 'SCF_TYPE'), get_global_option('SCF_TYPE'), has_global_option_changed('SCF_TYPE'), get_option('SCF', 'SCF_TYPE'), has_option_changed('SCF', 'SCF_TYPE')))  #TEST
clean()

set scf scf_type pk
set puream false
banner('ITEM 9')
energy('scf')
compare_values(-37.5885579065, get_variable('SCF TOTAL ENERGY'), 8, '[9]     scf cartesian        %s %s %s %s %s %s' % (get_local_option('SCF', 'SCF_TYPE'), has_local_option_changed('SCF', 'SCF_TYPE'), get_global_option('SCF_TYPE'), has_global_option_changed('SCF_TYPE'), get_option('SCF', 'SCF_TYPE'), has_option_changed('SCF', 'SCF_TYPE')))  #TEST
clean()

set scf scf_type pk
set puream false
banner('ITEM 10')
energy('scf', cast_up=True, cast_up_df=True)
compare_values(-37.5885579065, get_variable('SCF TOTAL ENERGY'), 8, '[10]    scf cartesian castup %s %s %s %s %s %s' % (get_local_option('SCF', 'SCF_TYPE'), has_local_option_changed('SCF', 'SCF_TYPE'), get_global_option('SCF_TYPE'), has_global_option_changed('SCF_TYPE'), get_option('SCF', 'SCF_TYPE'), has_option_changed('SCF', 'SCF_TYPE')))  #TEST
clean()

set scf scf_type df
set puream false
banner('ITEM 11')
energy('scf')
compare_values(-37.5885589047, get_variable('SCF TOTAL ENERGY'), 8, '[11] df-scf cartesian        %s %s %s %s %s %s' % (get_local_option('SCF', 'SCF_TYPE'), has_local_option_changed('SCF', 'SCF_TYPE'), get_global_option('SCF_TYPE'), has_global_option_changed('SCF_TYPE'), get_option('SCF', 'SCF_TYPE'), has_option_changed('SCF', 'SCF_TYPE')))  #TEST
clean()

set scf scf_type df
set puream false
banner('ITEM 12')
energy('scf', cast_up=True, cast_up_df=True)
compare_values(-37.5885589047, get_variable('SCF TOTAL ENERGY'), 8, '[12] df-scf cartesian castup %s %s %s %s %s %s' % (get_local_option('SCF', 'SCF_TYPE'), has_local_option_changed('SCF', 'SCF_TYPE'), get_global_option('SCF_TYPE'), has_global_option_changed('SCF_TYPE'), get_option('SCF', 'SCF_TYPE'), has_option_changed('SCF', 'SCF_TYPE')))  #TEST
clean()

--------------------------------------------------------------------------

  Memory set to 256.000 MiB by Python script.
  //>>>>>>>>>>>>>>>>>>>>>>>>>>>>>>>>>>>//
  //               ITEM 1              //
  //<<<<<<<<<<<<<<<<<<<<<<<<<<<<<<<<<<<//
    Molecular point group: d2h

    Geometry (in Angstrom), charge = 0, multiplicity = 1:

       Center              X                  Y                   Z       
    ------------   -----------------  -----------------  -----------------
           C          0.000000000000     0.000000000000     0.000000000000

  -AO BASIS SET INFORMATION:
    Name                   = 6-31G*
    Total number of shells = 6
    Number of primitives   = 15
    Number of AO           = 15
    Number of SO           = 15
    Maximum AM             = 2
    Spherical Harmonics    = FALSE

  -Contraction Scheme:
    Atom   Type   All Primitives // Shells:
   ------ ------ --------------------------
       1     C     10s 4p 1d // 3s 2p 1d 

  -Basis set on unique center 1: C
     S (       3047.52490000           0.53633438)
       (        457.36951000           0.98945061)
       (        103.94869000           1.59728223)
       (         29.21015500           2.07918706)
       (          9.28666300           1.77417425)
       (          3.16392700           0.61257983)
     S (          7.86827240          -0.39955635)
       (          1.88128850          -0.18415524)
       (          0.54424930           0.51639038)
     P (          7.86827240           1.29608272)
       (          1.88128850           0.99375363)
       (          0.54424930           0.49595271)
     S (          0.16871440           0.18761787)
     P (          0.16871440           0.15412755)
     D (          0.80000000           1.11382493)


*** tstart() called on localhost
*** at Sun Jun 17 01:07:30 2012


         ---------------------------------------------------------
                                   SCF
            by Justin Turney, Rob Parrish, and Andy Simmonett
                              RHF Reference
                        1 Threads,    256 MiB Core
         ---------------------------------------------------------

  ==> Geometry <==

    Molecular point group: d2h

    Geometry (in Angstrom), charge = 0, multiplicity = 1:

       Center              X                  Y                   Z       
    ------------   -----------------  -----------------  -----------------
           C          0.000000000000     0.000000000000     0.000000000000

  Running in d2h symmetry.

  Nuclear repulsion =    0.000000000000000

  Charge       = 0
  Multiplicity = 1
  Electrons    = 6
  Nalpha       = 3
  Nbeta        = 3

  ==> Algorithm <==

  SCF Algorithm Type is PK.
  DIIS enabled.
  MOM disabled.
  Fractional occupation disabled.
  Guess Type is CORE.
  Energy threshold   = 1.00e-08
  Density threshold  = 1.00e-08
  Integral threshold = 0.00e+00

  ==> Primary Basis <==

  Basis Set: 6-31G*
    Number of shells: 6
    Number of basis function: 15
    Number of Cartesian functions: 15
    Spherical Harmonics?: false
    Max angular momentum: 2

  ==> Pre-Iterations <==

   -------------------------------------------------------
    Irrep   Nso     Nmo     Nalpha   Nbeta   Ndocc  Nsocc
   -------------------------------------------------------
     Ag         6       6       0       0       0       0
     B1g        1       1       0       0       0       0
     B2g        1       1       0       0       0       0
     B3g        1       1       0       0       0       0
     Au         0       0       0       0       0       0
     B1u        2       2       0       0       0       0
     B2u        2       2       0       0       0       0
     B3u        2       2       0       0       0       0
   -------------------------------------------------------
    Total      15      15       3       3       3       0
   -------------------------------------------------------

  ==> Integral Setup <==

 MINTS: Wrapper to libmints.
   by Justin Turney

   Calculation information:
      Number of atoms:                   1
      Number of AO shells:               6
      Number of SO shells:               6
      Number of primitives:             15
      Number of atomic orbitals:        15
      Number of basis functions:        15

      Number of irreps:                  8
      Number of functions per irrep: [   6    1    1    1    0    2    2    2 ]

      Overlap, kinetic, potential, dipole, and quadrupole integrals
        stored in file 35.

      Computing two-electron integrals...done
      Computed 1188 non-zero two-electron integrals.
        Stored in file 33.

  Minimum eigenvalue in the overlap matrix is 4.7554816867E-02.
  Using Symmetric Orthogonalization.
  SCF Guess: Core (One-Electron) Hamiltonian.

  Initial RHF energy:   -26.55314225142583

  ==> Iterations <==

                        Total Energy        Delta E     Density RMS

   @RHF iter   1:   -35.82793611077516   -9.27479e+00   0.00000e+00 
   @RHF iter   2:   -37.57909126515764   -1.75116e+00   5.55340e-01 DIIS
   @RHF iter   3:   -37.58837096161609   -9.27970e-03   1.59594e-02 DIIS
   @RHF iter   4:   -37.58854645299470   -1.75491e-04   2.85585e-03 DIIS
   @RHF iter   5:   -37.58855777292288   -1.13199e-05   7.43569e-04 DIIS
   @RHF iter   6:   -37.58855790646790   -1.33545e-07   8.38540e-05 DIIS
   @RHF iter   7:   -37.58855790652029   -5.23954e-11   1.44749e-06 DIIS
   @RHF iter   8:   -37.58855790652037   -7.81597e-14   2.59114e-08 DIIS

  ==> Post-Iterations <==

	Orbital Energies (a.u.)
	-----------------------

	Doubly Occupied:                                                      

	   1Ag   -11.346075     2Ag    -0.709913     1B1u   -0.342245  

	Virtual:                                                              

	   1B3u    0.066770     1B2u    0.066770     2B1u    0.758988  
	   3Ag     0.765936     2B3u    0.789537     2B2u    0.789537  
	   4Ag     1.962665     1B1g    1.962665     1B2g    1.984787  
	   1B3g    1.984787     5Ag     1.992132     6Ag     4.169371  

	Final Occupation by Irrep:
	         Ag   B1g   B2g   B3g    Au   B1u   B2u   B3u 
	DOCC [     2,    0,    0,    0,    0,    1,    0,    0 ]

  Energy converged.

  @RHF Final Energy:   -37.58855790652037

   => Energetics <=

    Nuclear Repulsion Energy =          0.0000000000000000
    One-Electron Energy =             -50.3806478520198908
    Two-Electron Energy =              12.7920899454995194
    DFT Functional Energy =             0.0000000000000000
    Empirical Dispersion Energy =       0.0000000000000000
    Total Energy =                    -37.5885579065203714

  ==> Properties <==

  Nuclear Dipole Moment: (a.u.)
     X:     0.0000      Y:     0.0000      Z:     0.0000

  Electronic Dipole Moment: (a.u.)
     X:     0.0000      Y:     0.0000      Z:     0.0000

  Dipole Moment: (a.u.)
     X:     0.0000      Y:     0.0000      Z:     0.0000     Total:     0.0000

  Dipole Moment: (Debye)
     X:     0.0000      Y:     0.0000      Z:     0.0000     Total:     0.0000


  Saving occupied orbitals to File 180.

*** tstop() called on localhost at Sun Jun 17 01:07:30 2012
Module time:
	user time   =       0.11 seconds =       0.00 minutes
	system time =       0.00 seconds =       0.00 minutes
	total time  =          0 seconds =       0.00 minutes
Total time:
	user time   =       0.11 seconds =       0.00 minutes
	system time =       0.00 seconds =       0.00 minutes
	total time  =          0 seconds =       0.00 minutes
  //>>>>>>>>>>>>>>>>>>>>>>>>>>>>>>>>>>>//
  //               ITEM 2              //
  //<<<<<<<<<<<<<<<<<<<<<<<<<<<<<<<<<<<//
    Molecular point group: d2h

    Geometry (in Angstrom), charge = 0, multiplicity = 1:

       Center              X                  Y                   Z       
    ------------   -----------------  -----------------  -----------------
           C          0.000000000000     0.000000000000     0.000000000000

  -AO BASIS SET INFORMATION:
    Name                   = 6-31G*
    Total number of shells = 6
    Number of primitives   = 15
    Number of AO           = 15
    Number of SO           = 15
    Maximum AM             = 2
    Spherical Harmonics    = FALSE

  -Contraction Scheme:
    Atom   Type   All Primitives // Shells:
   ------ ------ --------------------------
       1     C     10s 4p 1d // 3s 2p 1d 

  -Basis set on unique center 1: C
     S (       3047.52490000           0.53633438)
       (        457.36951000           0.98945061)
       (        103.94869000           1.59728223)
       (         29.21015500           2.07918706)
       (          9.28666300           1.77417425)
       (          3.16392700           0.61257983)
     S (          7.86827240          -0.39955635)
       (          1.88128850          -0.18415524)
       (          0.54424930           0.51639038)
     P (          7.86827240           1.29608272)
       (          1.88128850           0.99375363)
       (          0.54424930           0.49595271)
     S (          0.16871440           0.18761787)
     P (          0.16871440           0.15412755)
     D (          0.80000000           1.11382493)


  //>>>>>>>>>>>>>>>>>>>>>>>>>>>>>>>>>>>//
  //       Guess SCF, 3-21G Basis      //
  //<<<<<<<<<<<<<<<<<<<<<<<<<<<<<<<<<<<//


*** tstart() called on localhost
*** at Sun Jun 17 01:07:31 2012


         ---------------------------------------------------------
                                   SCF
            by Justin Turney, Rob Parrish, and Andy Simmonett
                              RHF Reference
                        1 Threads,    256 MiB Core
         ---------------------------------------------------------

  ==> Geometry <==

    Molecular point group: d2h

    Geometry (in Angstrom), charge = 0, multiplicity = 1:

       Center              X                  Y                   Z       
    ------------   -----------------  -----------------  -----------------
           C          0.000000000000     0.000000000000     0.000000000000

  Running in d2h symmetry.

  Nuclear repulsion =    0.000000000000000

  Charge       = 0
  Multiplicity = 1
  Electrons    = 6
  Nalpha       = 3
  Nbeta        = 3

  ==> Algorithm <==

  SCF Algorithm Type is DF.
  DIIS enabled.
  MOM disabled.
  Fractional occupation disabled.
  Guess Type is CORE.
  Energy threshold   = 1.00e-08
  Density threshold  = 1.00e-08
  Integral threshold = 0.00e+00

  ==> Primary Basis <==

  Basis Set: 3-21G
    Number of shells: 5
    Number of basis function: 9
    Number of Cartesian functions: 9
    Spherical Harmonics?: false
    Max angular momentum: 1

  ==> Pre-Iterations <==

   -------------------------------------------------------
    Irrep   Nso     Nmo     Nalpha   Nbeta   Ndocc  Nsocc
   -------------------------------------------------------
     Ag         3       3       0       0       0       0
     B1g        0       0       0       0       0       0
     B2g        0       0       0       0       0       0
     B3g        0       0       0       0       0       0
     Au         0       0       0       0       0       0
     B1u        2       2       0       0       0       0
     B2u        2       2       0       0       0       0
     B3u        2       2       0       0       0       0
   -------------------------------------------------------
    Total       9       9       3       3       3       0
   -------------------------------------------------------

  ==> Integral Setup <==

 OEINTS: Wrapper to libmints.
   by Justin Turney

   Calculation information:
      Number of atoms:                   1
      Number of AO shells:               5
      Number of SO shells:               5
      Number of primitives:              9
      Number of atomic orbitals:         9
      Number of basis functions:         9

      Number of irreps:                  8
      Number of functions per irrep: [   3    0    0    0    0    2    2    2 ]

      Overlap, kinetic, potential, dipole, and quadrupole integrals
        stored in file 35.

  ==> DFJK: Density-Fitted J/K Matrices <==

    J tasked:                  Yes
    K tasked:                  Yes
    wK tasked:                  No
    OpenMP threads:              1
    Integrals threads:           1
    Memory (MB):               183
    Algorithm:                Core
    Integral Cache:           NONE
    Schwarz Cutoff:          0E+00
    Fitting Condition:       1E-12

   => Auxiliary Basis Set <=

  Basis Set: cc-pvdz-ri
    Number of shells: 18
    Number of basis function: 66
    Number of Cartesian functions: 66
    Spherical Harmonics?: false
    Max angular momentum: 3

  Minimum eigenvalue in the overlap matrix is 2.3855604202E-01.
  Using Symmetric Orthogonalization.
  SCF Guess: Core (One-Electron) Hamiltonian.

  Initial RHF energy:   -26.33990364839870

  ==> Iterations <==

                        Total Energy        Delta E     Density RMS

   @RHF iter   1:   -35.88385520669489   -9.54395e+00   0.00000e+00 
   @RHF iter   2:   -37.38983329676682   -1.50598e+00   3.29279e-01 DIIS
   @RHF iter   3:   -37.39207300507736   -2.23971e-03   1.08691e-02 DIIS
   @RHF iter   4:   -37.39207673784519   -3.73277e-06   2.67968e-04 DIIS
   @RHF iter   5:   -37.39207676615216   -2.83070e-08   4.49601e-05 DIIS
   @RHF iter   6:   -37.39207676696604   -8.13884e-10   8.63389e-06 DIIS

  ==> Post-Iterations <==

	Orbital Energies (a.u.)
	-----------------------

	Doubly Occupied:                                                      

	   1Ag   -11.280474     2Ag    -0.705126     1B1u   -0.340502  

	Virtual:                                                              

	   1B2u    0.072663     1B3u    0.072663     2B1u    0.955012  
	   2B3u    0.982303     2B2u    0.982303     3Ag     1.278718  

	Final Occupation by Irrep:
	         Ag   B1g   B2g   B3g    Au   B1u   B2u   B3u 
	DOCC [     2,    0,    0,    0,    0,    1,    0,    0 ]

  Energy converged.

  @RHF Final Energy:   -37.39207676696604

   => Energetics <=

    Nuclear Repulsion Energy =          0.0000000000000000
    One-Electron Energy =             -50.1319476382570031
    Two-Electron Energy =              12.7398708712909645
    DFT Functional Energy =             0.0000000000000000
    Empirical Dispersion Energy =       0.0000000000000000
    Total Energy =                    -37.3920767669660421

  ==> Properties <==

  Nuclear Dipole Moment: (a.u.)
     X:     0.0000      Y:     0.0000      Z:     0.0000

  Electronic Dipole Moment: (a.u.)
     X:     0.0000      Y:     0.0000      Z:     0.0000

  Dipole Moment: (a.u.)
     X:     0.0000      Y:     0.0000      Z:     0.0000     Total:     0.0000

  Dipole Moment: (Debye)
     X:     0.0000      Y:     0.0000      Z:     0.0000     Total:     0.0000


  Saving occupied orbitals to File 180.

*** tstop() called on localhost at Sun Jun 17 01:07:31 2012
Module time:
	user time   =       0.18 seconds =       0.00 minutes
	system time =       0.01 seconds =       0.00 minutes
	total time  =          0 seconds =       0.00 minutes
Total time:
	user time   =       0.54 seconds =       0.01 minutes
	system time =       0.02 seconds =       0.00 minutes
	total time  =          1 seconds =       0.02 minutes

  //>>>>>>>>>>>>>>>>>>>>>>>>>>>>>>>>>>>//
  //                SCF                //
  //<<<<<<<<<<<<<<<<<<<<<<<<<<<<<<<<<<<//


*** tstart() called on localhost
*** at Sun Jun 17 01:07:31 2012


         ---------------------------------------------------------
                                   SCF
            by Justin Turney, Rob Parrish, and Andy Simmonett
                              RHF Reference
                        1 Threads,    256 MiB Core
         ---------------------------------------------------------

  ==> Geometry <==

    Molecular point group: d2h

    Geometry (in Angstrom), charge = 0, multiplicity = 1:

       Center              X                  Y                   Z       
    ------------   -----------------  -----------------  -----------------
           C          0.000000000000     0.000000000000     0.000000000000

  Running in d2h symmetry.

  Nuclear repulsion =    0.000000000000000

  Charge       = 0
  Multiplicity = 1
  Electrons    = 6
  Nalpha       = 3
  Nbeta        = 3

  ==> Algorithm <==

  SCF Algorithm Type is PK.
  DIIS enabled.
  MOM disabled.
  Fractional occupation disabled.
  Guess Type is READ.
  Energy threshold   = 1.00e-08
  Density threshold  = 1.00e-08
  Integral threshold = 0.00e+00

  ==> Primary Basis <==

  Basis Set: 6-31G*
    Number of shells: 6
    Number of basis function: 15
    Number of Cartesian functions: 15
    Spherical Harmonics?: false
    Max angular momentum: 2

  ==> Pre-Iterations <==

   -------------------------------------------------------
    Irrep   Nso     Nmo     Nalpha   Nbeta   Ndocc  Nsocc
   -------------------------------------------------------
     Ag         6       6       0       0       0       0
     B1g        1       1       0       0       0       0
     B2g        1       1       0       0       0       0
     B3g        1       1       0       0       0       0
     Au         0       0       0       0       0       0
     B1u        2       2       0       0       0       0
     B2u        2       2       0       0       0       0
     B3u        2       2       0       0       0       0
   -------------------------------------------------------
    Total      15      15       3       3       3       0
   -------------------------------------------------------

  ==> Integral Setup <==

 MINTS: Wrapper to libmints.
   by Justin Turney

   Calculation information:
      Number of atoms:                   1
      Number of AO shells:               6
      Number of SO shells:               6
      Number of primitives:             15
      Number of atomic orbitals:        15
      Number of basis functions:        15

      Number of irreps:                  8
      Number of functions per irrep: [   6    1    1    1    0    2    2    2 ]

      Overlap, kinetic, potential, dipole, and quadrupole integrals
        stored in file 35.

      Computing two-electron integrals...done
      Computed 1188 non-zero two-electron integrals.
        Stored in file 33.

  Minimum eigenvalue in the overlap matrix is 4.7554816867E-02.
  Using Symmetric Orthogonalization.
  SCF Guess: Projection.

  Computing dual basis set projection from 3-21G to 6-31G*.
  Initial RHF energy:   -37.39207676696604

  ==> Iterations <==

                        Total Energy        Delta E     Density RMS

   @RHF iter   0:   -37.57496031974785   -1.82884e-01   0.00000e+00 
   @RHF iter   1:   -37.58848321722034   -1.35229e-02   2.07283e-02 
   @RHF iter   2:   -37.58855446580698   -7.12486e-05   1.58417e-03 DIIS
   @RHF iter   3:   -37.58855765908779   -3.19328e-06   3.14782e-04 DIIS
   @RHF iter   4:   -37.58855790576368   -2.46676e-07   1.11864e-04 DIIS
   @RHF iter   5:   -37.58855790652024   -7.56565e-10   6.79205e-06 DIIS
   @RHF iter   6:   -37.58855790652035   -1.06581e-13   5.34836e-08 DIIS

  ==> Post-Iterations <==

	Orbital Energies (a.u.)
	-----------------------

	Doubly Occupied:                                                      

	   1Ag   -11.346075     2Ag    -0.709913     1B1u   -0.342245  

	Virtual:                                                              

	   1B2u    0.066770     1B3u    0.066770     2B1u    0.758988  
	   3Ag     0.765936     2B3u    0.789537     2B2u    0.789537  
	   1B1g    1.962665     4Ag     1.962665     1B2g    1.984787  
	   1B3g    1.984787     5Ag     1.992132     6Ag     4.169371  

	Final Occupation by Irrep:
	         Ag   B1g   B2g   B3g    Au   B1u   B2u   B3u 
	DOCC [     2,    0,    0,    0,    0,    1,    0,    0 ]

  Energy converged.

  @RHF Final Energy:   -37.58855790652035

   => Energetics <=

    Nuclear Repulsion Energy =          0.0000000000000000
    One-Electron Energy =             -50.3806478474581994
    Two-Electron Energy =              12.7920899409378563
    DFT Functional Energy =             0.0000000000000000
    Empirical Dispersion Energy =       0.0000000000000000
    Total Energy =                    -37.5885579065203430

  ==> Properties <==

  Nuclear Dipole Moment: (a.u.)
     X:     0.0000      Y:     0.0000      Z:     0.0000

  Electronic Dipole Moment: (a.u.)
     X:     0.0000      Y:     0.0000      Z:     0.0000

  Dipole Moment: (a.u.)
     X:     0.0000      Y:     0.0000      Z:     0.0000     Total:     0.0000

  Dipole Moment: (Debye)
     X:     0.0000      Y:     0.0000      Z:     0.0000     Total:     0.0000


  Saving occupied orbitals to File 180.

*** tstop() called on localhost at Sun Jun 17 01:07:31 2012
Module time:
	user time   =       0.14 seconds =       0.00 minutes
	system time =       0.01 seconds =       0.00 minutes
	total time  =          0 seconds =       0.00 minutes
Total time:
	user time   =       0.68 seconds =       0.01 minutes
	system time =       0.03 seconds =       0.00 minutes
	total time  =          1 seconds =       0.02 minutes
  //>>>>>>>>>>>>>>>>>>>>>>>>>>>>>>>>>>>//
  //               ITEM 3              //
  //<<<<<<<<<<<<<<<<<<<<<<<<<<<<<<<<<<<//
    Molecular point group: d2h

    Geometry (in Angstrom), charge = 0, multiplicity = 1:

       Center              X                  Y                   Z       
    ------------   -----------------  -----------------  -----------------
           C          0.000000000000     0.000000000000     0.000000000000

  -AO BASIS SET INFORMATION:
    Name                   = 6-31G*
    Total number of shells = 6
    Number of primitives   = 15
    Number of AO           = 15
    Number of SO           = 15
    Maximum AM             = 2
    Spherical Harmonics    = FALSE

  -Contraction Scheme:
    Atom   Type   All Primitives // Shells:
   ------ ------ --------------------------
       1     C     10s 4p 1d // 3s 2p 1d 

  -Basis set on unique center 1: C
     S (       3047.52490000           0.53633438)
       (        457.36951000           0.98945061)
       (        103.94869000           1.59728223)
       (         29.21015500           2.07918706)
       (          9.28666300           1.77417425)
       (          3.16392700           0.61257983)
     S (          7.86827240          -0.39955635)
       (          1.88128850          -0.18415524)
       (          0.54424930           0.51639038)
     P (          7.86827240           1.29608272)
       (          1.88128850           0.99375363)
       (          0.54424930           0.49595271)
     S (          0.16871440           0.18761787)
     P (          0.16871440           0.15412755)
     D (          0.80000000           1.11382493)


*** tstart() called on localhost
*** at Sun Jun 17 01:07:31 2012


         ---------------------------------------------------------
                                   SCF
            by Justin Turney, Rob Parrish, and Andy Simmonett
                              RHF Reference
                        1 Threads,    256 MiB Core
         ---------------------------------------------------------

  ==> Geometry <==

    Molecular point group: d2h

    Geometry (in Angstrom), charge = 0, multiplicity = 1:

       Center              X                  Y                   Z       
    ------------   -----------------  -----------------  -----------------
           C          0.000000000000     0.000000000000     0.000000000000

  Running in d2h symmetry.

  Nuclear repulsion =    0.000000000000000

  Charge       = 0
  Multiplicity = 1
  Electrons    = 6
  Nalpha       = 3
  Nbeta        = 3

  ==> Algorithm <==

  SCF Algorithm Type is DF.
  DIIS enabled.
  MOM disabled.
  Fractional occupation disabled.
  Guess Type is CORE.
  Energy threshold   = 1.00e-08
  Density threshold  = 1.00e-08
  Integral threshold = 0.00e+00

  ==> Primary Basis <==

  Basis Set: 6-31G*
    Number of shells: 6
    Number of basis function: 15
    Number of Cartesian functions: 15
    Spherical Harmonics?: false
    Max angular momentum: 2

  ==> Pre-Iterations <==

   -------------------------------------------------------
    Irrep   Nso     Nmo     Nalpha   Nbeta   Ndocc  Nsocc
   -------------------------------------------------------
     Ag         6       6       0       0       0       0
     B1g        1       1       0       0       0       0
     B2g        1       1       0       0       0       0
     B3g        1       1       0       0       0       0
     Au         0       0       0       0       0       0
     B1u        2       2       0       0       0       0
     B2u        2       2       0       0       0       0
     B3u        2       2       0       0       0       0
   -------------------------------------------------------
    Total      15      15       3       3       3       0
   -------------------------------------------------------

  ==> Integral Setup <==

 OEINTS: Wrapper to libmints.
   by Justin Turney

   Calculation information:
      Number of atoms:                   1
      Number of AO shells:               6
      Number of SO shells:               6
      Number of primitives:             15
      Number of atomic orbitals:        15
      Number of basis functions:        15

      Number of irreps:                  8
      Number of functions per irrep: [   6    1    1    1    0    2    2    2 ]

      Overlap, kinetic, potential, dipole, and quadrupole integrals
        stored in file 35.

  ==> DFJK: Density-Fitted J/K Matrices <==

    J tasked:                  Yes
    K tasked:                  Yes
    wK tasked:                  No
    OpenMP threads:              1
    Integrals threads:           1
    Memory (MB):               183
    Algorithm:                Core
    Integral Cache:           NONE
    Schwarz Cutoff:          0E+00
    Fitting Condition:       1E-12

   => Auxiliary Basis Set <=

  Basis Set: CC-PVDZ-JKFIT
    Number of shells: 24
    Number of basis function: 81
    Number of Cartesian functions: 81
    Spherical Harmonics?: false
    Max angular momentum: 3

  Minimum eigenvalue in the overlap matrix is 4.7554816867E-02.
  Using Symmetric Orthogonalization.
  SCF Guess: Core (One-Electron) Hamiltonian.

  Initial RHF energy:   -26.55314225142583

  ==> Iterations <==

                        Total Energy        Delta E     Density RMS

   @RHF iter   1:   -35.82793836053929   -9.27480e+00   0.00000e+00 
   @RHF iter   2:   -37.57909717109699   -1.75116e+00   5.55339e-01 DIIS
   @RHF iter   3:   -37.58837191621620   -9.27475e-03   1.59547e-02 DIIS
   @RHF iter   4:   -37.58854744272087   -1.75527e-04   2.85527e-03 DIIS
   @RHF iter   5:   -37.58855877099413   -1.13283e-05   7.43817e-04 DIIS
   @RHF iter   6:   -37.58855890468421   -1.33690e-07   8.38957e-05 DIIS
   @RHF iter   7:   -37.58855890473671   -5.25091e-11   1.44775e-06 DIIS
   @RHF iter   8:   -37.58855890473675   -3.55271e-14   2.60845e-08 DIIS

  ==> Post-Iterations <==

	Orbital Energies (a.u.)
	-----------------------

	Doubly Occupied:                                                      

	   1Ag   -11.346078     2Ag    -0.709914     1B1u   -0.342247  

	Virtual:                                                              

	   1B3u    0.066774     1B2u    0.066774     2B1u    0.759025  
	   3Ag     0.765936     2B3u    0.789576     2B2u    0.789576  
	   4Ag     1.962862     1B1g    1.962862     1B2g    1.985084  
	   1B3g    1.985084     5Ag     1.992461     6Ag     4.169371  

	Final Occupation by Irrep:
	         Ag   B1g   B2g   B3g    Au   B1u   B2u   B3u 
	DOCC [     2,    0,    0,    0,    0,    1,    0,    0 ]

  Energy converged.

  @RHF Final Energy:   -37.58855890473675

   => Energetics <=

    Nuclear Repulsion Energy =          0.0000000000000000
    One-Electron Energy =             -50.3806401420791445
    Two-Electron Energy =              12.7920812373423960
    DFT Functional Energy =             0.0000000000000000
    Empirical Dispersion Energy =       0.0000000000000000
    Total Energy =                    -37.5885589047367503

  ==> Properties <==

  Nuclear Dipole Moment: (a.u.)
     X:     0.0000      Y:     0.0000      Z:     0.0000

  Electronic Dipole Moment: (a.u.)
     X:     0.0000      Y:     0.0000      Z:     0.0000

  Dipole Moment: (a.u.)
     X:     0.0000      Y:     0.0000      Z:     0.0000     Total:     0.0000

  Dipole Moment: (Debye)
     X:     0.0000      Y:     0.0000      Z:     0.0000     Total:     0.0000


  Saving occupied orbitals to File 180.

*** tstop() called on localhost at Sun Jun 17 01:07:32 2012
Module time:
	user time   =       0.25 seconds =       0.00 minutes
	system time =       0.01 seconds =       0.00 minutes
	total time  =          1 seconds =       0.02 minutes
Total time:
	user time   =       0.96 seconds =       0.02 minutes
	system time =       0.04 seconds =       0.00 minutes
	total time  =          2 seconds =       0.03 minutes
  //>>>>>>>>>>>>>>>>>>>>>>>>>>>>>>>>>>>//
  //               ITEM 4              //
  //<<<<<<<<<<<<<<<<<<<<<<<<<<<<<<<<<<<//
    Molecular point group: d2h

    Geometry (in Angstrom), charge = 0, multiplicity = 1:

       Center              X                  Y                   Z       
    ------------   -----------------  -----------------  -----------------
           C          0.000000000000     0.000000000000     0.000000000000

  -AO BASIS SET INFORMATION:
    Name                   = 6-31G*
    Total number of shells = 6
    Number of primitives   = 15
    Number of AO           = 15
    Number of SO           = 15
    Maximum AM             = 2
    Spherical Harmonics    = FALSE

  -Contraction Scheme:
    Atom   Type   All Primitives // Shells:
   ------ ------ --------------------------
       1     C     10s 4p 1d // 3s 2p 1d 

  -Basis set on unique center 1: C
     S (       3047.52490000           0.53633438)
       (        457.36951000           0.98945061)
       (        103.94869000           1.59728223)
       (         29.21015500           2.07918706)
       (          9.28666300           1.77417425)
       (          3.16392700           0.61257983)
     S (          7.86827240          -0.39955635)
       (          1.88128850          -0.18415524)
       (          0.54424930           0.51639038)
     P (          7.86827240           1.29608272)
       (          1.88128850           0.99375363)
       (          0.54424930           0.49595271)
     S (          0.16871440           0.18761787)
     P (          0.16871440           0.15412755)
     D (          0.80000000           1.11382493)


  //>>>>>>>>>>>>>>>>>>>>>>>>>>>>>>>>>>>//
  //       Guess SCF, 3-21G Basis      //
  //<<<<<<<<<<<<<<<<<<<<<<<<<<<<<<<<<<<//


*** tstart() called on localhost
*** at Sun Jun 17 01:07:32 2012


         ---------------------------------------------------------
                                   SCF
            by Justin Turney, Rob Parrish, and Andy Simmonett
                              RHF Reference
                        1 Threads,    256 MiB Core
         ---------------------------------------------------------

  ==> Geometry <==

    Molecular point group: d2h

    Geometry (in Angstrom), charge = 0, multiplicity = 1:

       Center              X                  Y                   Z       
    ------------   -----------------  -----------------  -----------------
           C          0.000000000000     0.000000000000     0.000000000000

  Running in d2h symmetry.

  Nuclear repulsion =    0.000000000000000

  Charge       = 0
  Multiplicity = 1
  Electrons    = 6
  Nalpha       = 3
  Nbeta        = 3

  ==> Algorithm <==

  SCF Algorithm Type is DF.
  DIIS enabled.
  MOM disabled.
  Fractional occupation disabled.
  Guess Type is CORE.
  Energy threshold   = 1.00e-08
  Density threshold  = 1.00e-08
  Integral threshold = 0.00e+00

  ==> Primary Basis <==

  Basis Set: 3-21G
    Number of shells: 5
    Number of basis function: 9
    Number of Cartesian functions: 9
    Spherical Harmonics?: false
    Max angular momentum: 1

  ==> Pre-Iterations <==

   -------------------------------------------------------
    Irrep   Nso     Nmo     Nalpha   Nbeta   Ndocc  Nsocc
   -------------------------------------------------------
     Ag         3       3       0       0       0       0
     B1g        0       0       0       0       0       0
     B2g        0       0       0       0       0       0
     B3g        0       0       0       0       0       0
     Au         0       0       0       0       0       0
     B1u        2       2       0       0       0       0
     B2u        2       2       0       0       0       0
     B3u        2       2       0       0       0       0
   -------------------------------------------------------
    Total       9       9       3       3       3       0
   -------------------------------------------------------

  ==> Integral Setup <==

 OEINTS: Wrapper to libmints.
   by Justin Turney

   Calculation information:
      Number of atoms:                   1
      Number of AO shells:               5
      Number of SO shells:               5
      Number of primitives:              9
      Number of atomic orbitals:         9
      Number of basis functions:         9

      Number of irreps:                  8
      Number of functions per irrep: [   3    0    0    0    0    2    2    2 ]

      Overlap, kinetic, potential, dipole, and quadrupole integrals
        stored in file 35.

  ==> DFJK: Density-Fitted J/K Matrices <==

    J tasked:                  Yes
    K tasked:                  Yes
    wK tasked:                  No
    OpenMP threads:              1
    Integrals threads:           1
    Memory (MB):               183
    Algorithm:                Core
    Integral Cache:           NONE
    Schwarz Cutoff:          0E+00
    Fitting Condition:       1E-12

   => Auxiliary Basis Set <=

  Basis Set: cc-pvdz-ri
    Number of shells: 18
    Number of basis function: 66
    Number of Cartesian functions: 66
    Spherical Harmonics?: false
    Max angular momentum: 3

  Minimum eigenvalue in the overlap matrix is 2.3855604202E-01.
  Using Symmetric Orthogonalization.
  SCF Guess: Core (One-Electron) Hamiltonian.

  Initial RHF energy:   -26.33990364839870

  ==> Iterations <==

                        Total Energy        Delta E     Density RMS

   @RHF iter   1:   -35.88385520669489   -9.54395e+00   0.00000e+00 
   @RHF iter   2:   -37.38983329676682   -1.50598e+00   3.29279e-01 DIIS
   @RHF iter   3:   -37.39207300507736   -2.23971e-03   1.08691e-02 DIIS
   @RHF iter   4:   -37.39207673784519   -3.73277e-06   2.67968e-04 DIIS
   @RHF iter   5:   -37.39207676615216   -2.83070e-08   4.49601e-05 DIIS
   @RHF iter   6:   -37.39207676696604   -8.13884e-10   8.63389e-06 DIIS

  ==> Post-Iterations <==

	Orbital Energies (a.u.)
	-----------------------

	Doubly Occupied:                                                      

	   1Ag   -11.280474     2Ag    -0.705126     1B1u   -0.340502  

	Virtual:                                                              

	   1B2u    0.072663     1B3u    0.072663     2B1u    0.955012  
	   2B3u    0.982303     2B2u    0.982303     3Ag     1.278718  

	Final Occupation by Irrep:
	         Ag   B1g   B2g   B3g    Au   B1u   B2u   B3u 
	DOCC [     2,    0,    0,    0,    0,    1,    0,    0 ]

  Energy converged.

  @RHF Final Energy:   -37.39207676696604

   => Energetics <=

    Nuclear Repulsion Energy =          0.0000000000000000
    One-Electron Energy =             -50.1319476382570031
    Two-Electron Energy =              12.7398708712909645
    DFT Functional Energy =             0.0000000000000000
    Empirical Dispersion Energy =       0.0000000000000000
    Total Energy =                    -37.3920767669660421

  ==> Properties <==

  Nuclear Dipole Moment: (a.u.)
     X:     0.0000      Y:     0.0000      Z:     0.0000

  Electronic Dipole Moment: (a.u.)
     X:     0.0000      Y:     0.0000      Z:     0.0000

  Dipole Moment: (a.u.)
     X:     0.0000      Y:     0.0000      Z:     0.0000     Total:     0.0000

  Dipole Moment: (Debye)
     X:     0.0000      Y:     0.0000      Z:     0.0000     Total:     0.0000


  Saving occupied orbitals to File 180.

*** tstop() called on localhost at Sun Jun 17 01:07:32 2012
Module time:
	user time   =       0.19 seconds =       0.00 minutes
	system time =       0.01 seconds =       0.00 minutes
	total time  =          0 seconds =       0.00 minutes
Total time:
	user time   =       1.27 seconds =       0.02 minutes
	system time =       0.05 seconds =       0.00 minutes
	total time  =          2 seconds =       0.03 minutes

  //>>>>>>>>>>>>>>>>>>>>>>>>>>>>>>>>>>>//
  //                SCF                //
  //<<<<<<<<<<<<<<<<<<<<<<<<<<<<<<<<<<<//


*** tstart() called on localhost
*** at Sun Jun 17 01:07:32 2012


         ---------------------------------------------------------
                                   SCF
            by Justin Turney, Rob Parrish, and Andy Simmonett
                              RHF Reference
                        1 Threads,    256 MiB Core
         ---------------------------------------------------------

  ==> Geometry <==

    Molecular point group: d2h

    Geometry (in Angstrom), charge = 0, multiplicity = 1:

       Center              X                  Y                   Z       
    ------------   -----------------  -----------------  -----------------
           C          0.000000000000     0.000000000000     0.000000000000

  Running in d2h symmetry.

  Nuclear repulsion =    0.000000000000000

  Charge       = 0
  Multiplicity = 1
  Electrons    = 6
  Nalpha       = 3
  Nbeta        = 3

  ==> Algorithm <==

  SCF Algorithm Type is DF.
  DIIS enabled.
  MOM disabled.
  Fractional occupation disabled.
  Guess Type is READ.
  Energy threshold   = 1.00e-08
  Density threshold  = 1.00e-08
  Integral threshold = 0.00e+00

  ==> Primary Basis <==

  Basis Set: 6-31G*
    Number of shells: 6
    Number of basis function: 15
    Number of Cartesian functions: 15
    Spherical Harmonics?: false
    Max angular momentum: 2

  ==> Pre-Iterations <==

   -------------------------------------------------------
    Irrep   Nso     Nmo     Nalpha   Nbeta   Ndocc  Nsocc
   -------------------------------------------------------
     Ag         6       6       0       0       0       0
     B1g        1       1       0       0       0       0
     B2g        1       1       0       0       0       0
     B3g        1       1       0       0       0       0
     Au         0       0       0       0       0       0
     B1u        2       2       0       0       0       0
     B2u        2       2       0       0       0       0
     B3u        2       2       0       0       0       0
   -------------------------------------------------------
    Total      15      15       3       3       3       0
   -------------------------------------------------------

  ==> Integral Setup <==

 OEINTS: Wrapper to libmints.
   by Justin Turney

   Calculation information:
      Number of atoms:                   1
      Number of AO shells:               6
      Number of SO shells:               6
      Number of primitives:             15
      Number of atomic orbitals:        15
      Number of basis functions:        15

      Number of irreps:                  8
      Number of functions per irrep: [   6    1    1    1    0    2    2    2 ]

      Overlap, kinetic, potential, dipole, and quadrupole integrals
        stored in file 35.

  ==> DFJK: Density-Fitted J/K Matrices <==

    J tasked:                  Yes
    K tasked:                  Yes
    wK tasked:                  No
    OpenMP threads:              1
    Integrals threads:           1
    Memory (MB):               183
    Algorithm:                Core
    Integral Cache:           NONE
    Schwarz Cutoff:          0E+00
    Fitting Condition:       1E-12

   => Auxiliary Basis Set <=

  Basis Set: CC-PVDZ-JKFIT
    Number of shells: 24
    Number of basis function: 81
    Number of Cartesian functions: 81
    Spherical Harmonics?: false
    Max angular momentum: 3

  Minimum eigenvalue in the overlap matrix is 4.7554816867E-02.
  Using Symmetric Orthogonalization.
  SCF Guess: Projection.

  Computing dual basis set projection from 3-21G to 6-31G*.
  Initial RHF energy:   -37.39207676696604

  ==> Iterations <==

                        Total Energy        Delta E     Density RMS

   @RHF iter   0:   -37.57496128586257   -1.82885e-01   0.00000e+00 
   @RHF iter   1:   -37.58848421004452   -1.35229e-02   2.07283e-02 
   @RHF iter   2:   -37.58855546298970   -7.12529e-05   1.58419e-03 DIIS
   @RHF iter   3:   -37.58855865712899   -3.19414e-06   3.14813e-04 DIIS
   @RHF iter   4:   -37.58855890397862   -2.46850e-07   1.11900e-04 DIIS
   @RHF iter   5:   -37.58855890473664   -7.58014e-10   6.79767e-06 DIIS
   @RHF iter   6:   -37.58855890473679   -1.56319e-13   5.35585e-08 DIIS

  ==> Post-Iterations <==

	Orbital Energies (a.u.)
	-----------------------

	Doubly Occupied:                                                      

	   1Ag   -11.346078     2Ag    -0.709914     1B1u   -0.342247  

	Virtual:                                                              

	   1B3u    0.066774     1B2u    0.066774     2B1u    0.759025  
	   3Ag     0.765936     2B3u    0.789576     2B2u    0.789576  
	   4Ag     1.962862     1B1g    1.962862     1B2g    1.985084  
	   1B3g    1.985084     5Ag     1.992461     6Ag     4.169371  

	Final Occupation by Irrep:
	         Ag   B1g   B2g   B3g    Au   B1u   B2u   B3u 
	DOCC [     2,    0,    0,    0,    0,    1,    0,    0 ]

  Energy converged.

  @RHF Final Energy:   -37.58855890473679

   => Energetics <=

    Nuclear Repulsion Energy =          0.0000000000000000
    One-Electron Energy =             -50.3806401375300794
    Two-Electron Energy =              12.7920812327932829
    DFT Functional Energy =             0.0000000000000000
    Empirical Dispersion Energy =       0.0000000000000000
    Total Energy =                    -37.5885589047368001

  ==> Properties <==

  Nuclear Dipole Moment: (a.u.)
     X:     0.0000      Y:     0.0000      Z:     0.0000

  Electronic Dipole Moment: (a.u.)
     X:     0.0000      Y:     0.0000      Z:     0.0000

  Dipole Moment: (a.u.)
     X:     0.0000      Y:     0.0000      Z:     0.0000     Total:     0.0000

  Dipole Moment: (Debye)
     X:     0.0000      Y:     0.0000      Z:     0.0000     Total:     0.0000


  Saving occupied orbitals to File 180.

*** tstop() called on localhost at Sun Jun 17 01:07:32 2012
Module time:
	user time   =       0.28 seconds =       0.00 minutes
	system time =       0.01 seconds =       0.00 minutes
	total time  =          0 seconds =       0.00 minutes
Total time:
	user time   =       1.55 seconds =       0.03 minutes
	system time =       0.06 seconds =       0.00 minutes
	total time  =          2 seconds =       0.03 minutes
  //>>>>>>>>>>>>>>>>>>>>>>>>>>>>>>>>>>>//
  //               ITEM 5              //
  //<<<<<<<<<<<<<<<<<<<<<<<<<<<<<<<<<<<//
    Molecular point group: d2h

    Geometry (in Angstrom), charge = 0, multiplicity = 1:

       Center              X                  Y                   Z       
    ------------   -----------------  -----------------  -----------------
           C          0.000000000000     0.000000000000     0.000000000000

  -AO BASIS SET INFORMATION:
    Name                   = 6-31G*
    Total number of shells = 6
    Number of primitives   = 15
    Number of AO           = 15
    Number of SO           = 14
    Maximum AM             = 2
    Spherical Harmonics    = TRUE

  -Contraction Scheme:
    Atom   Type   All Primitives // Shells:
   ------ ------ --------------------------
       1     C     10s 4p 1d // 3s 2p 1d 

  -Basis set on unique center 1: C
     S (       3047.52490000           0.53633438)
       (        457.36951000           0.98945061)
       (        103.94869000           1.59728223)
       (         29.21015500           2.07918706)
       (          9.28666300           1.77417425)
       (          3.16392700           0.61257983)
     S (          7.86827240          -0.39955635)
       (          1.88128850          -0.18415524)
       (          0.54424930           0.51639038)
     P (          7.86827240           1.29608272)
       (          1.88128850           0.99375363)
       (          0.54424930           0.49595271)
     S (          0.16871440           0.18761787)
     P (          0.16871440           0.15412755)
     D (          0.80000000           1.11382493)


*** tstart() called on localhost
*** at Sun Jun 17 01:07:32 2012


         ---------------------------------------------------------
                                   SCF
            by Justin Turney, Rob Parrish, and Andy Simmonett
                              RHF Reference
                        1 Threads,    256 MiB Core
         ---------------------------------------------------------

  ==> Geometry <==

    Molecular point group: d2h

    Geometry (in Angstrom), charge = 0, multiplicity = 1:

       Center              X                  Y                   Z       
    ------------   -----------------  -----------------  -----------------
           C          0.000000000000     0.000000000000     0.000000000000

  Running in d2h symmetry.

  Nuclear repulsion =    0.000000000000000

  Charge       = 0
  Multiplicity = 1
  Electrons    = 6
  Nalpha       = 3
  Nbeta        = 3

  ==> Algorithm <==

  SCF Algorithm Type is PK.
  DIIS enabled.
  MOM disabled.
  Fractional occupation disabled.
  Guess Type is CORE.
  Energy threshold   = 1.00e-08
  Density threshold  = 1.00e-08
  Integral threshold = 0.00e+00

  ==> Primary Basis <==

  Basis Set: 6-31G*
    Number of shells: 6
    Number of basis function: 14
    Number of Cartesian functions: 15
    Spherical Harmonics?: true
    Max angular momentum: 2

  ==> Pre-Iterations <==

   -------------------------------------------------------
    Irrep   Nso     Nmo     Nalpha   Nbeta   Ndocc  Nsocc
   -------------------------------------------------------
     Ag         5       5       0       0       0       0
     B1g        1       1       0       0       0       0
     B2g        1       1       0       0       0       0
     B3g        1       1       0       0       0       0
     Au         0       0       0       0       0       0
     B1u        2       2       0       0       0       0
     B2u        2       2       0       0       0       0
     B3u        2       2       0       0       0       0
   -------------------------------------------------------
    Total      14      14       3       3       3       0
   -------------------------------------------------------

  ==> Integral Setup <==

 MINTS: Wrapper to libmints.
   by Justin Turney

   Calculation information:
      Number of atoms:                   1
      Number of AO shells:               6
      Number of SO shells:               6
      Number of primitives:             15
      Number of atomic orbitals:        15
      Number of basis functions:        14

      Number of irreps:                  8
      Number of functions per irrep: [   5    1    1    1    0    2    2    2 ]

      Overlap, kinetic, potential, dipole, and quadrupole integrals
        stored in file 35.

      Computing two-electron integrals...done
      Computed 776 non-zero two-electron integrals.
        Stored in file 33.

  Minimum eigenvalue in the overlap matrix is 1.8693345433E-01.
  Using Symmetric Orthogonalization.
  SCF Guess: Core (One-Electron) Hamiltonian.

  Initial RHF energy:   -26.33496706070197

  ==> Iterations <==

                        Total Energy        Delta E     Density RMS

   @RHF iter   1:   -36.54848160947076   -1.02135e+01   0.00000e+00 
   @RHF iter   2:   -37.58751878895831   -1.03904e+00   2.65972e-01 DIIS
   @RHF iter   3:   -37.58826988219985   -7.51093e-04   4.27284e-03 DIIS
   @RHF iter   4:   -37.58827330420774   -3.42201e-06   3.27387e-04 DIIS
   @RHF iter   5:   -37.58827347646366   -1.72256e-07   9.51792e-05 DIIS
   @RHF iter   6:   -37.58827347823352   -1.76986e-09   1.02293e-05 DIIS
   @RHF iter   7:   -37.58827347828132   -4.78053e-11   1.44847e-06 DIIS
   @RHF iter   8:   -37.58827347828136   -3.55271e-14   3.93654e-08 DIIS

  ==> Post-Iterations <==

	Orbital Energies (a.u.)
	-----------------------

	Doubly Occupied:                                                      

	   1Ag   -11.348446     2Ag    -0.709559     1B1u   -0.342230  

	Virtual:                                                              

	   1B3u    0.066966     1B2u    0.066966     2B1u    0.758886  
	   3Ag     0.787452     2B3u    0.789446     2B2u    0.789446  
	   4Ag     1.962924     1B1g    1.962924     1B2g    1.985040  
	   1B3g    1.985040     5Ag     1.992551  

	Final Occupation by Irrep:
	         Ag   B1g   B2g   B3g    Au   B1u   B2u   B3u 
	DOCC [     2,    0,    0,    0,    0,    1,    0,    0 ]

  Energy converged.

  @RHF Final Energy:   -37.58827347828136

   => Energetics <=

    Nuclear Repulsion Energy =          0.0000000000000000
    One-Electron Energy =             -50.3760772938116688
    Two-Electron Energy =              12.7878038155303084
    DFT Functional Energy =             0.0000000000000000
    Empirical Dispersion Energy =       0.0000000000000000
    Total Energy =                    -37.5882734782813586

  ==> Properties <==

  Nuclear Dipole Moment: (a.u.)
     X:     0.0000      Y:     0.0000      Z:     0.0000

  Electronic Dipole Moment: (a.u.)
     X:     0.0000      Y:     0.0000      Z:     0.0000

  Dipole Moment: (a.u.)
     X:     0.0000      Y:     0.0000      Z:     0.0000     Total:     0.0000

  Dipole Moment: (Debye)
     X:     0.0000      Y:     0.0000      Z:     0.0000     Total:     0.0000


  Saving occupied orbitals to File 180.

*** tstop() called on localhost at Sun Jun 17 01:07:32 2012
Module time:
	user time   =       0.11 seconds =       0.00 minutes
	system time =       0.01 seconds =       0.00 minutes
	total time  =          0 seconds =       0.00 minutes
Total time:
	user time   =       1.69 seconds =       0.03 minutes
	system time =       0.07 seconds =       0.00 minutes
	total time  =          2 seconds =       0.03 minutes
  //>>>>>>>>>>>>>>>>>>>>>>>>>>>>>>>>>>>//
  //               ITEM 6              //
  //<<<<<<<<<<<<<<<<<<<<<<<<<<<<<<<<<<<//
    Molecular point group: d2h

    Geometry (in Angstrom), charge = 0, multiplicity = 1:

       Center              X                  Y                   Z       
    ------------   -----------------  -----------------  -----------------
           C          0.000000000000     0.000000000000     0.000000000000

  -AO BASIS SET INFORMATION:
    Name                   = 6-31G*
    Total number of shells = 6
    Number of primitives   = 15
    Number of AO           = 15
    Number of SO           = 14
    Maximum AM             = 2
    Spherical Harmonics    = TRUE

  -Contraction Scheme:
    Atom   Type   All Primitives // Shells:
   ------ ------ --------------------------
       1     C     10s 4p 1d // 3s 2p 1d 

  -Basis set on unique center 1: C
     S (       3047.52490000           0.53633438)
       (        457.36951000           0.98945061)
       (        103.94869000           1.59728223)
       (         29.21015500           2.07918706)
       (          9.28666300           1.77417425)
       (          3.16392700           0.61257983)
     S (          7.86827240          -0.39955635)
       (          1.88128850          -0.18415524)
       (          0.54424930           0.51639038)
     P (          7.86827240           1.29608272)
       (          1.88128850           0.99375363)
       (          0.54424930           0.49595271)
     S (          0.16871440           0.18761787)
     P (          0.16871440           0.15412755)
     D (          0.80000000           1.11382493)


  //>>>>>>>>>>>>>>>>>>>>>>>>>>>>>>>>>>>//
  //       Guess SCF, 3-21G Basis      //
  //<<<<<<<<<<<<<<<<<<<<<<<<<<<<<<<<<<<//


*** tstart() called on localhost
*** at Sun Jun 17 01:07:33 2012


         ---------------------------------------------------------
                                   SCF
            by Justin Turney, Rob Parrish, and Andy Simmonett
                              RHF Reference
                        1 Threads,    256 MiB Core
         ---------------------------------------------------------

  ==> Geometry <==

    Molecular point group: d2h

    Geometry (in Angstrom), charge = 0, multiplicity = 1:

       Center              X                  Y                   Z       
    ------------   -----------------  -----------------  -----------------
           C          0.000000000000     0.000000000000     0.000000000000

  Running in d2h symmetry.

  Nuclear repulsion =    0.000000000000000

  Charge       = 0
  Multiplicity = 1
  Electrons    = 6
  Nalpha       = 3
  Nbeta        = 3

  ==> Algorithm <==

  SCF Algorithm Type is DF.
  DIIS enabled.
  MOM disabled.
  Fractional occupation disabled.
  Guess Type is CORE.
  Energy threshold   = 1.00e-08
  Density threshold  = 1.00e-08
  Integral threshold = 0.00e+00

  ==> Primary Basis <==

  Basis Set: 3-21G
    Number of shells: 5
    Number of basis function: 9
    Number of Cartesian functions: 9
    Spherical Harmonics?: true
    Max angular momentum: 1

  ==> Pre-Iterations <==

   -------------------------------------------------------
    Irrep   Nso     Nmo     Nalpha   Nbeta   Ndocc  Nsocc
   -------------------------------------------------------
     Ag         3       3       0       0       0       0
     B1g        0       0       0       0       0       0
     B2g        0       0       0       0       0       0
     B3g        0       0       0       0       0       0
     Au         0       0       0       0       0       0
     B1u        2       2       0       0       0       0
     B2u        2       2       0       0       0       0
     B3u        2       2       0       0       0       0
   -------------------------------------------------------
    Total       9       9       3       3       3       0
   -------------------------------------------------------

  ==> Integral Setup <==

 OEINTS: Wrapper to libmints.
   by Justin Turney

   Calculation information:
      Number of atoms:                   1
      Number of AO shells:               5
      Number of SO shells:               5
      Number of primitives:              9
      Number of atomic orbitals:         9
      Number of basis functions:         9

      Number of irreps:                  8
      Number of functions per irrep: [   3    0    0    0    0    2    2    2 ]

      Overlap, kinetic, potential, dipole, and quadrupole integrals
        stored in file 35.

  ==> DFJK: Density-Fitted J/K Matrices <==

    J tasked:                  Yes
    K tasked:                  Yes
    wK tasked:                  No
    OpenMP threads:              1
    Integrals threads:           1
    Memory (MB):               183
    Algorithm:                Core
    Integral Cache:           NONE
    Schwarz Cutoff:          0E+00
    Fitting Condition:       1E-12

   => Auxiliary Basis Set <=

  Basis Set: cc-pvdz-ri
    Number of shells: 18
    Number of basis function: 56
    Number of Cartesian functions: 66
    Spherical Harmonics?: true
    Max angular momentum: 3

  Minimum eigenvalue in the overlap matrix is 2.3855604202E-01.
  Using Symmetric Orthogonalization.
  SCF Guess: Core (One-Electron) Hamiltonian.

  Initial RHF energy:   -26.33990364839870

  ==> Iterations <==

                        Total Energy        Delta E     Density RMS

   @RHF iter   1:   -35.88380619614758   -9.54390e+00   0.00000e+00 
   @RHF iter   2:   -37.38984216440841   -1.50604e+00   3.29283e-01 DIIS
   @RHF iter   3:   -37.39208398966337   -2.24183e-03   1.08723e-02 DIIS
   @RHF iter   4:   -37.39208773935120   -3.74969e-06   2.69107e-04 DIIS
   @RHF iter   5:   -37.39208776836103   -2.90098e-08   4.56791e-05 DIIS
   @RHF iter   6:   -37.39208776915927   -7.98238e-10   8.53802e-06 DIIS

  ==> Post-Iterations <==

	Orbital Energies (a.u.)
	-----------------------

	Doubly Occupied:                                                      

	   1Ag   -11.280491     2Ag    -0.705121     1B1u   -0.340509  

	Virtual:                                                              

	   1B2u    0.072651     1B3u    0.072651     2B1u    0.955035  
	   2B2u    0.982319     2B3u    0.982319     3Ag     1.278836  

	Final Occupation by Irrep:
	         Ag   B1g   B2g   B3g    Au   B1u   B2u   B3u 
	DOCC [     2,    0,    0,    0,    0,    1,    0,    0 ]

  Energy converged.

  @RHF Final Energy:   -37.39208776915927

   => Energetics <=

    Nuclear Repulsion Energy =          0.0000000000000000
    One-Electron Energy =             -50.1319339345837065
    Two-Electron Energy =              12.7398461654244279
    DFT Functional Energy =             0.0000000000000000
    Empirical Dispersion Energy =       0.0000000000000000
    Total Energy =                    -37.3920877691592750

  ==> Properties <==

  Nuclear Dipole Moment: (a.u.)
     X:     0.0000      Y:     0.0000      Z:     0.0000

  Electronic Dipole Moment: (a.u.)
     X:     0.0000      Y:     0.0000      Z:     0.0000

  Dipole Moment: (a.u.)
     X:     0.0000      Y:     0.0000      Z:     0.0000     Total:     0.0000

  Dipole Moment: (Debye)
     X:     0.0000      Y:     0.0000      Z:     0.0000     Total:     0.0000


  Saving occupied orbitals to File 180.

*** tstop() called on localhost at Sun Jun 17 01:07:33 2012
Module time:
	user time   =       0.19 seconds =       0.00 minutes
	system time =       0.01 seconds =       0.00 minutes
	total time  =          0 seconds =       0.00 minutes
Total time:
	user time   =       2.00 seconds =       0.03 minutes
	system time =       0.08 seconds =       0.00 minutes
	total time  =          3 seconds =       0.05 minutes

  //>>>>>>>>>>>>>>>>>>>>>>>>>>>>>>>>>>>//
  //                SCF                //
  //<<<<<<<<<<<<<<<<<<<<<<<<<<<<<<<<<<<//


*** tstart() called on localhost
*** at Sun Jun 17 01:07:33 2012


         ---------------------------------------------------------
                                   SCF
            by Justin Turney, Rob Parrish, and Andy Simmonett
                              RHF Reference
                        1 Threads,    256 MiB Core
         ---------------------------------------------------------

  ==> Geometry <==

    Molecular point group: d2h

    Geometry (in Angstrom), charge = 0, multiplicity = 1:

       Center              X                  Y                   Z       
    ------------   -----------------  -----------------  -----------------
           C          0.000000000000     0.000000000000     0.000000000000

  Running in d2h symmetry.

  Nuclear repulsion =    0.000000000000000

  Charge       = 0
  Multiplicity = 1
  Electrons    = 6
  Nalpha       = 3
  Nbeta        = 3

  ==> Algorithm <==

  SCF Algorithm Type is PK.
  DIIS enabled.
  MOM disabled.
  Fractional occupation disabled.
  Guess Type is READ.
  Energy threshold   = 1.00e-08
  Density threshold  = 1.00e-08
  Integral threshold = 0.00e+00

  ==> Primary Basis <==

  Basis Set: 6-31G*
    Number of shells: 6
    Number of basis function: 14
    Number of Cartesian functions: 15
    Spherical Harmonics?: true
    Max angular momentum: 2

  ==> Pre-Iterations <==

   -------------------------------------------------------
    Irrep   Nso     Nmo     Nalpha   Nbeta   Ndocc  Nsocc
   -------------------------------------------------------
     Ag         5       5       0       0       0       0
     B1g        1       1       0       0       0       0
     B2g        1       1       0       0       0       0
     B3g        1       1       0       0       0       0
     Au         0       0       0       0       0       0
     B1u        2       2       0       0       0       0
     B2u        2       2       0       0       0       0
     B3u        2       2       0       0       0       0
   -------------------------------------------------------
    Total      14      14       3       3       3       0
   -------------------------------------------------------

  ==> Integral Setup <==

 MINTS: Wrapper to libmints.
   by Justin Turney

   Calculation information:
      Number of atoms:                   1
      Number of AO shells:               6
      Number of SO shells:               6
      Number of primitives:             15
      Number of atomic orbitals:        15
      Number of basis functions:        14

      Number of irreps:                  8
      Number of functions per irrep: [   5    1    1    1    0    2    2    2 ]

      Overlap, kinetic, potential, dipole, and quadrupole integrals
        stored in file 35.

      Computing two-electron integrals...done
      Computed 776 non-zero two-electron integrals.
        Stored in file 33.

  Minimum eigenvalue in the overlap matrix is 1.8693345433E-01.
  Using Symmetric Orthogonalization.
  SCF Guess: Projection.

  Computing dual basis set projection from 3-21G to 6-31G*.
  Initial RHF energy:   -37.39208776915927

  ==> Iterations <==

                        Total Energy        Delta E     Density RMS

   @RHF iter   0:   -37.58564675342110   -1.93559e-01   0.00000e+00 
   @RHF iter   1:   -37.58820091520231   -2.55416e-03   9.11329e-03 
   @RHF iter   2:   -37.58826624118891   -6.53260e-05   1.44975e-03 DIIS
   @RHF iter   3:   -37.58827336269129   -7.12150e-06   6.18209e-04 DIIS
   @RHF iter   4:   -37.58827347822773   -1.15536e-07   8.69054e-05 DIIS
   @RHF iter   5:   -37.58827347828112   -5.33902e-11   1.46937e-06 DIIS
   @RHF iter   6:   -37.58827347828139   -2.70006e-13   8.48333e-08 DIIS

  ==> Post-Iterations <==

	Orbital Energies (a.u.)
	-----------------------

	Doubly Occupied:                                                      

	   1Ag   -11.348446     2Ag    -0.709559     1B1u   -0.342230  

	Virtual:                                                              

	   1B2u    0.066966     1B3u    0.066966     2B1u    0.758886  
	   3Ag     0.787452     2B2u    0.789446     2B3u    0.789446  
	   4Ag     1.962924     1B1g    1.962924     1B2g    1.985040  
	   1B3g    1.985040     5Ag     1.992551  

	Final Occupation by Irrep:
	         Ag   B1g   B2g   B3g    Au   B1u   B2u   B3u 
	DOCC [     2,    0,    0,    0,    0,    1,    0,    0 ]

  Energy converged.

  @RHF Final Energy:   -37.58827347828139

   => Energetics <=

    Nuclear Repulsion Energy =          0.0000000000000000
    One-Electron Energy =             -50.3760772861646018
    Two-Electron Energy =              12.7878038078832130
    DFT Functional Energy =             0.0000000000000000
    Empirical Dispersion Energy =       0.0000000000000000
    Total Energy =                    -37.5882734782813870

  ==> Properties <==

  Nuclear Dipole Moment: (a.u.)
     X:     0.0000      Y:     0.0000      Z:     0.0000

  Electronic Dipole Moment: (a.u.)
     X:     0.0000      Y:     0.0000      Z:     0.0000

  Dipole Moment: (a.u.)
     X:     0.0000      Y:     0.0000      Z:     0.0000     Total:     0.0000

  Dipole Moment: (Debye)
     X:     0.0000      Y:     0.0000      Z:     0.0000     Total:     0.0000


  Saving occupied orbitals to File 180.

*** tstop() called on localhost at Sun Jun 17 01:07:33 2012
Module time:
	user time   =       0.14 seconds =       0.00 minutes
	system time =       0.01 seconds =       0.00 minutes
	total time  =          0 seconds =       0.00 minutes
Total time:
	user time   =       2.15 seconds =       0.04 minutes
	system time =       0.09 seconds =       0.00 minutes
	total time  =          3 seconds =       0.05 minutes
  //>>>>>>>>>>>>>>>>>>>>>>>>>>>>>>>>>>>//
  //               ITEM 7              //
  //<<<<<<<<<<<<<<<<<<<<<<<<<<<<<<<<<<<//
    Molecular point group: d2h

    Geometry (in Angstrom), charge = 0, multiplicity = 1:

       Center              X                  Y                   Z       
    ------------   -----------------  -----------------  -----------------
           C          0.000000000000     0.000000000000     0.000000000000

  -AO BASIS SET INFORMATION:
    Name                   = 6-31G*
    Total number of shells = 6
    Number of primitives   = 15
    Number of AO           = 15
    Number of SO           = 14
    Maximum AM             = 2
    Spherical Harmonics    = TRUE

  -Contraction Scheme:
    Atom   Type   All Primitives // Shells:
   ------ ------ --------------------------
       1     C     10s 4p 1d // 3s 2p 1d 

  -Basis set on unique center 1: C
     S (       3047.52490000           0.53633438)
       (        457.36951000           0.98945061)
       (        103.94869000           1.59728223)
       (         29.21015500           2.07918706)
       (          9.28666300           1.77417425)
       (          3.16392700           0.61257983)
     S (          7.86827240          -0.39955635)
       (          1.88128850          -0.18415524)
       (          0.54424930           0.51639038)
     P (          7.86827240           1.29608272)
       (          1.88128850           0.99375363)
       (          0.54424930           0.49595271)
     S (          0.16871440           0.18761787)
     P (          0.16871440           0.15412755)
     D (          0.80000000           1.11382493)


*** tstart() called on localhost
*** at Sun Jun 17 01:07:33 2012


         ---------------------------------------------------------
                                   SCF
            by Justin Turney, Rob Parrish, and Andy Simmonett
                              RHF Reference
                        1 Threads,    256 MiB Core
         ---------------------------------------------------------

  ==> Geometry <==

    Molecular point group: d2h

    Geometry (in Angstrom), charge = 0, multiplicity = 1:

       Center              X                  Y                   Z       
    ------------   -----------------  -----------------  -----------------
           C          0.000000000000     0.000000000000     0.000000000000

  Running in d2h symmetry.

  Nuclear repulsion =    0.000000000000000

  Charge       = 0
  Multiplicity = 1
  Electrons    = 6
  Nalpha       = 3
  Nbeta        = 3

  ==> Algorithm <==

  SCF Algorithm Type is DF.
  DIIS enabled.
  MOM disabled.
  Fractional occupation disabled.
  Guess Type is CORE.
  Energy threshold   = 1.00e-08
  Density threshold  = 1.00e-08
  Integral threshold = 0.00e+00

  ==> Primary Basis <==

  Basis Set: 6-31G*
    Number of shells: 6
    Number of basis function: 14
    Number of Cartesian functions: 15
    Spherical Harmonics?: true
    Max angular momentum: 2

  ==> Pre-Iterations <==

   -------------------------------------------------------
    Irrep   Nso     Nmo     Nalpha   Nbeta   Ndocc  Nsocc
   -------------------------------------------------------
     Ag         5       5       0       0       0       0
     B1g        1       1       0       0       0       0
     B2g        1       1       0       0       0       0
     B3g        1       1       0       0       0       0
     Au         0       0       0       0       0       0
     B1u        2       2       0       0       0       0
     B2u        2       2       0       0       0       0
     B3u        2       2       0       0       0       0
   -------------------------------------------------------
    Total      14      14       3       3       3       0
   -------------------------------------------------------

  ==> Integral Setup <==

 OEINTS: Wrapper to libmints.
   by Justin Turney

   Calculation information:
      Number of atoms:                   1
      Number of AO shells:               6
      Number of SO shells:               6
      Number of primitives:             15
      Number of atomic orbitals:        15
      Number of basis functions:        14

      Number of irreps:                  8
      Number of functions per irrep: [   5    1    1    1    0    2    2    2 ]

      Overlap, kinetic, potential, dipole, and quadrupole integrals
        stored in file 35.

  ==> DFJK: Density-Fitted J/K Matrices <==

    J tasked:                  Yes
    K tasked:                  Yes
    wK tasked:                  No
    OpenMP threads:              1
    Integrals threads:           1
    Memory (MB):               183
    Algorithm:                Core
    Integral Cache:           NONE
    Schwarz Cutoff:          0E+00
    Fitting Condition:       1E-12

   => Auxiliary Basis Set <=

  Basis Set: CC-PVDZ-JKFIT
    Number of shells: 24
    Number of basis function: 70
    Number of Cartesian functions: 81
    Spherical Harmonics?: true
    Max angular momentum: 3

  Minimum eigenvalue in the overlap matrix is 1.8693345433E-01.
  Using Symmetric Orthogonalization.
  SCF Guess: Core (One-Electron) Hamiltonian.

  Initial RHF energy:   -26.33496706070197

  ==> Iterations <==

                        Total Energy        Delta E     Density RMS

   @RHF iter   1:   -36.54848140082932   -1.02135e+01   0.00000e+00 
   @RHF iter   2:   -37.58750561178761   -1.03902e+00   2.65932e-01 DIIS
   @RHF iter   3:   -37.58826919178262   -7.63580e-04   4.32807e-03 DIIS
   @RHF iter   4:   -37.58827262850072   -3.43672e-06   3.28268e-04 DIIS
   @RHF iter   5:   -37.58827280163347   -1.73133e-07   9.53533e-05 DIIS
   @RHF iter   6:   -37.58827280342443   -1.79097e-09   1.02835e-05 DIIS
   @RHF iter   7:   -37.58827280347312   -4.86864e-11   1.46199e-06 DIIS
   @RHF iter   8:   -37.58827280347312   -7.10543e-15   3.92643e-08 DIIS

  ==> Post-Iterations <==

	Orbital Energies (a.u.)
	-----------------------

	Doubly Occupied:                                                      

	   1Ag   -11.348472     2Ag    -0.709563     1B1u   -0.342242  

	Virtual:                                                              

	   1B2u    0.066950     1B3u    0.066950     2B1u    0.759075  
	   3Ag     0.787656     2B2u    0.789534     2B3u    0.789534  
	   1B1g    1.963138     4Ag     1.963138     1B2g    1.985416  
	   1B3g    1.985416     5Ag     1.992983  

	Final Occupation by Irrep:
	         Ag   B1g   B2g   B3g    Au   B1u   B2u   B3u 
	DOCC [     2,    0,    0,    0,    0,    1,    0,    0 ]

  Energy converged.

  @RHF Final Energy:   -37.58827280347312

   => Energetics <=

    Nuclear Repulsion Energy =          0.0000000000000000
    One-Electron Energy =             -50.3759902914707425
    Two-Electron Energy =              12.7877174879976074
    DFT Functional Energy =             0.0000000000000000
    Empirical Dispersion Energy =       0.0000000000000000
    Total Energy =                    -37.5882728034731315

  ==> Properties <==

  Nuclear Dipole Moment: (a.u.)
     X:     0.0000      Y:     0.0000      Z:     0.0000

  Electronic Dipole Moment: (a.u.)
     X:     0.0000      Y:     0.0000      Z:     0.0000

  Dipole Moment: (a.u.)
     X:     0.0000      Y:     0.0000      Z:     0.0000     Total:     0.0000

  Dipole Moment: (Debye)
     X:     0.0000      Y:     0.0000      Z:     0.0000     Total:     0.0000


  Saving occupied orbitals to File 180.

*** tstop() called on localhost at Sun Jun 17 01:07:33 2012
Module time:
	user time   =       0.25 seconds =       0.00 minutes
	system time =       0.01 seconds =       0.00 minutes
	total time  =          0 seconds =       0.00 minutes
Total time:
	user time   =       2.43 seconds =       0.04 minutes
	system time =       0.10 seconds =       0.00 minutes
	total time  =          3 seconds =       0.05 minutes
  //>>>>>>>>>>>>>>>>>>>>>>>>>>>>>>>>>>>//
  //               ITEM 8              //
  //<<<<<<<<<<<<<<<<<<<<<<<<<<<<<<<<<<<//
    Molecular point group: d2h

    Geometry (in Angstrom), charge = 0, multiplicity = 1:

       Center              X                  Y                   Z       
    ------------   -----------------  -----------------  -----------------
           C          0.000000000000     0.000000000000     0.000000000000

  -AO BASIS SET INFORMATION:
    Name                   = 6-31G*
    Total number of shells = 6
    Number of primitives   = 15
    Number of AO           = 15
    Number of SO           = 14
    Maximum AM             = 2
    Spherical Harmonics    = TRUE

  -Contraction Scheme:
    Atom   Type   All Primitives // Shells:
[...]

  ==> Geometry <==

    Molecular point group: d2h

    Geometry (in Angstrom), charge = 0, multiplicity = 1:

       Center              X                  Y                   Z       
    ------------   -----------------  -----------------  -----------------
           C          0.000000000000     0.000000000000     0.000000000000

  Running in d2h symmetry.

  Nuclear repulsion =    0.000000000000000

  Charge       = 0
  Multiplicity = 1
  Electrons    = 6
  Nalpha       = 3
  Nbeta        = 3

  ==> Algorithm <==

  SCF Algorithm Type is DF.
  DIIS enabled.
  MOM disabled.
  Fractional occupation disabled.
  Guess Type is CORE.
  Energy threshold   = 1.00e-08
  Density threshold  = 1.00e-08
  Integral threshold = 0.00e+00

  ==> Primary Basis <==

  Basis Set: 6-31G*
    Number of shells: 6
    Number of basis function: 15
    Number of Cartesian functions: 15
    Spherical Harmonics?: false
    Max angular momentum: 2

  ==> Pre-Iterations <==

   -------------------------------------------------------
    Irrep   Nso     Nmo     Nalpha   Nbeta   Ndocc  Nsocc
   -------------------------------------------------------
     Ag         6       6       0       0       0       0
     B1g        1       1       0       0       0       0
     B2g        1       1       0       0       0       0
     B3g        1       1       0       0       0       0
     Au         0       0       0       0       0       0
     B1u        2       2       0       0       0       0
     B2u        2       2       0       0       0       0
     B3u        2       2       0       0       0       0
   -------------------------------------------------------
    Total      15      15       3       3       3       0
   -------------------------------------------------------

  ==> Integral Setup <==

 OEINTS: Wrapper to libmints.
   by Justin Turney

   Calculation information:
      Number of atoms:                   1
      Number of AO shells:               6
      Number of SO shells:               6
      Number of primitives:             15
      Number of atomic orbitals:        15
      Number of basis functions:        15

      Number of irreps:                  8
      Number of functions per irrep: [   6    1    1    1    0    2    2    2 ]

      Overlap, kinetic, potential, dipole, and quadrupole integrals
        stored in file 35.

  ==> DFJK: Density-Fitted J/K Matrices <==

    J tasked:                  Yes
    K tasked:                  Yes
    wK tasked:                  No
    OpenMP threads:              1
    Integrals threads:           1
    Memory (MB):               183
    Algorithm:                Core
    Integral Cache:           NONE
    Schwarz Cutoff:          0E+00
    Fitting Condition:       1E-12

   => Auxiliary Basis Set <=

  Basis Set: CC-PVDZ-JKFIT
    Number of shells: 24
    Number of basis function: 81
    Number of Cartesian functions: 81
    Spherical Harmonics?: false
    Max angular momentum: 3

  Minimum eigenvalue in the overlap matrix is 4.7554816867E-02.
  Using Symmetric Orthogonalization.
  SCF Guess: Core (One-Electron) Hamiltonian.

  Initial RHF energy:   -26.55314225142583

  ==> Iterations <==

                        Total Energy        Delta E     Density RMS

   @RHF iter   1:   -35.82793836053929   -9.27480e+00   0.00000e+00 
   @RHF iter   2:   -37.57909717109699   -1.75116e+00   5.55339e-01 DIIS
   @RHF iter   3:   -37.58837191621620   -9.27475e-03   1.59547e-02 DIIS
   @RHF iter   4:   -37.58854744272087   -1.75527e-04   2.85527e-03 DIIS
   @RHF iter   5:   -37.58855877099413   -1.13283e-05   7.43817e-04 DIIS
   @RHF iter   6:   -37.58855890468421   -1.33690e-07   8.38957e-05 DIIS
   @RHF iter   7:   -37.58855890473671   -5.25091e-11   1.44775e-06 DIIS
   @RHF iter   8:   -37.58855890473675   -3.55271e-14   2.60845e-08 DIIS

  ==> Post-Iterations <==

	Orbital Energies (a.u.)
	-----------------------

	Doubly Occupied:                                                      

	   1Ag   -11.346078     2Ag    -0.709914     1B1u   -0.342247  

	Virtual:                                                              

	   1B3u    0.066774     1B2u    0.066774     2B1u    0.759025  
	   3Ag     0.765936     2B3u    0.789576     2B2u    0.789576  
	   4Ag     1.962862     1B1g    1.962862     1B2g    1.985084  
	   1B3g    1.985084     5Ag     1.992461     6Ag     4.169371  

	Final Occupation by Irrep:
	         Ag   B1g   B2g   B3g    Au   B1u   B2u   B3u 
	DOCC [     2,    0,    0,    0,    0,    1,    0,    0 ]

  Energy converged.

  @RHF Final Energy:   -37.58855890473675

   => Energetics <=

    Nuclear Repulsion Energy =          0.0000000000000000
    One-Electron Energy =             -50.3806401420791445
    Two-Electron Energy =              12.7920812373423960
    DFT Functional Energy =             0.0000000000000000
    Empirical Dispersion Energy =       0.0000000000000000
    Total Energy =                    -37.5885589047367503

  ==> Properties <==

  Nuclear Dipole Moment: (a.u.)
     X:     0.0000      Y:     0.0000      Z:     0.0000

  Electronic Dipole Moment: (a.u.)
     X:     0.0000      Y:     0.0000      Z:     0.0000

  Dipole Moment: (a.u.)
     X:     0.0000      Y:     0.0000      Z:     0.0000     Total:     0.0000

  Dipole Moment: (Debye)
     X:     0.0000      Y:     0.0000      Z:     0.0000     Total:     0.0000


  Saving occupied orbitals to File 180.

*** tstop() called on localhost at Sun Jun 17 01:07:35 2012
Module time:
	user time   =       0.25 seconds =       0.00 minutes
	system time =       0.01 seconds =       0.00 minutes
	total time  =          0 seconds =       0.00 minutes
Total time:
	user time   =       3.88 seconds =       0.06 minutes
	system time =       0.16 seconds =       0.00 minutes
	total time  =          5 seconds =       0.08 minutes
  //>>>>>>>>>>>>>>>>>>>>>>>>>>>>>>>>>>>//
  //              ITEM 12              //
  //<<<<<<<<<<<<<<<<<<<<<<<<<<<<<<<<<<<//
    Molecular point group: d2h

    Geometry (in Angstrom), charge = 0, multiplicity = 1:

       Center              X                  Y                   Z       
    ------------   -----------------  -----------------  -----------------
           C          0.000000000000     0.000000000000     0.000000000000

  -AO BASIS SET INFORMATION:
    Name                   = 6-31G*
    Total number of shells = 6
    Number of primitives   = 15
    Number of AO           = 15
    Number of SO           = 15
    Maximum AM             = 2
    Spherical Harmonics    = FALSE

  -Contraction Scheme:
    Atom   Type   All Primitives // Shells:
   ------ ------ --------------------------
       1     C     10s 4p 1d // 3s 2p 1d 

  -Basis set on unique center 1: C
     S (       3047.52490000           0.53633438)
       (        457.36951000           0.98945061)
       (        103.94869000           1.59728223)
       (         29.21015500           2.07918706)
       (          9.28666300           1.77417425)
       (          3.16392700           0.61257983)
     S (          7.86827240          -0.39955635)
       (          1.88128850          -0.18415524)
       (          0.54424930           0.51639038)
     P (          7.86827240           1.29608272)
       (          1.88128850           0.99375363)
       (          0.54424930           0.49595271)
     S (          0.16871440           0.18761787)
     P (          0.16871440           0.15412755)
     D (          0.80000000           1.11382493)


  //>>>>>>>>>>>>>>>>>>>>>>>>>>>>>>>>>>>//
  //       Guess SCF, 3-21G Basis      //
  //<<<<<<<<<<<<<<<<<<<<<<<<<<<<<<<<<<<//


*** tstart() called on localhost
*** at Sun Jun 17 01:07:35 2012


         ---------------------------------------------------------
                                   SCF
            by Justin Turney, Rob Parrish, and Andy Simmonett
                              RHF Reference
                        1 Threads,    256 MiB Core
         ---------------------------------------------------------

  ==> Geometry <==

    Molecular point group: d2h

    Geometry (in Angstrom), charge = 0, multiplicity = 1:

       Center              X                  Y                   Z       
    ------------   -----------------  -----------------  -----------------
           C          0.000000000000     0.000000000000     0.000000000000

  Running in d2h symmetry.

  Nuclear repulsion =    0.000000000000000

  Charge       = 0
  Multiplicity = 1
  Electrons    = 6
  Nalpha       = 3
  Nbeta        = 3

  ==> Algorithm <==

  SCF Algorithm Type is DF.
  DIIS enabled.
  MOM disabled.
  Fractional occupation disabled.
  Guess Type is CORE.
  Energy threshold   = 1.00e-08
  Density threshold  = 1.00e-08
  Integral threshold = 0.00e+00

  ==> Primary Basis <==

  Basis Set: 3-21G
    Number of shells: 5
    Number of basis function: 9
    Number of Cartesian functions: 9
    Spherical Harmonics?: false
    Max angular momentum: 1

  ==> Pre-Iterations <==

   -------------------------------------------------------
    Irrep   Nso     Nmo     Nalpha   Nbeta   Ndocc  Nsocc
   -------------------------------------------------------
     Ag         3       3       0       0       0       0
     B1g        0       0       0       0       0       0
     B2g        0       0       0       0       0       0
     B3g        0       0       0       0       0       0
     Au         0       0       0       0       0       0
     B1u        2       2       0       0       0       0
     B2u        2       2       0       0       0       0
     B3u        2       2       0       0       0       0
   -------------------------------------------------------
    Total       9       9       3       3       3       0
   -------------------------------------------------------

  ==> Integral Setup <==

 OEINTS: Wrapper to libmints.
   by Justin Turney

   Calculation information:
      Number of atoms:                   1
      Number of AO shells:               5
      Number of SO shells:               5
      Number of primitives:              9
      Number of atomic orbitals:         9
      Number of basis functions:         9

      Number of irreps:                  8
      Number of functions per irrep: [   3    0    0    0    0    2    2    2 ]

      Overlap, kinetic, potential, dipole, and quadrupole integrals
        stored in file 35.

  ==> DFJK: Density-Fitted J/K Matrices <==

    J tasked:                  Yes
    K tasked:                  Yes
    wK tasked:                  No
    OpenMP threads:              1
    Integrals threads:           1
    Memory (MB):               183
    Algorithm:                Core
    Integral Cache:           NONE
    Schwarz Cutoff:          0E+00
    Fitting Condition:       1E-12

   => Auxiliary Basis Set <=

  Basis Set: cc-pvdz-ri
    Number of shells: 18
    Number of basis function: 66
    Number of Cartesian functions: 66
    Spherical Harmonics?: false
    Max angular momentum: 3

  Minimum eigenvalue in the overlap matrix is 2.3855604202E-01.
  Using Symmetric Orthogonalization.
  SCF Guess: Core (One-Electron) Hamiltonian.

  Initial RHF energy:   -26.33990364839870

  ==> Iterations <==

                        Total Energy        Delta E     Density RMS

   @RHF iter   1:   -35.88385520669489   -9.54395e+00   0.00000e+00 
   @RHF iter   2:   -37.38983329676682   -1.50598e+00   3.29279e-01 DIIS
   @RHF iter   3:   -37.39207300507736   -2.23971e-03   1.08691e-02 DIIS
   @RHF iter   4:   -37.39207673784519   -3.73277e-06   2.67968e-04 DIIS
   @RHF iter   5:   -37.39207676615216   -2.83070e-08   4.49601e-05 DIIS
   @RHF iter   6:   -37.39207676696604   -8.13884e-10   8.63389e-06 DIIS

  ==> Post-Iterations <==

	Orbital Energies (a.u.)
	-----------------------

	Doubly Occupied:                                                      

	   1Ag   -11.280474     2Ag    -0.705126     1B1u   -0.340502  

	Virtual:                                                              

	   1B2u    0.072663     1B3u    0.072663     2B1u    0.955012  
	   2B3u    0.982303     2B2u    0.982303     3Ag     1.278718  

	Final Occupation by Irrep:
	         Ag   B1g   B2g   B3g    Au   B1u   B2u   B3u 
	DOCC [     2,    0,    0,    0,    0,    1,    0,    0 ]

  Energy converged.

  @RHF Final Energy:   -37.39207676696604

   => Energetics <=

    Nuclear Repulsion Energy =          0.0000000000000000
    One-Electron Energy =             -50.1319476382570031
    Two-Electron Energy =              12.7398708712909645
    DFT Functional Energy =             0.0000000000000000
    Empirical Dispersion Energy =       0.0000000000000000
    Total Energy =                    -37.3920767669660421

  ==> Properties <==

  Nuclear Dipole Moment: (a.u.)
     X:     0.0000      Y:     0.0000      Z:     0.0000

  Electronic Dipole Moment: (a.u.)
     X:     0.0000      Y:     0.0000      Z:     0.0000

  Dipole Moment: (a.u.)
     X:     0.0000      Y:     0.0000      Z:     0.0000     Total:     0.0000

  Dipole Moment: (Debye)
     X:     0.0000      Y:     0.0000      Z:     0.0000     Total:     0.0000


  Saving occupied orbitals to File 180.

*** tstop() called on localhost at Sun Jun 17 01:07:35 2012
Module time:
	user time   =       0.19 seconds =       0.00 minutes
	system time =       0.01 seconds =       0.00 minutes
	total time  =          0 seconds =       0.00 minutes
Total time:
	user time   =       4.18 seconds =       0.07 minutes
	system time =       0.17 seconds =       0.00 minutes
	total time  =          5 seconds =       0.08 minutes

  //>>>>>>>>>>>>>>>>>>>>>>>>>>>>>>>>>>>//
  //                SCF                //
  //<<<<<<<<<<<<<<<<<<<<<<<<<<<<<<<<<<<//


*** tstart() called on localhost
*** at Sun Jun 17 01:07:35 2012


         ---------------------------------------------------------
                                   SCF
            by Justin Turney, Rob Parrish, and Andy Simmonett
                              RHF Reference
                        1 Threads,    256 MiB Core
         ---------------------------------------------------------

  ==> Geometry <==

    Molecular point group: d2h

    Geometry (in Angstrom), charge = 0, multiplicity = 1:

       Center              X                  Y                   Z       
    ------------   -----------------  -----------------  -----------------
           C          0.000000000000     0.000000000000     0.000000000000

  Running in d2h symmetry.

  Nuclear repulsion =    0.000000000000000

  Charge       = 0
  Multiplicity = 1
  Electrons    = 6
  Nalpha       = 3
  Nbeta        = 3

  ==> Algorithm <==

  SCF Algorithm Type is DF.
  DIIS enabled.
  MOM disabled.
  Fractional occupation disabled.
  Guess Type is READ.
  Energy threshold   = 1.00e-08
  Density threshold  = 1.00e-08
  Integral threshold = 0.00e+00

  ==> Primary Basis <==

  Basis Set: 6-31G*
    Number of shells: 6
    Number of basis function: 15
    Number of Cartesian functions: 15
    Spherical Harmonics?: false
    Max angular momentum: 2

  ==> Pre-Iterations <==

   -------------------------------------------------------
    Irrep   Nso     Nmo     Nalpha   Nbeta   Ndocc  Nsocc
   -------------------------------------------------------
     Ag         6       6       0       0       0       0
     B1g        1       1       0       0       0       0
     B2g        1       1       0       0       0       0
     B3g        1       1       0       0       0       0
     Au         0       0       0       0       0       0
     B1u        2       2       0       0       0       0
     B2u        2       2       0       0       0       0
     B3u        2       2       0       0       0       0
   -------------------------------------------------------
    Total      15      15       3       3       3       0
   -------------------------------------------------------

  ==> Integral Setup <==

 OEINTS: Wrapper to libmints.
   by Justin Turney

   Calculation information:
      Number of atoms:                   1
      Number of AO shells:               6
      Number of SO shells:               6
      Number of primitives:             15
      Number of atomic orbitals:        15
      Number of basis functions:        15

      Number of irreps:                  8
      Number of functions per irrep: [   6    1    1    1    0    2    2    2 ]

      Overlap, kinetic, potential, dipole, and quadrupole integrals
        stored in file 35.

  ==> DFJK: Density-Fitted J/K Matrices <==

    J tasked:                  Yes
    K tasked:                  Yes
    wK tasked:                  No
    OpenMP threads:              1
    Integrals threads:           1
    Memory (MB):               183
    Algorithm:                Core
    Integral Cache:           NONE
    Schwarz Cutoff:          0E+00
    Fitting Condition:       1E-12

   => Auxiliary Basis Set <=

  Basis Set: CC-PVDZ-JKFIT
    Number of shells: 24
    Number of basis function: 81
    Number of Cartesian functions: 81
    Spherical Harmonics?: false
    Max angular momentum: 3

  Minimum eigenvalue in the overlap matrix is 4.7554816867E-02.
  Using Symmetric Orthogonalization.
  SCF Guess: Projection.

  Computing dual basis set projection from 3-21G to 6-31G*.
  Initial RHF energy:   -37.39207676696604

  ==> Iterations <==

                        Total Energy        Delta E     Density RMS

   @RHF iter   0:   -37.57496128586257   -1.82885e-01   0.00000e+00 
   @RHF iter   1:   -37.58848421004452   -1.35229e-02   2.07283e-02 
   @RHF iter   2:   -37.58855546298970   -7.12529e-05   1.58419e-03 DIIS
   @RHF iter   3:   -37.58855865712899   -3.19414e-06   3.14813e-04 DIIS
   @RHF iter   4:   -37.58855890397862   -2.46850e-07   1.11900e-04 DIIS
   @RHF iter   5:   -37.58855890473664   -7.58014e-10   6.79767e-06 DIIS
   @RHF iter   6:   -37.58855890473679   -1.56319e-13   5.35585e-08 DIIS

  ==> Post-Iterations <==

	Orbital Energies (a.u.)
	-----------------------

	Doubly Occupied:                                                      

	   1Ag   -11.346078     2Ag    -0.709914     1B1u   -0.342247  

	Virtual:                                                              

	   1B3u    0.066774     1B2u    0.066774     2B1u    0.759025  
	   3Ag     0.765936     2B3u    0.789576     2B2u    0.789576  
	   4Ag     1.962862     1B1g    1.962862     1B2g    1.985084  
	   1B3g    1.985084     5Ag     1.992461     6Ag     4.169371  

	Final Occupation by Irrep:
	         Ag   B1g   B2g   B3g    Au   B1u   B2u   B3u 
	DOCC [     2,    0,    0,    0,    0,    1,    0,    0 ]

  Energy converged.

  @RHF Final Energy:   -37.58855890473679

   => Energetics <=

    Nuclear Repulsion Energy =          0.0000000000000000
    One-Electron Energy =             -50.3806401375300794
    Two-Electron Energy =              12.7920812327932829
    DFT Functional Energy =             0.0000000000000000
    Empirical Dispersion Energy =       0.0000000000000000
    Total Energy =                    -37.5885589047368001

  ==> Properties <==

  Nuclear Dipole Moment: (a.u.)
     X:     0.0000      Y:     0.0000      Z:     0.0000

  Electronic Dipole Moment: (a.u.)
     X:     0.0000      Y:     0.0000      Z:     0.0000

  Dipole Moment: (a.u.)
     X:     0.0000      Y:     0.0000      Z:     0.0000     Total:     0.0000

  Dipole Moment: (Debye)
     X:     0.0000      Y:     0.0000      Z:     0.0000     Total:     0.0000


  Saving occupied orbitals to File 180.

*** tstop() called on localhost at Sun Jun 17 01:07:36 2012
Module time:
	user time   =       0.27 seconds =       0.00 minutes
	system time =       0.01 seconds =       0.00 minutes
	total time  =          1 seconds =       0.02 minutes
Total time:
	user time   =       4.45 seconds =       0.07 minutes
	system time =       0.18 seconds =       0.00 minutes
	total time  =          6 seconds =       0.10 minutes

*** PSI4 exiting successfully. Buy a developer a beer!
