
    -----------------------------------------------------------------------
          Psi4: An Open-Source Ab Initio Electronic Structure Package
                               Psi4 1.1rc3.dev5 

                         Git: Rev {master} 3fbd859 


    R. M. Parrish, L. A. Burns, D. G. A. Smith, A. C. Simmonett,
    A. E. DePrince III, E. G. Hohenstein, U. Bozkaya, A. Yu. Sokolov,
    R. Di Remigio, R. M. Richard, J. F. Gonthier, A. M. James,
    H. R. McAlexander, A. Kumar, M. Saitow, X. Wang, B. P. Pritchard,
    P. Verma, H. F. Schaefer III, K. Patkowski, R. A. King, E. F. Valeev,
    F. A. Evangelista, J. M. Turney, T. D. Crawford, and C. D. Sherrill,
    J. Chem. Theory Comput. in press (2017).
    (doi: 10.1021/acs.jctc.7b00174)

    -----------------------------------------------------------------------


    Psi4 started on: Monday, 15 May 2017 03:38PM

    Process ID:  15062
    PSIDATADIR: /home/psilocaluser/gits/hrw-direct/objdir4/stage/usr/local/psi4/share/psi4
    Memory:     500.0 MiB
    Threads:    1
    
  ==> Input File <==

--------------------------------------------------------------------------
#! Mk-MRCCSD(T) single point. $^1A@@1$ CH2 state described using
#! the Ms = 0 component of the singlet.  Uses RHF singlet orbitals.

refnuc      =    5.912862514729  #TEST
refscf      =  -38.806600478225  #TEST
refmkccsd_t =  -38.975037632177  #TEST

molecule ch2 {
  0 1
  C         0.000000000000    -0.071831139101     0.000000000000
  H         2.056713670133     0.427640533717     0.000000000000
  H        -2.056713670133     0.427640533717     0.000000000000

  units au
}

set {
  basis cc-pvdz
  e_convergence 10
  d_convergence 10
  r_convergence 10
}

set mcscf {
  reference       rhf
  # The socc and docc needn't be specified; in this case the code will converge correctly without
  docc            [2,0,1,1]      # Doubly occupied MOs
  socc            [0,0,0,0]      # Singly occupied MOs
}

set psimrcc {
  corr_wfn        ccsd_t         # Do Mk-MRCCSD(T) 
  frozen_docc     [0,0,0,0]      # Frozen MOs
  restricted_docc [2,0,1,1]      # Doubly occupied MOs
  active          [0,0,0,0]      # Active MOs
  frozen_uocc     [0,0,0,0]      # Frozen virtual MOs
  corr_multp      1              # Select the Ms = 0 component
  wfn_sym         A1             # Select the A1 state
}

energy('psimrcc')
compare_values(refnuc, ch2.nuclear_repulsion_energy()     , 9, "Nuclear repulsion energy") #TEST 
compare_values(refscf, get_variable("SCF TOTAL ENERGY")  , 9, "SCF energy")               #TEST 
compare_values(refmkccsd_t, get_variable("CURRENT ENERGY") , 8, "MkCCSD energy")            #TEST 
--------------------------------------------------------------------------
   => Loading Basis Set <=

    Name: CC-PVDZ
    Role: ORBITAL
    Keyword: BASIS
    atoms 1   entry C          line   130 file /home/psilocaluser/gits/hrw-direct/objdir4/stage/usr/local/psi4/share/psi4/basis/cc-pvdz.gbs 
    atoms 2-3 entry H          line    20 file /home/psilocaluser/gits/hrw-direct/objdir4/stage/usr/local/psi4/share/psi4/basis/cc-pvdz.gbs 


*** tstart() called on psinet
*** at Mon May 15 15:38:21 2017


         ------------------------------------------
           MCSCF: a self-consistent field program
            written by Francesco A. Evangelista
         ------------------------------------------

  MOs per irrep:                                      A1  A2  B1  B2 Total
  ----------------------------------------------------------------------------
  Total                                               11    2    7    4    24
  Doubly Occupied                                      2    0    1    1     4
  Active/Singly Occupied                               0    0    0    0     0
  ----------------------------------------------------------------------------

  Running an SCF calculation

  Generated 300 pairs
  Distributed as [107 A1][50 A2][85 B1][58 B2]
  batch   0 pq = [       0,     107] index = [               0,            5778]

  Allocated the PK matrix (5778 elements) 
  Reading the two-electron integrals to form PK ... 
  batch   0 ... done.


  =========================================================================================
         Cycle          Energy               D(Energy)            D(Density)            DIIS
  ===========================================================================================
  Setting level shift to 0.000 S
  @SCF    0      -35.081731982870     -35.081731982870       0.119648115245
  Setting level shift to 0.000 S
  @SCF    1      -38.078076605622      -2.996344622752       0.121424364868
  Setting level shift to 0.000 S
  @SCF    2      -38.732433026186      -0.654356420564       0.052698799724
  Setting level shift to 0.000 S
  @SCF    3      -38.801064141636      -0.068631115450       0.013241480145
  Setting level shift to 0.000 S
  @SCF    4      -38.806203703162      -0.005139561526       0.003555312995
  Setting level shift to 0.000 S
  @SCF    5      -38.806571702733      -0.000367999571       0.000948414076
  Setting level shift to 0.000 S
  @SCF    6      -38.806598285197      -0.000026582464       0.000240826048
  Setting level shift to 0.000 S/E
  @SCF    7      -38.806600295186      -0.000002009989       0.000067559000
  Setting level shift to 0.000 S/E
  @SCF    8      -38.806600478079      -0.000000182893       0.000015761701
  Setting level shift to 0.000 S/E
  @SCF    9      -38.806600478224      -0.000000000145       0.000000638695
  Setting level shift to 0.000 S/E
  @SCF   10      -38.806600478226      -0.000000000002       0.000000043384
  Setting level shift to 0.000 S/E
  @SCF   11      -38.806600478226      -0.000000000000       0.000000023802
  Setting level shift to 0.000 S/E
  @SCF   12      -38.806600478226      -0.000000000000       0.000000002026
  Setting level shift to 0.000 S/E
  @SCF   13      -38.806600478226      -0.000000000000       0.000000000101
  Setting level shift to 0.000 S/E
  @SCF   14      -38.806600478226       0.000000000000       0.000000000013
  Setting level shift to 0.000 S/E
  @SCF   15      -38.806600478226      -0.000000000000       0.000000000001
  Setting level shift to 0.000 S/E
  @SCF   16      -38.806600478226       0.000000000000       0.000000000000
  =========================================================================================

      * SCF total energy   =     -38.806600478226


  End of SCF
  MOs orthonormality check passed.

  Orbitals are canonicalized as:
  inactive (docc + uocc) : Fock(core)
  active   (actv)        : Fock(core)

  =========================================================================
  Eigenvalues (Eh)
  -------------------------------------------------------------------------
  Doubly occupied orbitals
      1    -11.270582  A1      2     -0.841628  A1      3     -0.607050  B1
      4     -0.309589  B2
  Unoccupied orbitals
      5      0.053236  A1      6      0.191522  A1      7      0.252296  B1
      8      0.555393  A1      9      0.715757  B2     10      0.746988  A1
     11      0.809060  B1     12      0.906570  B1     13      0.987599  A1
     14      1.168441  A2     15      1.372742  B1     16      1.393475  A1
     17      1.399070  B2     18      1.708286  A1     19      1.773359  B2
     20      2.043348  A1     21      2.172682  B1     22      2.258123  A2
     23      2.634789  B1     24      3.062996  A1
  =========================================================================


  MCSCF Execution Completed.


*** tstop() called on psinet at Mon May 15 15:38:22 2017
Module time:
	user time   =       0.06 seconds =       0.00 minutes
	system time =       0.02 seconds =       0.00 minutes
	total time  =          1 seconds =       0.02 minutes
Total time:
	user time   =       0.06 seconds =       0.00 minutes
	system time =       0.02 seconds =       0.00 minutes
	total time  =          1 seconds =       0.02 minutes

  MRCC          MRCC
   MRCC  MRCC  MRCC
   MRCC  MRCC  MRCC      PSIMRCC Version 0.9.3.3, July 2009
   MRCC  MRCC  MRCC      Multireference Coupled Cluster, written by
     MRCCMRCCMRCC        Francesco A. Evangelista and Andrew C. Simmonett
         MRCC            Compiled on May 15 2017 at 15:13:06
         MRCC
       MRCCMRCC
  For a single-point only

  ==============================================================================
  System Info:
  ------------------------------------------------------------------------------
  Nuclear Energy   = 5.912862515      SCF Energy       = -38.806600478  

  MOs and Symmetry:
  ------------------------------------------------------------------------------
  nirreps          = 4                root             = 0         
  nso              = 24               nmo              = 24        
  nael             = 4                nbel             = 4         
  nactive_ael      = 0                nactive_bel      = 0         

  Details of the Computation:
  ------------------------------------------------------------------------------

  MOs per irrep:                                        A1  A2  B1  B2 Total
  ------------------------------------------------------------------------------
  Total                                                 11    2    7    4    24
  Frozen Occupied                                        0    0    0    0     0
  Doubly Occupied                                        2    0    1    1     4
  Active                                                 0    0    0    0     0
  External                                               9    2    6    3    20
  Frozen Virtual                                         0    0    0    0     0

  Model space
  ------------------------------------------------------------------------------
   0  |[22][][2][2]>
  ==============================================================================

  Allocated work array of size 13728 (0.01 MiB)
  Allocated buffer array of size 26463520 (25.24 MiB)	Presorting SO-basis two-electron integrals.
	Sorting File: SO Ints (nn|nn) nbuckets = 1
	Transforming the one-electron integrals and constructing Fock matrices
	Starting first half-transformation.
	Sorting half-transformed integrals.
	First half integral transformation complete.
	Starting second half-transformation.
	Two-electron integral transformation complete.


  Presorting two-electron integrals from IWL buffer
    Memory available                       =      497525542 bytes
    Memory available for presorting        =      373144156 bytes (75.0%)
    Memory required for in-core presort    =          99352 bytes
    Presorting is not required
    Reading irreps 0 -> 3 (12419 non-zero integrals)

  Sorting integrals:
    Memory available                       =      497520934 bytes
    Memory available for sorting           =      248760467 bytes (50.0%)

    Pass 1:
    Setting up the matrix list: added 236 matrices blocks
    Integrals from irreps 0 -> 3 will be read in core

    Frozen-core energy                     =          0.000000000

  Computing storage strategy:
    Input memory                           =      524288000 bytes
    Free memory                            =      497520934 bytes
    Free memory available for matrices     =      482595305 bytes ( 97%)
    Memory required by fock matrices       =           6080 bytes
    Memory required by integrals           =         922264 bytes
    Memory required by other matrices      =        1148176 bytes
    Memory required for in-core algorithm  =        2076520 bytes
    PSIMRCC will perform a full in-core computation

  Options:
  ----------------------------------------------------------------------------
  ACTIVE                      => [ 0, 0, 0, 0 ] !
  BASIS_RELATIVISTIC          => (empty)         
  BENCH                       => 0               
  CC_NUM_THREADS              => 1               
  CC_TYPE                     => CONV            
  CI_TYPE                     => CONV            
  CORR_ANSATZ                 => MK              
  CORR_CCSD_T                 => STANDARD        
  CORR_CHARGE                 => 0               
  CORR_MULTP                  => 1              !
  CORR_WFN                    => CCSD_T         !
  COUPLING                    => CUBIC           
  COUPLING_TERMS              => TRUE            
  CUBEPROP_BASIS_FUNCTIONS    => [  ]            
  CUBEPROP_FILEPATH           => .               
  CUBEPROP_ORBITALS           => [  ]            
  CUBEPROP_TASKS              => [  ]            
  CUBIC_BASIS_TOLERANCE       => 1e-12           
  CUBIC_BLOCK_MAX_POINTS      => 1000            
  CUBIC_GRID_OVERAGE          => [  ]            
  CUBIC_GRID_SPACING          => [  ]            
  DAMPING_PERCENTAGE          => 0               
  DEBUG                       => 0               
  DERTYPE                     => NONE            
  DF_BASIS_CC                 => (empty)         
  DIAGONALIZE_HEFF            => FALSE           
  DIAGONAL_CCSD_T             => TRUE            
  DIE_IF_NOT_CONVERGED        => TRUE            
  DIIS_MAX_VECS               => 7               
  DIIS_START                  => 2               
  DKH_ORDER                   => 2               
  DOCC                        => [  ]            
  EXTERNAL_POTENTIAL_SYMMETRY => FALSE           
  E_CONVERGENCE               => 1e-10          !
  FAVG_CCSD_T                 => FALSE           
  FOLLOW_ROOT                 => 1               
  FREEZE_CORE                 => FALSE           
  FROZEN_DOCC                 => [ 0, 0, 0, 0 ] !
  FROZEN_UOCC                 => [ 0, 0, 0, 0 ] !
  HEFF4                       => TRUE            
  HEFF_PRINT                  => FALSE           
  INTEGRAL_PACKAGE            => LIBINT          
  LITERAL_CFOUR               => (empty)         
  LOCK_SINGLET                => FALSE           
  MAT_NUM_COLUMN_PRINT        => 5               
  MAXITER                     => 100             
  MOLDEN_WITH_VIRTUAL         => TRUE            
  MP2_CCSD_METHOD             => II              
  MP2_GUESS                   => TRUE            
  MP2_TYPE                    => DF              
  MP_TYPE                     => CONV            
  NO_SINGLES                  => FALSE           
  NUM_FROZEN_DOCC             => 0               
  NUM_FROZEN_UOCC             => 0               
  OFFDIAGONAL_CCSD_T          => TRUE            
  PCM                         => FALSE           
  PCM_CC_TYPE                 => PTE             
  PCM_SCF_TYPE                => TOTAL           
  PERTURB_CBS                 => FALSE           
  PERTURB_CBS_COUPLING        => TRUE            
  PRINT                       => 1               
  PRINT_NOONS                 => 3               
  PROPERTIES                  => [  ]            
  PROPERTIES_ORIGIN           => [  ]            
  PT_ENERGY                   => SECOND_ORDER    
  PUREAM                      => TRUE            
  QC_MODULE                   => (empty)         
  RAS1                        => [  ]            
  RAS2                        => [  ]            
  RAS3                        => [  ]            
  RAS4                        => [  ]            
  RELATIVISTIC                => NO              
  RESTRICTED_DOCC             => [ 2, 0, 1, 1 ] !
  RESTRICTED_UOCC             => [  ]            
  R_CONVERGENCE               => 1e-10          !
  SMALL_CUTOFF                => 0               
  SOCC                        => [  ]            
  TIKHONOW_MAX                => 5               
  TIKHONOW_OMEGA              => 0               
  TIKHONOW_TRIPLES            => FALSE           
  TRIPLES_ALGORITHM           => RESTRICTED      
  TRIPLES_DIIS                => FALSE           
  UNITS                       => ANGSTROMS       
  USE_SPIN_SYM                => TRUE            
  USE_SPIN_SYMMETRY           => TRUE            
  WFN                         => SCF             
  WFN_SYM                     => A1             !
  WRITER_FILE_LABEL           => (empty)         
  ZERO_INTERNAL_AMPS          => TRUE            



  Heff Matrix

         -38.806600478226

  Left Matrix

           1.000000000000

  Right Matrix

           1.000000000000

  Real                  Imaginary

        -38.806600478226           0.000000000000


  The eigenvalue for root 0 is -38.806600478226 (0.000000000000)

  Heff Matrix

      -38.806600478225732

  Most important determinants in the wave function

  determinant  eigenvector   eigenvector^2

            0    1.000000     1.000000  |[22][][2][2]>

  ==============================================================================
  	Multireference Coupled Cluster
		Using the DPD Library
  ==============================================================================

  ------------------------------------------------------------------------------
  @CC Cycle      Energy          Delta E    ||DeltaT1|| ||DeltaT2|| Timing  DIIS
  @CC             [Eh]            [Eh]                               (Sec)
  ------------------------------------------------------------------------------
  @CC   0    -38.806600478226   0.0000e+00   0.000e+00   0.000e+00       0
  Tikhonow regularization turned on.  Omega = 0.000e+00   S
  @CC   1    -38.919653048531  -1.1305e-01   1.524e-13   2.495e-01       0
  Tikhonow regularization turned on.  Omega = 0.000e+00   S
  @CC   2    -38.937077416237  -1.7424e-02   1.117e-02   5.000e-02       0
  Tikhonow regularization turned on.  Omega = 0.000e+00   S
  @CC   3    -38.941463995062  -4.3866e-03   4.258e-03   3.132e-02       0
  Tikhonow regularization turned on.  Omega = 0.000e+00   S
  @CC   4    -38.943198223988  -1.7342e-03   1.837e-03   2.742e-02       0
  Tikhonow regularization turned on.  Omega = 0.000e+00   S
  @CC   5    -38.944177939617  -9.7972e-04   1.109e-03   2.590e-02       0   S
  @CC   6    -38.944884785138  -7.0685e-04   1.035e-03   2.488e-02       0   S/E
  @CC   7    -38.959655537469  -1.4771e-02   1.084e-03   2.400e-02       0   S
  @CC   8    -38.959367711254   2.8783e-04   2.923e-02   1.840e-02       0   S
  @CC   9    -38.959299624042   6.8087e-05   5.912e-03   1.015e-02       0   S
  @CC  10    -38.959168991873   1.3063e-04   2.132e-03   8.850e-03       0   S
  @CC  11    -38.959012008701   1.5698e-04   7.748e-04   8.064e-03       0   S
  @CC  12    -38.958854460793   1.5755e-04   2.333e-04   7.447e-03       0   S
  @CC  13    -38.958703711919   1.5075e-04   1.469e-04   6.922e-03       0   S/E
  @CC  14    -38.956512307770   2.1914e-03   2.189e-04   6.455e-03       0   S
  @CC  15    -38.956390953946   1.2135e-04   1.062e-03   4.405e-03       0   S
  @CC  16    -38.956429952185  -3.8998e-05   1.959e-04   3.474e-04       0   S
  @CC  17    -38.956433672250  -3.7201e-06   7.244e-05   1.449e-04       0   S
  @CC  18    -38.956433448307   2.2394e-07   3.427e-05   1.107e-04       0   S
  @CC  19    -38.956432240095   1.2082e-06   1.797e-05   9.702e-05       0   S
  @CC  20    -38.956430733659   1.5064e-06   1.031e-05   8.858e-05       0   S/E
  @CC  21    -38.956403046957   2.7687e-05   6.575e-06   8.221e-05       0   S
  @CC  22    -38.956404188296  -1.1413e-06   2.925e-05   5.582e-05       0   S
  @CC  23    -38.956404882194  -6.9390e-07   9.612e-06   1.704e-05       0   S
  @CC  24    -38.956404844055   3.8138e-08   5.603e-06   1.411e-05       0   S
  @CC  25    -38.956404680498   1.6356e-07   3.458e-06   1.235e-05       0   S
  @CC  26    -38.956404485075   1.9542e-07   2.277e-06   1.109e-05       0   S
  @CC  27    -38.956404284715   2.0036e-07   1.588e-06   1.012e-05       0   S/E
  @CC  28    -38.956401268555   3.0162e-06   1.167e-06   9.333e-06       0   S
  @CC  29    -38.956401124600   1.4396e-07   3.075e-06   5.878e-06       0   S
  @CC  30    -38.956401172608  -4.8009e-08   8.995e-07   1.204e-06       0   S
  @CC  31    -38.956401162523   1.0086e-08   4.714e-07   8.544e-07       0   S
  @CC  32    -38.956401149904   1.2618e-08   2.565e-07   7.171e-07       0   S
  @CC  33    -38.956401137514   1.2390e-08   1.467e-07   6.436e-07       0   S
  @CC  34    -38.956401125528   1.1986e-08   8.873e-08   5.954e-07       0   S/E
  @CC  35    -38.956400935229   1.9030e-07   5.778e-08   5.574e-07       0   S
  @CC  36    -38.956400927651   7.5780e-09   2.079e-07   3.940e-07       0   S
  @CC  37    -38.956400931263  -3.6123e-09   6.287e-08   7.219e-08       0   S
  @CC  38    -38.956400931094   1.6852e-10   3.469e-08   5.444e-08       0   S
  @CC  39    -38.956400930555   5.3907e-10   2.022e-08   4.485e-08       0   S
  @CC  40    -38.956400929948   6.0729e-10   1.249e-08   3.817e-08       0   S
  @CC  41    -38.956400929338   6.1055e-10   8.113e-09   3.338e-08       0   S/E
  @CC  42    -38.956400919330   1.0007e-08   5.543e-09   2.985e-08       0   S
  @CC  43    -38.956400918696   6.3450e-10   1.634e-08   2.248e-08       0   S
  @CC  44    -38.956400918790  -9.4239e-11   1.912e-09   5.125e-09       0   S
  @CC  45    -38.956400918827  -3.7389e-11   3.733e-10   3.094e-09       0   S
  @CC  46    -38.956400918858  -3.0568e-11   7.511e-11   2.207e-09       0   S
  @CC  47    -38.956400918884  -2.5956e-11   9.619e-11   1.674e-09       0   S
  @CC  48    -38.956400918907  -2.2737e-11   1.116e-10   1.323e-09       0   S/E
  @CC  49    -38.956400919101  -1.9466e-10   1.074e-10   1.085e-09       0   S
  @CC  50    -38.956400919117  -1.5561e-11   2.847e-10   5.424e-10       0   S
  @CC  51    -38.956400919121  -4.5901e-12   5.352e-11   2.992e-10       0   S
  @CC  52    -38.956400919126  -5.0093e-12   2.014e-11   2.577e-10       0   S
  @CC  53    -38.956400919131  -4.8743e-12   9.439e-12   2.349e-10       0   S
  @CC  54    -38.956400919136  -4.6185e-12   6.442e-12   2.181e-10       0   S
  @CC  55    -38.956400919140  -4.3627e-12   5.907e-12   2.039e-10       0   S/E
  @CC  56    -38.956400919209  -6.8241e-11   6.111e-12   1.913e-10       0   S
  @CC  57    -38.956400919212  -3.2827e-12   7.627e-11   1.249e-10       0   S
  @CC  58    -38.956400919211   1.1653e-12   1.701e-11   1.484e-11       0
  ------------------------------------------------------------------------------

        Mk-MRCCSD total energy      =     -38.956400919211


  Heff Matrix

      -38.956400919210644

  Most important determinants in the wave function

  determinant  eigenvector   eigenvector^2

            0    1.000000     1.000000  |[22][][2][2]>

  Timing for singles and doubles:             0.320163 s

  Computing (T) correction using the restricted loop algorithm.


  Mk-MRCCSD(T) diagonal contributions to the effective Hamiltonian:

   Ref         E[4]              E_T[4]            E_ST[4]           E_DT[4]
  ------------------------------------------------------------------------------
    0     -0.018636712965   -0.018667137458    0.000030424493   -0.000000000000
   Tot    -0.018636712965   -0.018667137458    0.000030424493   -0.000000000000
  ------------------------------------------------------------------------------

  Mk-MRCCSD(T) off-diagonal contributions to the effective Hamiltonian:

    0.000000000000

  Total     diagonal (T) correction:   -0.018636712965
  Total off-diagonal (T) correction:    0.000000000000
  Total              (T) correction:   -0.018636712965

  Hamiltonian Matrix

      -38.975037632175685

  Computing the expectation value of Heff

      * Mk-MRCCSD(T) total energy   =        -38.975037632176

  Timing for triples:                         0.013746 s

  PSIMRCC job completed.
  Wall Time =             0.399768 s
  GEMM Time =             0.027688 s

  ==============================================================================
  Memory Usage Report

  Maximum memory used:     28.2 Mb 
  Number of objects still in memory: 0       Current bytes used: 0             
  ==============================================================================
	Nuclear repulsion energy..........................................PASSED
	SCF energy........................................................PASSED
	MkCCSD energy.....................................................PASSED

*** Psi4 exiting successfully. Buy a developer a beer!
