
    -----------------------------------------------------------------------
          Psi4: An Open-Source Ab Initio Electronic Structure Package
                               Psi4 (inplace)

                         Git: Rev (inplace)


    J. M. Turney, A. C. Simmonett, R. M. Parrish, E. G. Hohenstein,
    F. A. Evangelista, J. T. Fermann, B. J. Mintz, L. A. Burns, J. J. Wilke,
    M. L. Abrams, N. J. Russ, M. L. Leininger, C. L. Janssen, E. T. Seidl,
    W. D. Allen, H. F. Schaefer, R. A. King, E. F. Valeev, C. D. Sherrill,
    and T. D. Crawford, WIREs Comput. Mol. Sci. 2, 556-565 (2012)
    (doi: 10.1002/wcms.93)


                         Additional Contributions by
    A. E. DePrince, U. Bozkaya, A. Yu. Sokolov, D. G. A. Smith, R. Di Remigio,
    R. M. Richard, J. F. Gonthier, H. R. McAlexander, M. Saitow, and
    B. P. Pritchard
    -----------------------------------------------------------------------


    Psi4 started on: Sunday, 18 December 2016 04:22PM

    Process ID:  57522
    PSIDATADIR: /Users/daniel/Gits/psixc/psi4/share/psi4
    Memory:     500.0 MiB
    Threads:    1
    
  ==> Input File <==

--------------------------------------------------------------------------
# Compute three IP and 2 EA's for the PH3 molecule

molecule mol {
  Si   0.0000000000   0.000000000    0.0000000000
  H    0.0000000000   0.000000000    1.4819259446
  H    1.3971731795   0.000000000   -0.4939753149
  H   -0.6985865898  -1.209987467   -0.4939753149
  H   -0.6985865898   1.209987467   -0.4939753149
}

set BASIS      CC-PVDZ
set EP2_NUM_EA 2

energy('EP2')

bench_data = [                                  # TEST
    ["SCF TOTAL ENERGY",       -291.24286441],  # TEST
    ["EP2 2B1 ENERGY",           -0.46513829],  # TEST
    ["EP2 2B2 ENERGY",           -0.46513830],  # TEST
    ["EP2 IONIZATION POTENTIAL", -0.46513829],  # TEST
    ["EP2 ELECTRON AFFINITY",     0.14333736],  # TEST
    ["EP2 5A1 ENERGY",           -0.46513830],  # TEST
    ["EP2 3B1 ENERGY",            0.14333736],  # TEST
    ["EP2 6A1 ENERGY",            0.14333736]]  # TEST

for k, v in bench_data:                         # TEST
    compare_values(v, get_variable(k), 5, k)    # TEST

--------------------------------------------------------------------------

*** tstart() called on Daniels-MacBook-Pro-2.local
*** at Sun Dec 18 16:22:53 2016

    SCF Algorithm Type (re)set to DF.
    There are an even number of electrons - assuming singlet.
    Specify the multiplicity in the molecule input block.


         ---------------------------------------------------------
                                   SCF
            by Justin Turney, Rob Parrish, and Andy Simmonett
                              RHF Reference
                        1 Threads,    524 MiB Core
         ---------------------------------------------------------

  ==> Geometry <==

    Molecular point group: c2v
    Full point group: Td

    Geometry (in Angstrom), charge = 0, multiplicity = 1:

       Center              X                  Y                   Z               Mass       
    ------------   -----------------  -----------------  -----------------  -----------------
          SI          0.000000000000    -0.000000000000     0.000000000001    27.976926532460
           H          0.000000000000    -1.209987466985     0.855590343049     1.007825032070
           H          1.209987466972     0.000000000000    -0.855590343056     1.007825032070
           H         -1.209987466972    -0.000000000000    -0.855590343056     1.007825032070
           H         -0.000000000000     1.209987466985     0.855590343049     1.007825032070

  Running in c2v symmetry.

  Rotational constants: A =      2.85621  B =      2.85621  C =      2.85621 [cm^-1]
  Rotational constants: A =  85626.91942  B =  85626.91942  C =  85626.91942 [MHz]
  Nuclear repulsion =   21.308922360319816

  Charge       = 0
  Multiplicity = 1
  Electrons    = 18
  Nalpha       = 9
  Nbeta        = 9

  ==> Algorithm <==

  SCF Algorithm Type is DF.
  DIIS enabled.
  MOM disabled.
  Fractional occupation disabled.
  Guess Type is SAD.
  Energy threshold   = 1.00e-08
  Density threshold  = 1.00e-08
  Integral threshold = 0.00e+00

  ==> Primary Basis <==

  Basis Set: file /Users/daniel/Gits/psixc/psi4/share/psi4/basis/cc-pvdz.gbs
    Number of shells: 20
    Number of basis function: 38
    Number of Cartesian functions: 39
    Spherical Harmonics?: true
    Max angular momentum: 2

  ==> Pre-Iterations <==

   -------------------------------------------------------
    Irrep   Nso     Nmo     Nalpha   Nbeta   Ndocc  Nsocc
   -------------------------------------------------------
     A1        17      17       0       0       0       0
     A2         3       3       0       0       0       0
     B1         9       9       0       0       0       0
     B2         9       9       0       0       0       0
   -------------------------------------------------------
    Total      38      38       9       9       9       0
   -------------------------------------------------------

  ==> Integral Setup <==

  ==> DFJK: Density-Fitted J/K Matrices <==

    J tasked:                  Yes
    K tasked:                  Yes
    wK tasked:                  No
    OpenMP threads:              1
    Integrals threads:           1
    Memory (MB):               375
    Algorithm:                Core
    Integral Cache:           NONE
    Schwarz Cutoff:          1E-12
    Fitting Condition:       1E-12

   => Auxiliary Basis Set <=

  Basis Set: file /Users/daniel/Gits/psixc/psi4/share/psi4/basis/cc-pvdz-jkfit.gbs
    Number of shells: 72
    Number of basis function: 204
    Number of Cartesian functions: 230
    Spherical Harmonics?: true
    Max angular momentum: 3

  Minimum eigenvalue in the overlap matrix is 1.3425499505E-02.
  Using Symmetric Orthogonalization.

  SCF Guess: Superposition of Atomic Densities via on-the-fly atomic UHF.

  ==> Iterations <==

                           Total Energy        Delta E     RMS |[F,P]|

   @DF-RHF iter   0:  -291.06007827189489   -2.91060e+02   7.02614e-02 
   @DF-RHF iter   1:  -291.22292846003393   -1.62850e-01   5.70682e-03 
   @DF-RHF iter   2:  -291.24095446966942   -1.80260e-02   1.60748e-03 DIIS
   @DF-RHF iter   3:  -291.24283138347295   -1.87691e-03   2.10940e-04 DIIS
   @DF-RHF iter   4:  -291.24286302264528   -3.16392e-05   4.08730e-05 DIIS
   @DF-RHF iter   5:  -291.24286439017425   -1.36753e-06   5.63414e-06 DIIS
   @DF-RHF iter   6:  -291.24286441528920   -2.51150e-08   5.08242e-07 DIIS
   @DF-RHF iter   7:  -291.24286441545121   -1.62004e-10   3.02106e-08 DIIS
   @DF-RHF iter   8:  -291.24286441545195   -7.38964e-13   6.18065e-09 DIIS

  ==> Post-Iterations <==

    Orbital Energies (a.u.)
    -----------------------

    Doubly Occupied:                                                      

       1A1   -68.781236     2A1    -6.131771     1B2    -4.237690  
       1B1    -4.237690     3A1    -4.237690     4A1    -0.732781  
       5A1    -0.484703     2B2    -0.484703     2B1    -0.484702  

    Virtual:                                                              

       3B1     0.169280     6A1     0.169280     3B2     0.169280  
       7A1     0.213967     4B2     0.415141     8A1     0.415141  
       4B1     0.415141     1A2     0.509667     9A1     0.509667  
      10A1     0.523236     5B1     0.612513    11A1     0.612513  
       5B2     0.612513    12A1     0.781340     6B2     1.129936  
      13A1     1.129936     6B1     1.129936     7B2     1.482582  
       2A2     1.482582     7B1     1.482582     8B1     1.772251  
      14A1     1.772251     8B2     1.772251     3A2     1.976324  
      15A1     1.976324    16A1     2.102285     9B2     2.265054  
      17A1     2.265054     9B1     2.265054  

    Final Occupation by Irrep:
             A1    A2    B1    B2 
    DOCC [     5,    0,    2,    2 ]

  Energy converged.

  @DF-RHF Final Energy:  -291.24286441545195

   => Energetics <=

    Nuclear Repulsion Energy =             21.3089223603198157
    One-Electron Energy =                -445.4776424457679127
    Two-Electron Energy =                 132.9258556699961673
    DFT Exchange-Correlation Energy =       0.0000000000000000
    Empirical Dispersion Energy =           0.0000000000000000
    PCM Polarization Energy =               0.0000000000000000
    EFP Energy =                            0.0000000000000000
    Total Energy =                       -291.2428644154519475

    Alert: EFP and PCM quantities not currently incorporated into SCF psivars.

Properties will be evaluated at   0.000000,   0.000000,   0.000000 Bohr

Properties computed using the SCF density matrix

  Nuclear Dipole Moment: (a.u.)
     X:    -0.0000      Y:     0.0000      Z:    -0.0000

  Electronic Dipole Moment: (a.u.)
     X:     0.0000      Y:     0.0000      Z:    -0.0000

  Dipole Moment: (a.u.)
     X:    -0.0000      Y:     0.0000      Z:    -0.0000     Total:     0.0000

  Dipole Moment: (Debye)
     X:    -0.0000      Y:     0.0000      Z:    -0.0000     Total:     0.0000


         ---------------------------------------------------------
                  Second-Order Electron Propagator Theory

                            by Daniel G. A. Smith
         ---------------------------------------------------------

  ==> DFERI: Density Fitted 3-Index Tensors <==

    Schwarz cutoff =   1.000E-12
    J cutoff       =   1.000E-12
    Mem (GB)       =           0

   => Auxiliary Basis <=

  Basis Set: file /Users/daniel/Gits/psixc/psi4/share/psi4/basis/cc-pvdz-ri.gbs
    Number of shells: 48
    Number of basis function: 132
    Number of Cartesian functions: 150
    Spherical Harmonics?: true
    Max angular momentum: 3

  ==> Algorithm <==

  Number of orbitals:            5
  Maximum iterations:           20
  Convergence threshold:  5.00e-05

  ==> Iterations <==

   --------------------------------------------
    Iter   Residual RMS      Max RMS    Remain
   --------------------------------------------
      1     0.02320863     0.02671971      5
      2     0.00108876     0.00129719      5
      3     0.00000434     0.00000651      0
   --------------------------------------------

  ==> Results <==

    Orbital  Koopmans (eV)     EP2 (eV)   EP2 PS
  ----------------------------------------------
       5A1         -13.189       -12.657    0.935
       2B2         -13.189       -12.657    0.935
       2B1         -13.189       -12.657    0.935
       3B1           4.606         3.900    0.971
       6A1           4.606         3.900    0.971
  ----------------------------------------------

  EP2 has completed successfully!


*** tstop() called on Daniels-MacBook-Pro-2.local at Sun Dec 18 16:22:54 2016
Module time:
	user time   =       0.86 seconds =       0.01 minutes
	system time =       0.03 seconds =       0.00 minutes
	total time  =          1 seconds =       0.02 minutes
Total time:
	user time   =       0.86 seconds =       0.01 minutes
	system time =       0.03 seconds =       0.00 minutes
	total time  =          1 seconds =       0.02 minutes
	SCF TOTAL ENERGY..................................................PASSED
	EP2 2B1 ENERGY....................................................PASSED
	EP2 2B2 ENERGY....................................................PASSED
	EP2 IONIZATION POTENTIAL..........................................PASSED
	EP2 ELECTRON AFFINITY.............................................PASSED
	EP2 5A1 ENERGY....................................................PASSED
	EP2 3B1 ENERGY....................................................PASSED
	EP2 6A1 ENERGY....................................................PASSED

*** Psi4 exiting successfully. Buy a developer a beer!
