    -----------------------------------------------------------------------
          Psi4: An Open-Source Ab Initio Electronic Structure Package
                              Psi4 0.5 Driver

                          Git: Rev {master} dbe9080

    J. M. Turney, A. C. Simmonett, R. M. Parrish, E. G. Hohenstein,
    F. A. Evangelista, J. T. Fermann, B. J. Mintz, L. A. Burns, J. J. Wilke,
    M. L. Abrams, N. J. Russ, M. L. Leininger, C. L. Janssen, E. T. Seidl,
    W. D. Allen, H. F. Schaefer, R. A. King, E. F. Valeev, C. D. Sherrill,
    and T. D. Crawford, WIREs Comput. Mol. Sci. 2, 556-565 (2012)
    (doi: 10.1002/wcms.93)

                         Additional Contributions by
    A. E. DePrince, M. Saitow, U. Bozkaya, A. Yu. Sokolov
    -----------------------------------------------------------------------


    Psi4 started on: Mon Mar 14 15:13:46 2016

    Process ID:   9165
    PSI4DATADIR: /home/dsmith/Gits/dgas_psi/share
    Memory level set to 256.000 MB

  ==> Input File <==

--------------------------------------------------------------------------
#! RHF 6-31G** energy of water, using the MCSCF module and Z-matrix input.

memory 250 mb

refnuc =   9.32942148818371   #TEST
refscf = -76.02361501946214   #TEST

molecule h2o {
    O
    H  1  0.94306
    H  1  0.94306 2  105.96877
}

set globals {
  reference rhf
  basis 6-31G**
  docc [3, 0, 1, 1]
  r_convergence 12
}

thisenergy = energy('mcscf')

compare_values(refnuc, h2o.nuclear_repulsion_energy(), 11, "Nuclear Repulsion Energy")  #TEST
compare_values(refscf, thisenergy, 11, "SCF energy")                                    #TEST
--------------------------------------------------------------------------

  Memory set to 250.000 MiB by Python script.
    There are an even number of electrons - assuming singlet.
    Specify the multiplicity in the molecule input block.


*** tstart() called on ds1.sherrill.chemistry.gatech.edu
*** at Mon Mar 14 15:13:46 2016


         ------------------------------------------
           MCSCF: a self-consistent field program
            written by Francesco A. Evangelista
         ------------------------------------------

  MOs per irrep:                                      A1  A2  B1  B2 Total
  ----------------------------------------------------------------------------
  Total                                               12    2    4    7    25
  Doubly Occupied                                      3    0    1    1     5
  Active/Singly Occupied                               0    0    0    0     0
  ----------------------------------------------------------------------------

  Running an SCF calculation

  Generated 325 pairs
  Distributed as [119 A1][52 A2][62 B1][92 B2]
  batch   0 pq = [       0,     119] index = [               0,            7140]

  Allocated the PK matrix (7140 elements) 
  Reading the two-electron integrals to form PK ... 
  batch   0 ... done.


  =========================================================================================
         Cycle          Energy               D(Energy)            D(Density)            DIIS
  ===========================================================================================
  Setting level shift to 0.000 S
  @SCF    0      -68.240427319286     -68.240427319286       0.126321710095
  Setting level shift to 0.000 S
  @SCF    1      -71.349113497053      -3.108686177767       0.302125549730
  Setting level shift to 0.000 S
  @SCF    2      -73.947179452658      -2.598065955605       0.290163311366
  Setting level shift to 0.000 S
  @SCF    3      -75.031501165345      -1.084321712687       0.086499487682
  Setting level shift to 0.000 S
  @SCF    4      -75.651828006893      -0.620326841548       0.070708173943
  Setting level shift to 0.000 S
  @SCF    5      -75.892242630688      -0.240414623795       0.025609286567
  Setting level shift to 0.000 S
  @SCF    6      -75.979527705292      -0.087285074604       0.017102751861
  Setting level shift to 0.000 S/E
  @SCF    7      -76.008855922368      -0.029328217075       0.008697846431
  Setting level shift to 0.000 S/E
  @SCF    8      -76.023612841272      -0.014756918904       0.003598659856
  Setting level shift to 0.000 S/E
  @SCF    9      -76.023614672607      -0.000001831336       0.000041600938
  Setting level shift to 0.000 S/E
  @SCF   10      -76.023615005507      -0.000000332900       0.000029619808
  Setting level shift to 0.000 S/E
  @SCF   11      -76.023615019304      -0.000000013796       0.000007232463
  Setting level shift to 0.000 S/E
  @SCF   12      -76.023615019455      -0.000000000152       0.000000663747
  Setting level shift to 0.000 S/E
  @SCF   13      -76.023615019462      -0.000000000007       0.000000128548
  Setting level shift to 0.000 S/E
  @SCF   14      -76.023615019462      -0.000000000000       0.000000014722
  Setting level shift to 0.000 S/E
  @SCF   15      -76.023615019462       0.000000000000       0.000000002321
  Setting level shift to 0.000 S/E
  @SCF   16      -76.023615019462       0.000000000000       0.000000000336
  =========================================================================================

      * SCF total energy   =     -76.023615019462


  End of SCF
  MOs orthonormality check passed.

  Orbitals are canonicalized as:
  inactive (docc + uocc) : Fock(core)
  active   (actv)        : Fock(core)

  =========================================================================
  Eigenvalues (Eh)
  -------------------------------------------------------------------------
  Doubly occupied orbitals
      1    -20.557269  A1      2     -1.346465  A1      3     -0.713891  B2
      4     -0.568283  A1      5     -0.497607  B1
  Unoccupied orbitals
      6      0.215331  A1      7      0.308436  B2      8      1.016900  B2
      9      1.093012  A1     10      1.134579  A1     11      1.168985  B1
     12      1.295523  B2     13      1.411676  A1     14      1.802541  A2
     15      1.829511  A1     16      1.931474  B1     17      2.582658  B2
     18      2.588835  A1     19      2.841667  B2     20      2.997530  B1
     21      3.006365  A2     22      3.406553  A1     23      3.745700  A1
     24      3.945212  B2     25      4.128457  A1
  =========================================================================


  MCSCF Execution Completed.


*** tstop() called on ds1.sherrill.chemistry.gatech.edu at Mon Mar 14 15:13:47 2016
Module time:
	user time   =       0.04 seconds =       0.00 minutes
	system time =       0.01 seconds =       0.00 minutes
	total time  =          1 seconds =       0.02 minutes
Total time:
	user time   =       0.04 seconds =       0.00 minutes
	system time =       0.01 seconds =       0.00 minutes
	total time  =          1 seconds =       0.02 minutes
	Nuclear Repulsion Energy..........................................PASSED
	SCF energy........................................................PASSED

*** PSI4 exiting successfully. Buy a developer a beer!
