    -----------------------------------------------------------------------
          PSI4: An Open-Source Ab Initio Electronic Structure Package
                              PSI 4.0.0-alpha Driver
    T. D. Crawford, C. D. Sherrill, E. F. Valeev, J. T. Fermann, R. A. King,
    M. L. Leininger, S. T. Brown, C. L. Janssen, E. T. Seidl, J. P. Kenny,
    and W. D. Allen, J. Comput. Chem. 28, 1610-1616 (2007)

                         Additional Contributions by
    Francesco Evangelista, Andrew Simmonett, Justin Turney, Jeremy Wilke
    -----------------------------------------------------------------------


    Using LocalCommunicator (Number of processes = 1)

    Memory level set to 256.000 MB
    Job type         = OPT
    Wavefunction     = CCSD
    Reference        = RHF
    Derivative type  = FIRST
    Calculation type = CCSD:RHF:FIRST

*** PSI4 called tstart() on mac8319.local
*** at Fri Nov  5 18:09:22 2010

                                --------------
                                    INPUT
                                --------------

  LABEL       =	RHF CCSD GRADIENT
  SHOWNORM    =	0
  PUREAM      =	0
  PRINT_LVL   =	1

  Parsed basis sets from /usr/local/psi4/share/psi/pbasis.dat
Coordinates after reading z-matrices

                 1            2            3

    1    0.0000000    0.0000000    0.0000000
    2    0.0000000    0.0000000    1.8330342
    3    1.7860537    0.0000000   -0.4123430



  -Geometry before Center-of-Mass shift (a.u.):
   Atom            X                  Y                   Z
  ------   -----------------  -----------------  -----------------
    O         0.000000000000     0.000000000000     0.000000000000
    H         0.000000000000     0.000000000000     1.833034208922
    H         1.786053660900     0.000000000000    -0.412342977945


  -Rotational constants (cm-1) :
    A =   25.82761  B =   14.51273  C =    9.29167
    It is an asymmetric top.

  -Geometry after Center-of-Mass shift and reorientation (a.u.):
   Atom            X                  Y                   Z
  ------   -----------------  -----------------  -----------------
    O         0.000000000000    -0.127705012634     0.000000000000
    H         1.434547523692     1.013385611877     0.000000000000
    H        -1.434547523692     1.013385611877    -0.000000000000


  -SYMMETRY INFORMATION:
    Computational point group is C2v 
    Number of irr. rep.      = 4
    Number of atoms          = 3
    Number of unique atoms   = 2

  Primary Basis:

  -BASIS SETS:

   -Basis set on unique center 1:
      ( (S (  5484.67166000     0.00183107)
           (   825.23494600     0.01395017)
           (   188.04695800     0.06844508)
           (    52.96450000     0.23271434)
           (    16.89757040     0.47019290)
           (     5.79963534     0.35852085) )
        (S (    15.53961625    -0.11077755)
           (     3.59993359    -0.14802626)
           (     1.01376175     1.13076701) )
        (S (     0.27000582     1.00000000) )
        (P (    15.53961625     0.07087427)
           (     3.59993359     0.33975284)
           (     1.01376175     0.72715858) )
        (P (     0.27000582     1.00000000) )
        (D (     0.80000000     1.00000000) )
       )

   -Basis set on unique center 2:
      ( (S (    18.73113696     0.03349460)
           (     2.82539437     0.23472695)
           (     0.64012169     0.81375733) )
        (S (     0.16127776     1.00000000) )
        (P (     1.10000000     1.00000000) )
       )


  -BASIS SET INFORMATION:
    Total number of shells = 12
    Number of primitives   = 20
    Number of AO           = 25
    Number of SO           = 25

    Irrep    Number of SO
    -----    ------------
      1           12
      2            2
      3            4
      4            7

  -Contraction Scheme:
    Atom     All Primitives // Unique Primitives // Shells
    ----     ---------------------------------------------
       1      10s 4p 1d //  10s 1d //  3s 2p 1d
       2      4s 1p //  4s 1p //  2s 1p
       3      4s 1p //  4s 1p //  2s 1p


  -Unique atoms in the canonical coordinate system (a.u.):
   Atom            X                  Y                   Z
  ------   -----------------  -----------------  -----------------
    O         0.000000000000     0.000000000000    -0.127705012634
    H         0.000000000000     1.434547523692     1.013385611877


  -Geometry in the canonical coordinate system (a.u.):
   Atom            X                  Y                   Z
  ------   -----------------  -----------------  -----------------
    O         0.000000000000     0.000000000000    -0.127705012634
    H         0.000000000000     1.434547523692     1.013385611877
    H        -0.000000000000    -1.434547523692     1.013385611877


  -Geometry in the canonical coordinate system (Angstrom):
   Atom            X                  Y                   Z
  ------   -----------------  -----------------  -----------------
    O         0.000000000000     0.000000000000    -0.067578587269
    H         0.000000000000     0.759129912147     0.536260610269
    H        -0.000000000000    -0.759129912147     0.536260610269


  -Geometry in the reference coordinate system (a.u.):
   Atom            X                  Y                   Z
  ------   -----------------  -----------------  -----------------
    O         0.000000000000     0.000000000000    -0.127705012634
    H         0.000000000000     1.434547523692     1.013385611877
    H        -0.000000000000    -1.434547523692     1.013385611877


  --------------------------------------------------------------------------

    Nuclear Repulsion Energy (a.u.) =       9.077238846804

  -The Interatomic Distances in angstroms:

           1           2           3

    1   0.0000000
    2   0.9700000   0.0000000
    3   0.9700000   1.5182598   0.0000000

    Note: To print *all* bond angles, out-of-plane
          angles, and torsion angles set print = 3



*** PSI4 called tstop() on mac8319.local at Fri Nov  5 18:09:22 2010
	user time   =       0.08 seconds =       0.00 minutes
	system time =       0.01 seconds =       0.00 minutes
	total time  =          0 seconds =       0.00 minutes
    List of tasks to execute:
    cints
    cscf
    transqt2
    ccsort
    ccenergy
    cchbar
    cclambda
    ccdensity
    oeprop
    transqt to_ao
    cints deriv1

  Job 0 is CINTS
printed from execute_bp


  Options:
  ----------------------------------------------------------------------------
  BASIS_PATH           => (empty)       CHARGE               => 0           
  CUTOFF               => 15            EMPIRICAL_DISPERSION => FALSE       
  ERI_FILE             => 33            FINE_STRUCTURE_ALPHA => 0.00729735  
  MAKE_ERI             => TRUE          MODE                 => (empty)     
  MULTP                => 1             NO_INPUT             => FALSE       
  NUM_THREADS          => 1             PRINT                => 1           
  RESTART              => FALSE         RESTART_TASK         => 0           
  S_FILE               => 35            T_FILE               => 35          
  UNITS                => ANGSTROMS     V_FILE               => 35          
  WFN                  => CCSD       !

*** PSI4 called tstart() on mac8319.local
*** at Fri Nov  5 18:09:22 2010

                  --------------------------------------------
                    CINTS: An integrals program written in C
                     Justin T. Fermann and Edward F. Valeev
                  --------------------------------------------

  -OPTIONS:
    Print level                 = 1
    Integral tolerance          = 1e-15
    Max. memory to use          = 2500000 double words
    Number of threads           = 1
    LIBINT's real type length   = 64 bit

  -CALCULATION CONSTANTS:
    Label                       = RHF CCSD GRADIENT
    Number of atoms             = 3
    Number of atomic orbitals   = 25
    Number of symmetry orbitals = 25
    Maximum AM in the basis     = 2
    Fine-structure alpha scaling =   0.0073

  -SYMMETRY INFORMATION;
    Computational point group        = C2v
    Number of irreps                 = 4

    Wrote 13617 two-electron integrals to IWL file 33


*** PSI4 called tstop() on mac8319.local at Fri Nov  5 18:09:22 2010
	user time   =       0.10 seconds =       0.00 minutes
	system time =       0.01 seconds =       0.00 minutes
	total time  =          0 seconds =       0.00 minutes

  Job 1 is CSCF
printed from execute_bp


  Options:
  ----------------------------------------------------------------------------
  BASIS_PATH => (empty)      CHARGE     => 0          
  MULTP      => 1            NO_INPUT   => FALSE      
  UNITS      => ANGSTROMS  

*** PSI4 called tstart() on mac8319.local
*** at Fri Nov  5 18:09:22 2010

             ------------------------------------------

                CSCF3.0: An SCF program written in C

              Written by too many people to mention here

             ------------------------------------------

  I think the multiplicity is 1.
  If this is wrong, please specify the MULTP keyword

  label        = RHF CCSD gradient
  wfn          = CCSD
  reference    = RHF
  multiplicity = 1
  charge       = 0
  direct       = false
  dertype      = FIRST
  convergence  = 10
  maxiter      = 100
  guess        = AUTO

  nuclear repulsion energy        9.0772388468036
  first run, so defaulting to core-hamiltonian guess

  level shift                      = 0.100000

  level shifting will stop after 10 cycles
  diis scale factor                = 1.000000
  iterations before extrapolation  = 0
  6 error matrices will be kept

  keeping integrals in 114320 bytes of core

  The lowest eigenvalue of the overlap matrix was 2.230864e-02


  Using DOCC and SOCC to determine occupations


  Symmetry block:   A1    A2    B1    B2   
  DOCC:              3     0     1     1   
  SOCC:              0     0     0     0   

  reading integrals in the IWL format from files 33,35,36,37
  wrote 6516 integrals to file92

  iter       total energy        delta E         delta P          diiser
    1       -68.2945751265    7.737181e+01    0.000000e+00    0.000000e+00
    2       -71.3448673106    3.050292e+00    1.461731e-01    1.190466e+00
    3       -75.8740206500    4.529153e+00    1.386292e-01    8.573611e-01
    4       -76.0127771706    1.387565e-01    3.571875e-03    1.989130e-01
    5       -76.0218018537    9.024683e-03    1.255711e-03    4.393924e-02
    6       -76.0219748189    1.729652e-04    1.594762e-04    1.118920e-02
    7       -76.0219974063    2.258741e-05    7.979152e-05    3.902789e-03
    8       -76.0219978577    4.514294e-07    1.227064e-05    2.893048e-04
    9       -76.0219978753    1.754036e-08    3.631956e-06    6.228041e-05
   10       -76.0219978763    1.006882e-09    9.827202e-07    1.132714e-05
   11       -76.0219978763    2.330580e-11    1.193354e-07    1.728025e-06
   12       -76.0219978763    2.458478e-12    5.349900e-08    5.148786e-07
   13       -76.0219978763   -1.421085e-14    2.824306e-09    3.877380e-08
   14       -76.0219978763    2.842171e-14    6.149916e-10    1.019689e-08
   15       -76.0219978763    0.000000e+00    1.063461e-10    4.573083e-09
   16       -76.0219978763    0.000000e+00    1.439428e-11    2.909392e-10

Orbital energies (a.u.):

  Doubly occupied orbitals
   1A1    -20.563756     2A1     -1.335128     1B2     -0.693868  
   3A1     -0.569546     1B1     -0.496894  


  Unoccupied orbitals
   4A1      0.209148     2B2      0.301190     3B2      0.992987  
   5A1      1.080901     6A1      1.131133     2B1      1.168613  
   4B2      1.294487     7A1      1.418370     1A2      1.805555  
   8A1      1.805556     3B1      1.919426     9A1      2.554725  
   5B2      2.571406     6B2      2.778746     2A2      2.955797  
   4B1      2.985114    10A1      3.349725    11A1      3.681199  
   7B2      3.913091    12A1      4.093637  


      * SCF total energy   =     -76.021997876298
        kinetic energy     =      75.764070728969
        nuc. attr. energy  =    -198.644160740606
        elec. rep. energy  =      46.858092135338
        potential energy   =    -151.786068605268
        virial theorem     =       1.996607203776
        wavefunction norm  =       1.000000000000

*** PSI4 called tstop() on mac8319.local at Fri Nov  5 18:09:22 2010
	user time   =       0.11 seconds =       0.00 minutes
	system time =       0.01 seconds =       0.00 minutes
	total time  =          0 seconds =       0.00 minutes

  Job 2 is TRANSQT2
printed from execute_bp


  Options:
  ----------------------------------------------------------------------------
  AO_BASIS   => NONE         BASIS_PATH => (empty)    
  CACHELEV   => 2            CHARGE     => 0          
  DELETE_TEI => TRUE         DERTYPE    => FIRST     !
  MULTP      => 1            NO_INPUT   => FALSE      
  PRINT      => 1            PRINT_TEI  => FALSE      
  REFERENCE  => RHF       !  TOLERANCE  => 14         
  UNITS      => ANGSTROMS    WFN        => CCSD      !


*** PSI4 called tstart() on mac8319.local
*** at Fri Nov  5 18:09:22 2010


	**************************************************
	* TRANSQT2: Program to transform integrals from  *
	*           the SO basis to the MO basis.        *
	*                                                *
	*            Daniel, David, & Justin             *
	**************************************************


	Input parameters:
	-----------------
	Wave function   =	CCSD
	Backtransform   =	No
	Print Level     =	1
	Print TEIs      =	No
	Reference wfn   =	RHF
	Derivative      =	First
	Delete TEI File =	Yes
	Memory (Mbytes) =	100.0
	Cache Level     =	2
	Cache Type      =	LRU
	Chkpt Parameters:
	--------------------
	Number of irreps     = 4
	Number of SOs        = 25
	Number of MOs        = 25
	Number of active MOs = 25

	Label	# SOs	# FZDC	# DOCC	# SOCC	# VIRT	# FZVR
	-----	-----	------	------	------	------	------
	 A1 	   12	    0	    3	    0	    9	    0
	 A2 	   2	    0	    0	    0	    2	    0
	 B1 	   4	    0	    1	    0	    3	    0
	 B2 	   7	    0	    1	    0	    6	    0

	Nuclear Rep. energy (chkpt) =      9.07723884680363
	SCF energy          (chkpt) =    -76.02199787629843

	Presorting SO-basis two-electron integrals.
	Sorting File: SO Ints (pq,rs) nbuckets = 1
	Frozen-core energy =    0.000000000000000
	Starting first half-transformation.
	Sorting half-transformed integrals.
	Starting second half-transformation.
	Two-electron integral transformation complete.

*** PSI4 called tstop() on mac8319.local at Fri Nov  5 18:09:22 2010
	user time   =       0.13 seconds =       0.00 minutes
	system time =       0.03 seconds =       0.00 minutes
	total time  =          0 seconds =       0.00 minutes

  Job 3 is CCSORT
printed from execute_bp


  Options:
  ----------------------------------------------------------------------------
  AO_BASIS             => NONE            
  BASIS_PATH           => (empty)         
  CACHELEV             => 2               
  CHARGE               => 0               
  DERTYPE              => FIRST          !
  EOM_REFERENCE        => RHF             
  FREEZE_CORE          => FALSE           
  KEEP_OEIFILE         => FALSE           
  KEEP_TEIFILE         => FALSE           
  LOCAL                => FALSE           
  LOCAL_CORE_CUTOFF    => 0.05            
  LOCAL_CPHF_CUTOFF    => 0.1             
  LOCAL_CUTOFF         => 0.02            
  LOCAL_DOMAIN_MAG     => FALSE           
  LOCAL_DOMAIN_POLAR   => FALSE           
  LOCAL_DOMAIN_SEP     => FALSE           
  LOCAL_FILTER_SINGLES => FALSE           
  LOCAL_METHOD         => WERNER          
  LOCAL_PAIRDEF        => BP              
  LOCAL_WEAKP          => NONE            
  MULTP                => 1               
  NO_INPUT             => FALSE           
  OMEGA                => [  ]            
  PRINT                => 0               
  PROPERTY             => POLARIZABILITY  
  REFERENCE            => RHF            !
  TOLERANCE            => 14              
  UNITS                => ANGSTROMS       
  WFN                  => CCSD           !


*** PSI4 called tstart() on mac8319.local
*** at Fri Nov  5 18:09:22 2010


			**************************
			*                        *
			*         CCSORT         *
			*                        *
			**************************


	Input parameters:
	-----------------
	Wave function   =	CCSD
	Reference wfn   =	RHF
	Derivative      =	First
	Memory (Mbytes) =	256.0
	AO Basis        =	NONE
	Make (ab|cd)    =	True
	Make unpacked (ab|cd) =	True
	Cache Level     =	2
	Cache Type      =	LRU
	Local CC        =     No


	Chkpt Parameters:
	--------------------
	Number of irreps     = 4
	Number of MOs        = 25
	Number of active MOs = 25

	Label	# MOs	# FZDC	# DOCC	# SOCC	# VIRT	# FZVR
	-----	-----	------	------	------	------	------
	 A1 	   12	    0	    3	    0	    9	    0
	 A2 	   2	    0	    0	    0	    2	    0
	 B1 	   4	    0	    1	    0	    3	    0
	 B2 	   7	    0	    1	    0	    6	    0

	Nuclear Rep. energy (chkpt) =      9.07723884680363
	SCF energy          (chkpt) =    -76.02199787629843

	Size of irrep 0 of <ab|cd> integrals:      0.017 (MW) /      0.135 (MB)
	Size of irrep 1 of <ab|cd> integrals:      0.005 (MW) /      0.041 (MB)
	Size of irrep 2 of <ab|cd> integrals:      0.006 (MW) /      0.049 (MB)
	Size of irrep 3 of <ab|cd> integrals:      0.014 (MW) /      0.115 (MB)
	Total:                                     0.043 (MW) /      0.341 (MB)

	Size of irrep 0 of <ia|bc> integrals:      0.005 (MW) /      0.037 (MB)
	Size of irrep 1 of <ia|bc> integrals:      0.001 (MW) /      0.009 (MB)
	Size of irrep 2 of <ia|bc> integrals:      0.002 (MW) /      0.012 (MB)
	Size of irrep 3 of <ia|bc> integrals:      0.003 (MW) /      0.028 (MB)
	Total:                                     0.011 (MW) /      0.086 (MB)

	Size of irrep 0 of tijab amplitudes:       0.001 (MW) /      0.011 (MB)
	Size of irrep 1 of tijab amplitudes:       0.000 (MW) /      0.001 (MB)
	Size of irrep 2 of tijab amplitudes:       0.000 (MW) /      0.004 (MB)
	Size of irrep 3 of tijab amplitudes:       0.001 (MW) /      0.006 (MB)
	Total:                                     0.003 (MW) /      0.022 (MB)


	Sorting File: A <ij|kl> nbuckets = 1
	Sorting File: B <ab|cd> nbuckets = 1
	Sorting File: B(+) <ab|cd> nbuckets = 1
	Sorting File: C <ia|jb> nbuckets = 1
	Sorting File: D <ij|ab> nbuckets = 1
	Sorting File: E <ai|jk> nbuckets = 1
	Sorting File: F <ia|bc> nbuckets = 1
	Sorting File: F <ai|bc> nbuckets = 1
	One-electron energy          =   -122.88009001187018
	Two-electron (AA) energy     =     14.41616333314054
	Two-electron (BB) energy     =     14.41616333314054
	Two-electron (AB) energy     =     23.36468995562764
	Two-electron energy          =     37.78085328876818
	Frozen-core energy (transqt) =      0.00000000000000
	Reference energy             =    -76.02199787629839

*** PSI4 called tstop() on mac8319.local at Fri Nov  5 18:09:22 2010
	user time   =       0.16 seconds =       0.00 minutes
	system time =       0.06 seconds =       0.00 minutes
	total time  =          0 seconds =       0.00 minutes

  Job 4 is CCENERGY
printed from execute_bp


  Options:
  ----------------------------------------------------------------------------
  ABCD                => NEW             
  ANALYZE             => FALSE           
  AO_BASIS            => NONE            
  BASIS_PATH          => (empty)         
  BRUECKNER_CONV      => 5               
  CACHELEV            => 2               
  CACHETYPE           => LOW             
  CC_SCALE_OS         => 1.27            
  CC_SCALE_SS         => 1.13            
  CHARGE              => 0               
  CONVERGENCE         => 7               
  DERTYPE             => FIRST          !
  DIIS                => TRUE            
  FORCE_RESTART       => FALSE           
  FREEZE_CORE         => FALSE           
  LOCAL               => FALSE           
  LOCAL_CPHF_CUTOFF   => 0.1             
  LOCAL_CUTOFF        => 0.02            
  LOCAL_METHOD        => WERNER          
  LOCAL_MOS           => 0               
  LOCAL_PAIRDEF       => BP              
  LOCAL_WEAKP         => NONE            
  MAXITER             => 50              
  MP2_SCALE_OS        => 1.2             
  MP2_SCALE_SS        => 0.333333        
  MULTP               => 1               
  NEWTRIPS            => TRUE            
  NO_INPUT            => FALSE           
  NTHREADS            => 1               
  NUM_AMPS            => 10              
  PRINT               => 0               
  PRINT_MP2_AMPS      => FALSE           
  PRINT_PAIR_ENERGIES => FALSE           
  PROPERTY            => POLARIZABILITY  
  REFERENCE           => RHF            !
  RESTART             => TRUE            
  SCSN_MP2            => FALSE           
  SCS_CCSD            => FALSE           
  SCS_MP2             => FALSE           
  SPINADAPT_ENERGIES  => FALSE           
  T2_COUPLED          => FALSE           
  T3_WS_INCORE        => FALSE           
  UNITS               => ANGSTROMS       
  WFN                 => CCSD           !


*** PSI4 called tstart() on mac8319.local
*** at Fri Nov  5 18:09:22 2010

			**************************
			*                        *
			*        CCENERGY        *
			*                        *
			**************************

	Nuclear Rep. energy (chkpt)   =    9.077238846803628
	SCF energy          (chkpt)   =  -76.021997876298428
	Reference energy    (file100) =  -76.021997876298386

	Input parameters:
	-----------------
	Wave function   =     CCSD
	Reference wfn   =     RHF
	Memory (Mbytes) =     256.0
	Maxiter         =     50
	Convergence     =     1.0e-07
	Restart         =     Yes
	DIIS            =     Yes
	AO Basis        =     NONE
	ABCD            =     NEW
	Cache Level     =     2
	Cache Type      =     LOW
	Print Level     =     0
	Num. of threads =     1
	# Amps to Print =     10
	Print MP2 Amps? =     No
	Analyze T2 Amps =     No
	Print Pair Ener =     No
	Local CC        =     No
	SCS-MP2         =     False
	SCSN-MP2        =     False
	SCS-CCSD        =     False

	            Solving CC Amplitude Equations
	            ------------------------------
  Iter             Energy              RMS        T1Diag      D1Diag    New D1Diag
  ----     ---------------------    ---------   ----------  ----------  ----------
     0        -0.200284583173948    0.000e+00    0.000000    0.000000    0.000000
     1        -0.204524502075002    2.733e-02    0.004508    0.008904    0.008904
     2        -0.208454935199261    9.794e-03    0.005161    0.010333    0.010333
     3        -0.208976352651959    2.795e-03    0.005693    0.011917    0.011917
     4        -0.208980674127093    6.466e-04    0.005747    0.012228    0.012228
     5        -0.208995515133577    2.053e-04    0.005786    0.012422    0.012422
     6        -0.208991614392825    6.453e-05    0.005799    0.012493    0.012493
     7        -0.208991056570570    1.565e-05    0.005803    0.012511    0.012511
     8        -0.208991037417512    2.937e-06    0.005803    0.012514    0.012514
     9        -0.208990960559508    7.070e-07    0.005803    0.012514    0.012514
    10        -0.208990980781139    1.507e-07    0.005803    0.012514    0.012514
    11        -0.208990979379472    2.941e-08    0.005803    0.012514    0.012514

	Iterations converged.


	Largest TIA Amplitudes:
	          2   0         0.0108429989
	          3  11        -0.0066539437
	          4  14        -0.0062968525
	          4  18         0.0053909624
	          4  16         0.0049115255
	          1   2         0.0043626426
	          2   5        -0.0040679843
	          1   0        -0.0026726467
	          1   7         0.0023396374
	          2   1        -0.0022229009

	Largest TIjAb Amplitudes:
	  3   3  11  11        -0.0518990452
	  4   4  14  14        -0.0394129106
	  2   2   2   2        -0.0298937778
	  4   4  15  15        -0.0287516509
	  2   3   2  11         0.0252441039
	  3   2  11   2         0.0252441039
	  3   4  11  16        -0.0248319597
	  4   3  16  11        -0.0248319597
	  4   4  16  16        -0.0246255003
	  3   4  11  14        -0.0244548465

	SCF energy       (chkpt)              =  -76.021997876298428
	Reference energy (file100)            =  -76.021997876298386

	Opposite-spin MP2 correlation energy  =   -0.149954963249766
	Same-spin MP2 correlation energy      =   -0.050329619924182
	MP2 correlation energy                =   -0.200284583173948
      * MP2 total energy                      =  -76.222282459472339

	Opposite-spin CCSD correlation energy =   -0.164400075252514
	Same-spin CCSD correlation energy     =   -0.044590904126920
	CCSD correlation energy               =   -0.208990979379472
      * CCSD total energy                     =  -76.230988855677865


*** PSI4 called tstop() on mac8319.local at Fri Nov  5 18:09:27 2010
	user time   =       0.42 seconds =       0.01 minutes
	system time =       0.31 seconds =       0.01 minutes
	total time  =          5 seconds =       0.08 minutes

  Job 5 is CCHBAR
printed from execute_bp


  Options:
  ----------------------------------------------------------------------------
  BASIS_PATH    => (empty)      CACHELEV      => 2          
  CHARGE        => 0            DERTYPE       => FIRST     !
  EOM_REFERENCE => RHF          MULTP         => 1          
  NO_INPUT      => FALSE        PRINT         => 0          
  TAMPLITUDE    => FALSE        UNITS         => ANGSTROMS  
  WABEI_LOWDISK => FALSE        WFN           => CCSD      !


*** PSI4 called tstart() on mac8319.local
*** at Fri Nov  5 18:09:27 2010


			**************************
			*                        *
			*         CCHBAR         *
			*                        *
			**************************


*** PSI4 called tstop() on mac8319.local at Fri Nov  5 18:09:27 2010
	user time   =       0.45 seconds =       0.01 minutes
	system time =       0.35 seconds =       0.01 minutes
	total time  =          0 seconds =       0.00 minutes

  Job 6 is CCLAMBDA
printed from execute_bp


  Options:
  ----------------------------------------------------------------------------
  ABCD                 => NEW          AO_BASIS             => NONE       
  BASIS_PATH           => (empty)      CACHELEV             => 2          
  CHARGE               => 0            CONVERGENCE          => 7          
  DERTYPE              => FIRST     !  DIIS                 => TRUE       
  FREEZE_CORE          => FALSE        JOBTYPE              => OPT       !
  LOCAL                => FALSE        LOCAL_CPHF_CUTOFF    => 0.1        
  LOCAL_CUTOFF         => 0.02         LOCAL_FILTER_SINGLES => TRUE       
  LOCAL_METHOD         => WERNER       LOCAL_PAIRDEF        => (empty)    
  LOCAL_WEAKP          => NONE         MAXITER              => 50         
  MULTP                => 1            NO_INPUT             => FALSE      
  NUM_AMPS             => 10           PRINT                => 0          
  PROP_ALL             => FALSE        PROP_ROOT            => 1          
  PROP_SYM             => 1            RESTART              => FALSE      
  SEKINO               => FALSE        STATES_PER_IRREP     => [  ]       
  UNITS                => ANGSTROMS    WFN                  => CCSD      !


*** PSI4 called tstart() on mac8319.local
*** at Fri Nov  5 18:09:27 2010


			**************************
			*        CCLAMBDA        *
			**************************


	Nuclear Rep. energy (chkpt)   =    9.077238846803628
	Reference           (chkpt)   = 0
	SCF energy          (chkpt)   =  -76.021997876298428
	Reference energy    (CC_INFO) =  -76.021997876298386
	CCSD energy         (CC_INFO) =   -0.208990979379472
	Total CCSD energy   (CC_INFO) =  -76.230988855677865

	Input parameters:
	-----------------
	Maxiter       =      50
	Convergence   = 1.0e-07
	Restart       =     No
	Cache Level   =     2
	Model III     =     No
	DIIS          =     Yes
	AO Basis      =     No
	ABCD            =     NEW
	Local CC        =     No
	Paramaters for left-handed eigenvectors:
	    Irr   Root  Ground-State?    EOM energy        R0
	  1   0     0        Yes       0.0000000000   1.0000000000
	Labels for eigenvector 1:
	LIA 0 -1, Lia 0 -1, LIJAB 0 -1, Lijab 0 -1, LIjAb 0 -1, 2LIjAb - LIjbA 0 -1
	Symmetry of left-hand state: A1 
	Symmetry of left-hand eigenvector: A1 

	          Solving Lambda Equations
	          ------------------------
	Iter     PseudoEnergy or Norm         RMS  
	----     ---------------------     --------
	   0        -0.209027786977453    0.000e+00
	   1        -0.206495151796727    7.993e-03
	   2        -0.206067352571806    1.345e-03
	   3        -0.205981807555467    6.208e-04
	   4        -0.205975115136720    2.062e-04
	   5        -0.205978815277432    6.254e-05
	   6        -0.205978783013926    1.506e-05
	   7        -0.205978870950216    3.417e-06
	   8        -0.205978900421594    5.200e-07
	   9        -0.205978898467433    9.017e-08

	Largest LIA Amplitudes:
	          2   0         0.0072417840
	          4  16         0.0050589414
	          4  18         0.0046513000
	          3  11        -0.0039991745
	          2   5        -0.0036194743
	          1   2         0.0032129567
	          4  14        -0.0031907780
	          1   3        -0.0025293234
	          1   7         0.0021477525
	          4  15         0.0021208235

	Largest LIjAb Amplitudes:
	  3   3  11  11        -0.0516330659
	  4   4  14  14        -0.0384957106
	  2   2   2   2        -0.0295153732
	  4   4  15  15        -0.0280304863
	  2   3   2  11         0.0250935208
	  3   2  11   2         0.0250935208
	  3   4  11  16        -0.0246412000
	  4   3  16  11        -0.0246412000
	  4   4  16  16        -0.0243635767
	  3   4  11  14        -0.0241957706

	Iterations converged.

	Overlap <L|e^T> =        0.94273433760

*** PSI4 called tstop() on mac8319.local at Fri Nov  5 18:09:27 2010
	user time   =       0.54 seconds =       0.01 minutes
	system time =       0.44 seconds =       0.01 minutes
	total time  =          0 seconds =       0.00 minutes

  Job 7 is CCDENSITY
printed from execute_bp


  Options:
  ----------------------------------------------------------------------------
  AEL              => FALSE        AO_BASIS         => NONE       
  BASIS_PATH       => (empty)      CACHELEV         => 2          
  CHARGE           => 0            CONNECT_XI       => FALSE      
  DERTYPE          => FIRST     !  GAUGE            => LENGTH     
  MULTP            => 1            NO_INPUT         => FALSE      
  PROP_ALL         => FALSE        PROP_ROOT        => 0          
  PROP_SYM         => 0            REFERENCE        => RHF       !
  RELAX_OPDM       => FALSE        STATES_PER_IRREP => [  ]       
  TOLERANCE        => 14           UNITS            => ANGSTROMS  
  WFN              => CCSD      !

*** PSI4 called tstart() on mac8319.local
*** at Fri Nov  5 18:09:27 2010


			**************************
			*                        *
			*        CCDENSITY       *
			*                        *
			**************************


	Input parameters:
	-----------------
	Wave function    =   CCSD
	Reference wfn    =   RHF
	Tolerance        = 1.0e-14
	Cache Level      = 2
	AO Basis         = No
	OPDM Only        = No
	Relax OPDM       = No
	Compute Xi       = No
	Use Zeta         = No
	Xi connected     = No

	Nuclear Rep. energy (chkpt)   =    9.077238846803628
	SCF energy          (chkpt)   =  -76.021997876298428
	Reference energy    (file100) =  -76.021997876298386
	CCSD energy         (CC_INFO) =   -0.208990979379472
	Total CCSD energy   (CC_INFO) =  -76.230988855677865
	Number of States = 1

	Ground?  State     EOM Energy       R0
	  Yes     0A1     0.0000000000   1.00000000

	Energies re-computed from CC density:
	-------------------------------------
	One-electron energy        =    0.221186770616809
	IJKL energy                =    0.041993248479873
	IJKA energy                =   -0.001393402795598
	IJAB energy                =   -0.412136965721247
	IBJA energy                =   -0.101198069309178
	CIAB energy                =   -0.000203578046853
	ABCD energy                =    0.042761017134952
	Total two-electron energy  =   -0.430177750258051
	CCSD correlation energy    =   -0.208990979641242
	Total CCSD energy          =  -76.230988855939628

	Virial Theorem Data:
	--------------------
	Kinetic energy (ref)   =   75.764070729469410
	Kinetic energy (corr)  =    0.151616947049739
	Kinetic energy (total) =   75.915687676519156
	-V/T (ref)             =    2.003404346471165
	-V/T (corr)            =    2.378414375478167
	-V/T (total)           =    2.004153307291403

	Energies re-computed from Fock-adjusted CC density:
	---------------------------------------------------
	One-electron energy        =    0.258019450878554
	IJKL energy                =   -0.672858072916463
	IJKA energy                =   -0.059474667415514
	IJAB energy                =   -0.412136965721247
	IBJA energy                =    0.634901836445330
	CIAB energy                =   -0.000203578046853
	ABCD energy                =    0.042761017134952
	Total two-electron energy  =   -0.467010430519795
	CCSD correlation energy    =   -0.208990979641241
	Total CCSD energy          =  -76.230988855939628

	Energies re-computed from Mulliken density:
	-------------------------------------------
	One-electron energy        =    0.258019450878554
	IJKL energy                =   -0.672858072916463
	IJKA energy                =   -0.059474667415514
	IJAB energy                =   -0.381058765741879
	IBJA energy                =    0.603823636465961
	CIAB energy                =   -0.000203578046853
	ABCD energy                =    0.042761017134952
	Total two-electron energy  =   -0.467010430519795
	CCSD correlation energy    =   -0.208990979641242
	Total CCSD energy          =  -76.230988855939628

*** PSI4 called tstop() on mac8319.local at Fri Nov  5 18:09:28 2010
	user time   =       0.62 seconds =       0.01 minutes
	system time =       0.53 seconds =       0.01 minutes
	total time  =          1 seconds =       0.02 minutes

  Job 8 is OEPROP
printed from execute_bp


  Options:
  ----------------------------------------------------------------------------
  ASYMM_OPDM           => FALSE           
  BASIS_PATH           => (empty)         
  CHARGE               => 0               
  CORREL_CORR          => 0               
  DELETE_ZVEC          => 0               
  DOCC                 => [ 3, 0, 1, 1 ] !
  EDGRAD_LOGSCALE      => 5               
  FINE_STRUCTURE_ALPHA => 1               
  FREEZE_CORE          => FALSE           
  GRID                 => 0               
  GRID_FORMAT          => (empty)         
  GRID_ORIGIN          => 0               
  GRID_UNIT_X          => 0               
  GRID_XY0             => [  ]            
  GRID_XY1             => [  ]            
  GRID_XYZ0            => [  ]            
  GRID_XYZ1            => [  ]            
  GRID_ZMAX            => 3               
  GRID_ZMIN            => 0               
  LM_REF_XYZ           => [  ]            
  MO_TO_PLOT           => (empty)         
  MPMAX                => 1               
  MP_REF               => 0               
  MP_REF_XYZ           => [  ]            
  MULTP                => 1               
  NIX                  => 0               
  NIY                  => 0               
  NIZ                  => 0               
  NO_INPUT             => FALSE           
  NUC_ESP              => TRUE            
  NUM_ROOTS            => 1               
  OPDM_BASIS           => MO              
  OPDM_FILE            => 0               
  OPDM_FORMAT          => SQUARE          
  PRINT                => 1               
  PRINT_NOS            => FALSE           
  QED_DARWIN           => FALSE           
  READ_OPDM            => TRUE            
  REFERENCE            => RHF            !
  ROOT                 => 1               
  SOCC                 => [  ]            
  SPIN_PROP            => FALSE           
  TRANSITION_DENSITY   => FALSE           
  UNITS                => ANGSTROMS       
  WFN                  => CCSD           !
  WRTNOS               => FALSE           
  ZVEC_FILE            => 0               


*** PSI4 called tstart() on mac8319.local
*** at Fri Nov  5 18:09:28 2010

    **********************************************
    *                    OEPROP                  *
    *          A simple property program         *
    *              by a big TOOL fan             *
    **********************************************


  TASKS to be performed :
    $One-particle density in MO basis in SQUARE form will be read from file73.
    $Only electric dipole moment will be computed.
    $Reference point for the electric multipole moments calculation is 
      the center of mass.
    $Reference point for the electric angular momentum calculation is 
      at (0.000000 0.000000 0.000000)
    $Electrostatic properties at the nuclei will be evaluated.

  Title : 'RHF CCSD GRADIENT'

  List of PARAMETERS :
    # of atoms                 =      3
    # of molecular orbitals    =     25
    # of basis functions       =     25
    # of atomic orbitals       =     25
    # of irreps                =      4
    Total charge               =      0
    # of unique shells         =     12
    # of primitives            =     20
    Print level                =      1

  List of GRID PARAMETERS :
    GRID_ORIGIN                =	(  0.00000  0.00000  0.00000 )
    GRID_STEP_X                =	(  0.00000  0.00000  0.00000 )
    GRID_STEP_Y                =	(  0.00000  0.00000  0.00000 )
    NIX                        =	  11
    NIY                        =	  11
    GRID_ZMIN                  =	   0.00000
    GRID_ZMAX                  =	   3.00000

	Densities available up to root 1
	** Analyzing density number 1 **
 --------------------------------------------------------------
   ** Mulliken population analysis of one-particle density **
 --------------------------------------------------------------

 -Gross orbital populations :

  Center   AO          L          Q(AO)
  ------  ----        ---      -----------
     1      1          0        1.99517542
     1      2          0        0.90059193
     1      3          0        0.91088284
     1      4          1        1.12486154
     1      5          1        0.80206002
     1      6          1        0.92416372
     1      7          1        0.84108607
     1      8          1        0.45175846
     1      9          1        0.63755169
     1     10          2        0.00184622
     1     11          2        0.00493574
     1     12          2        0.00689728
     1     13          2        0.00801968
     1     14          2        0.01843603
     1     15          2        0.00123426
     2     16          0        0.48944658
     2     17          0        0.15482958
     2     18          1        0.01135443
     2     19          1        0.01606458
     2     20          1        0.01355438
     3     21          0        0.48944658
     3     22          0        0.15482958
     3     23          1        0.01135443
     3     24          1        0.01606458
     3     25          1        0.01355438


 -Atomic bond populations :

                 1            2            3

    1    7.1310685    0.2831807    0.2831807
    2    0.2831807    0.3569489   -0.0262363
    3    0.2831807   -0.0262363    0.3569489




 -Gross atomic populations and net charges :

    Center    Atomic Population    Net Charge
    ------    -----------------    ----------
       1            8.629501        -0.629501
       2            0.685250        +0.314750
       3            0.685250        +0.314750


 --------------------------------------------------------------
                *** Electric multipole moments ***
 --------------------------------------------------------------

 -Coordinates of the reference point (a.u.) :
           x                     y                     z
  --------------------  --------------------  --------------------
          0.0000000000         -0.0000000000         -0.0000000000

 -Electric dipole moment (expectation values) :

    mu(X)  =  -0.00000 D  =  -1.04989967e-45 C*m  =  -0.00000000 a.u.
    mu(Y)  =   0.00000 D  =   1.25014655e-45 C*m  =   0.00000000 a.u.
    mu(Z)  =   2.10875 D  =   7.03404097e-30 C*m  =   0.82964662 a.u.
    |mu|   =   2.10875 D  =   7.03404097e-30 C*m  =   0.82964662 a.u.


 --------------------------------------------------------------
              *** Electronic angular momentum ***
 --------------------------------------------------------------

 -Coordinates of the reference point (a.u.) :
           x                     y                     z
  --------------------  --------------------  --------------------
          0.0000000000          0.0000000000          0.0000000000

 -Electronic angular momentum (expectation values) :

    Lx  =   0.00000000 a.u.
    Ly  =   0.00000000 a.u.
    Lz  =   0.00000000 a.u.


 --------------------------------------------------------------
      *** Electrostatic  properties at atomic centers ***
 --------------------------------------------------------------

 -Coordinates of atomic centers (a.u.):
    #   Charge           x                     y                     z
   ---  ------  --------------------  --------------------  --------------------
    1      8            0.0000000000          0.0000000000         -0.1277050126
    2      1            0.0000000000          1.4345475237          1.0133856119
    3      1           -0.0000000000         -1.4345475237          1.0133856119


 -Electrostatic potential and electric field (a.u.) :

    Center         phi            Ex             Ey           Ez
    ------    ------------   ------------  ------------  ------------
       1      -22.29516584     0.00000000   -0.00000000   -0.12459314
       2       -1.01097690     0.00000000    0.01132203    0.00035653
       3       -1.01097690    -0.00000000   -0.01132203    0.00035653


 -Electric field gradient (regular form) (a.u.):

    Center           XX                    YY                    ZZ
    ------  --------------------  --------------------  --------------------
       1          -1214.93112063        -1218.26026032        -1217.03123468
       2             -1.41920952           -1.91069647           -1.74021568
       3             -1.41920952           -1.91069647           -1.74021568

    Center           XY                    XZ                    YZ
    ------  --------------------  --------------------  --------------------
       1              0.00000000           -0.00000000            0.00000000
       2             -0.00000000           -0.00000000            1.57565613
       3             -0.00000000            0.00000000           -1.57565613


 -Electric field gradient (traceless tensor form) (a.u.):

    Center        XX - RR/3             YY - RR/3             ZZ - RR/3
    ------  --------------------  --------------------  --------------------
       1              1.80975125           -1.51938845           -0.29036280
       2              0.27083104           -0.22065591           -0.05017512
       3              0.27083104           -0.22065591           -0.05017512

    Center           XY                    XZ                    YZ
    ------  --------------------  --------------------  --------------------
       1              0.00000000           -0.00000000            0.00000000
       2             -0.00000000           -0.00000000            1.57565613
       3             -0.00000000            0.00000000           -1.57565613


 -Electron density (a.u.):

    Center           rho
    ------  --------------------
       1            290.47548633
       2              0.40346746
       3              0.40346746


 --------------------------------------------------------------
                *** Miscellaneous properties ***
 --------------------------------------------------------------

 -Relativistic MVD one-electron corrections to the energy (a.u.):

    Mass-velocity (p^4) term     :   -0.245471476446290
    One-electron Darwin term     :   0.194446823493528
    Total one-electron MVD terms :   -0.051024652952761


*** PSI4 called tstop() on mac8319.local at Fri Nov  5 18:09:28 2010
	user time   =       0.63 seconds =       0.01 minutes
	system time =       0.53 seconds =       0.01 minutes
	total time  =          0 seconds =       0.00 minutes

  Job 9 is TRANSQT
printed from execute_bp


  Options:
  ----------------------------------------------------------------------------
  AA_M_FILE            => 81              
  AB_M_FILE            => 83              
  AO_BASIS             => NONE            
  BASIS_PATH           => (empty)         
  BB_M_FILE            => 82              
  CHARGE               => 0               
  CHECK_C_ORTHONORM    => FALSE           
  DELETE_AO            => TRUE            
  DELETE_RESTR_DOCC    => TRUE            
  DELETE_TPDM          => TRUE            
  DERTYPE              => FIRST          !
  DOCC                 => [ 3, 0, 1, 1 ] !
  DO_ALL_TEI           => FALSE           
  FIRST_TMP_FILE       => 150             
  FREEZE_CORE          => FALSE           
  FZC_A_FILE           => 35              
  FZC_B_FILE           => 35              
  FZC_FILE             => 35              
  IVO                  => FALSE           
  J_FILE               => 91              
  KEEP_J               => FALSE           
  KEEP_PRESORT         => FALSE           
  LAGRAN_DOUBLE        => FALSE           
  LAGRAN_HALVE         => FALSE           
  LAG_IN_FILE          => 75              
  MAX_BUCKETS          => 499             
  MODE                 => TO_MO           
  MOORDER              => [  ]            
  MP2R12A              => MP2R12AERI      
  MULTP                => 1               
  M_FILE               => 0               
  NO_INPUT             => FALSE           
  OEI_A_FILE           => 35              
  OEI_B_FILE           => 35              
  OEI_FILE             => 35              
  OPDM_IN_FILE         => 73              
  OPDM_OUT_FILE        => 76              
  PITZER               => FALSE           
  PRESORT_FILE         => 41              
  PRINT_LVL            => 1               
  PRINT_MOS            => FALSE           
  PRINT_OE_INTEGRALS   => FALSE           
  PRINT_REORDER        => FALSE           
  PRINT_SORTED_OE_INTS => FALSE           
  PRINT_SORTED_TE_INTS => FALSE           
  PRINT_TE_INTEGRALS   => FALSE           
  PSIMRCC              => FALSE           
  QRHF                 => FALSE           
  REFERENCE            => RHF            !
  REORDER              => FALSE           
  SOCC                 => [  ]            
  SORTED_TEI_FILE      => 72              
  SO_S_FILE            => 35              
  SO_TEI_FILE          => 72              
  SO_T_FILE            => 35              
  SO_V_FILE            => 35              
  TOLERANCE            => 14              
  TPDM_ADD_REF         => FALSE           
  TPDM_FILE            => 74              
  UNITS                => ANGSTROMS       
  WFN                  => CCSD           !


*** PSI4 called tstart() on mac8319.local
*** at Fri Nov  5 18:09:28 2010


	**************************************************
	* TRANSQT:  Program to transform integrals from  *
	*           the SO basis to the MO basis.        *
	*                                                *
	*            Daniel, David, & Justin             *
	*                   Sept  1995                   *
	**************************************************

	Input Parameters:
	-----------------
	Wavefunction           =  CCSD
	Reference orbitals     =  RHF
	Backtrans              =  Yes
	Print MOs              =  No
	Freeze Core            =  No
	Delete Restricted Docc =  No
	Do All TEI             =  No
	Memory (Mbytes)        =  256.0
	Max Buckets            =  499
	First Tmp File         =  150
	Presort File           =  41
	Source TEI File        =  74
	Opdm In File           =  73
	Opdm Out File          =  76
	Lag In File            =  75
	Keep Presort           =  No
	J File                 =  91
	Keep J                 =  No
	M File                 =  77
	Bare OEI file          =  35
	Frozen Core OEI file   =  35
	Sorted TEI file        =  72
	Delete TEI source file =  Yes
	Add TPDM Ref Part      =  No
	Do Bare OEI tranform   =  No
	Do FZC  OEI tranform   =  No
	Tolerance              =  1.0e-14
	Print Level            =  1
	Print TE Ints          =  No
	Print OE Ints          =  No
	Print Sorted TE Ints   =  No
	Print Sorted OE Ints   =  No
	Reorder MOs            =  No
	Check C Orthonormality =  No
	QRHF orbitals          =  No
	IVO orbitals           =  No
	Pitzer                 =  No

	Chkpt File Parameters:
	------------------
	Number of irreps = 4
	Number of SOs    = 25
	Number of MOs    = 25

	Label	# SOs	# MOs	# FZDC	# DOCC	# SOCC	# VIRT	# FZVR
	-----	-----	-----	------	------	------	------	------
	 A1 	   12	   12	    0	    3	    0	    9	    0
	 A2 	   2	   2	    0	    0	    0	    2	    0
	 B1 	   4	   4	    0	    1	    0	    3	    0
	 B2 	   7	   7	    0	    1	    0	    6	    0

	Nuclear Repulsion Energy    =         9.0772388468
	Total SCF Energy            =       -76.0219978763

	Pre-sorting two-electron ints...


	Frozen core energy =    0.000000000000000
	Transforming two-electron ints...

	Sorting half-transformed integrals...
	Finished half-transform...
	Working on second half...

	Transformation finished.
	Two-electron integrals written to file77.

	Transforming one-electron integrals...
	One-pdm and lagrangian written to file76.

*** PSI4 called tstop() on mac8319.local at Fri Nov  5 18:09:29 2010
	user time   =       0.69 seconds =       0.01 minutes
	system time =       0.56 seconds =       0.01 minutes
	total time  =          1 seconds =       0.02 minutes

  Job 10 is CINTS
printed from execute_bp


  Options:
  ----------------------------------------------------------------------------
  BASIS_PATH           => (empty)       CHARGE               => 0           
  CUTOFF               => 15            EMPIRICAL_DISPERSION => FALSE       
  ERI_FILE             => 33            FINE_STRUCTURE_ALPHA => 0.00729735  
  MAKE_ERI             => TRUE          MODE                 => (empty)     
  MULTP                => 1             NO_INPUT             => FALSE       
  NUM_THREADS          => 1             PRINT                => 1           
  RESTART              => FALSE         RESTART_TASK         => 0           
  S_FILE               => 35            T_FILE               => 35          
  UNITS                => ANGSTROMS     V_FILE               => 35          
  WFN                  => CCSD       !

*** PSI4 called tstart() on mac8319.local
*** at Fri Nov  5 18:09:29 2010

                  --------------------------------------------
                    CINTS: An integrals program written in C
                     Justin T. Fermann and Edward F. Valeev
                  --------------------------------------------

  -OPTIONS:
    Print level                 = 1
    Integral tolerance          = 1e-15
    Max. memory to use          = 2500000 double words
    Number of threads           = 1
    LIBINT's real type length   = 64 bit

  -CALCULATION CONSTANTS:
    Label                       = RHF CCSD GRADIENT
    Number of atoms             = 3
    Number of atomic orbitals   = 25
    Number of symmetry orbitals = 25
    Maximum AM in the basis     = 2
    Fine-structure alpha scaling =   0.0073

  -SYMMETRY INFORMATION;
    Computational point group        = C2v
    Number of irreps                 = 4
  Rotational invariance condition satisfied.
  |X cross Grad| =  0.000000000000   (it is the accuracy of the computed forces)
  So long..


  -CCSD forces in the reference frame (a.u.):
     Atom            X                  Y                   Z
    ------   -----------------  -----------------  -----------------
       1        0.000000000000     0.000000000000    -0.012246744489
       2        0.000000000000     0.005967567295     0.006123372244
       3        0.000000000000    -0.005967567295     0.006123372244


*** PSI4 called tstop() on mac8319.local at Fri Nov  5 18:09:29 2010
	user time   =       0.79 seconds =       0.01 minutes
	system time =       0.57 seconds =       0.01 minutes
	total time  =          0 seconds =       0.00 minutes

			----------------------------------
			 OPTKING: for geometry optimizations  
			  - R.A. King,  Bethel University   
			------------------------------------
	---Fragment 1 Bond Connectivity---
	 1 : 2 3
	 2 : 1
	 3 : 1

	---Fragment 1 Intrafragment Coordinates---
	 * Coordinate *           * BOHR/RAD *       * ANG/DEG *
	 R(1,2)           =         1.833034	       0.970000
	 R(1,3)           =         1.833034	       0.970000
	 A(2,1,3)         =         1.797689	     103.000000

	---Fragment 1 Geometry and Gradient---
	 O           0.0000000000        0.0000000000       -0.1277050126
	 H           0.0000000000        1.4345475237        1.0133856119
	 H          -0.0000000000       -1.4345475237        1.0133856119
	             0.0000000000        0.0000000000       -0.0122467445
	             0.0000000000        0.0059675673        0.0061233722
	             0.0000000000       -0.0059675673        0.0061233722

	Previous optimization step data not found.  Starting new optimization.

	Generating empirical Hessian (Schlegel '84)
	Following RFO solution 1.
	Projected energy change by RFO approximation:        -0.0001468800

	Back-transformation to cartesian coordinates...
	---------------------------------------------
	 Iter     RMS difference    MAX difference   
	---------------------------------------------
	    1        6.8e-05          1.1e-04
	    2        2.5e-09          2.6e-09
	---------------------------------------------

	Successfully converged to displaced geometry.

	---Internal Coordinate Step in ANG or DEG, aJ/ANG or AJ/DEG (3) ---
	 ----------------------------------------------------------------------
	 Coordinate             Previous        Force       Change         New 
	 ----------             --------       ------       ------       ------
	 R(1,2)          =      0.970000    -0.069882    -0.008405     0.961595
	 R(1,3)          =      0.970000    -0.069882    -0.008405     0.961595
	 A(2,1,3)        =    103.000000     0.000150     0.705853   103.705853
	 ----------------------------------------------------------------------

	Convergence Check Cycle    1:
	                    Actual        Tolerance     Converged?
	----------------------------------------------------------
	MAX Force           8.5e-03        3.0e-04          no
	Energy Change      -7.6e+01        1.0e-06          no
	MAX Displacement    1.6e-02        1.2e-03          no
	----------------------------------------------------------
Writing optimization data to psio file.
(    8.0000000000    0.0000000000    0.0000000000   -0.1152595236) 
(    1.0000000000    0.0000000000    1.4290587938    1.0071628674) 
(    1.0000000000    0.0000000000   -1.4290587938    1.0071628674) 
			--------------------------
			 OPTKING Finished Execution 
			--------------------------
    List of tasks to execute:
    cints
    cscf
    transqt2
    ccsort
    ccenergy
    cchbar
    cclambda
    ccdensity
    oeprop
    transqt to_ao
    cints deriv1

  Job 0 is CINTS
printed from execute_bp


  Options:
  ----------------------------------------------------------------------------
  BASIS_PATH           => (empty)       CHARGE               => 0           
  CUTOFF               => 15            EMPIRICAL_DISPERSION => FALSE       
  ERI_FILE             => 33            FINE_STRUCTURE_ALPHA => 0.00729735  
  MAKE_ERI             => TRUE          MODE                 => (empty)     
  MULTP                => 1             NO_INPUT             => FALSE       
  NUM_THREADS          => 1             PRINT                => 1           
  RESTART              => FALSE         RESTART_TASK         => 0           
  S_FILE               => 35            T_FILE               => 35          
  UNITS                => ANGSTROMS     V_FILE               => 35          
  WFN                  => CCSD       !

*** PSI4 called tstart() on mac8319.local
*** at Fri Nov  5 18:09:29 2010

                  --------------------------------------------
                    CINTS: An integrals program written in C
                     Justin T. Fermann and Edward F. Valeev
                  --------------------------------------------

  -OPTIONS:
    Print level                 = 1
    Integral tolerance          = 1e-15
    Max. memory to use          = 2500000 double words
    Number of threads           = 1
    LIBINT's real type length   = 64 bit

  -CALCULATION CONSTANTS:
    Label                       = RHF CCSD GRADIENT
    Number of atoms             = 3
    Number of atomic orbitals   = 25
    Number of symmetry orbitals = 25
    Maximum AM in the basis     = 2
    Fine-structure alpha scaling =   0.0073

  -SYMMETRY INFORMATION;
    Computational point group        = C2v
    Number of irreps                 = 4

    Wrote 13617 two-electron integrals to IWL file 33


    Wrote 186874 first-derivative ERIs to IWL files [200, 208]


*** PSI4 called tstop() on mac8319.local at Fri Nov  5 18:09:29 2010
	user time   =       1.04 seconds =       0.02 minutes
	system time =       0.59 seconds =       0.01 minutes
	total time  =          0 seconds =       0.00 minutes

  Job 1 is CSCF
printed from execute_bp


  Options:
  ----------------------------------------------------------------------------
  BASIS_PATH => (empty)      CHARGE     => 0          
  MULTP      => 1            NO_INPUT   => FALSE      
  UNITS      => ANGSTROMS  

*** PSI4 called tstart() on mac8319.local
*** at Fri Nov  5 18:09:29 2010

             ------------------------------------------

                CSCF3.0: An SCF program written in C

              Written by too many people to mention here

             ------------------------------------------

  I think the multiplicity is 1.
  If this is wrong, please specify the MULTP keyword

  label        = RHF CCSD gradient
  wfn          = CCSD
  reference    = RHF
  multiplicity = 1
  charge       = 0
  direct       = false
  dertype      = FIRST
  convergence  = 10
  maxiter      = 100
  guess        = AUTO

  nuclear repulsion energy        9.1548682224987

  using old vector from file30 as initial guess
  energy from old vector:   -76.02199788

  level shift                      = 0.100000

  level shifting will stop after 10 cycles
  diis scale factor                = 1.000000
  iterations before extrapolation  = 0
  6 error matrices will be kept

  keeping integrals in 114320 bytes of core

  The lowest eigenvalue of the overlap matrix was 2.202969e-02


  Using DOCC and SOCC to determine occupations


  Symmetry block:   A1    A2    B1    B2   
  DOCC:              3     0     1     1   
  SOCC:              0     0     0     0   

  reading integrals in the IWL format from files 33,35,36,37
  wrote 6516 integrals to file92

  iter       total energy        delta E         delta P          diiser
    1       -76.0227625611    8.517763e+01    0.000000e+00    0.000000e+00
    2       -76.0228119789    4.941786e-05    1.478025e-04    2.747326e-03
    3       -76.0228170139    5.034988e-06    4.099584e-05    1.302239e-03
    4       -76.0228181105    1.096568e-06    2.136330e-05    4.320238e-04
    5       -76.0228181983    8.784725e-08    7.894404e-06    1.165486e-04
    6       -76.0228182033    4.974609e-09    2.249454e-06    2.614423e-05
    7       -76.0228182035    1.853664e-10    4.261859e-07    3.748089e-06
    8       -76.0228182035    3.666401e-12    3.831866e-08    5.958105e-07
    9       -76.0228182035    1.705303e-13    9.371680e-09    1.528310e-07
   10       -76.0228182035    8.526513e-14    1.576087e-09    1.474708e-08
   11       -76.0228182035   -5.684342e-14    1.435616e-10    5.951931e-09
   12       -76.0228182035    0.000000e+00    7.847403e-11    1.416658e-09

 Correcting phases of orbitals.

Orbital energies (a.u.):

  Doubly occupied orbitals
   1A1    -20.561855     2A1     -1.338773     1B2     -0.699601  
   3A1     -0.569614     1B1     -0.497173  


  Unoccupied orbitals
   4A1      0.211060     2B2      0.303532     3B2      0.999268  
   5A1      1.085437     6A1      1.132288     2B1      1.168725  
   4B2      1.294649     7A1      1.416808     1A2      1.804938  
   8A1      1.811223     3B1      1.922343     9A1      2.565635  
   5B2      2.576809     6B2      2.797447     2A2      2.970004  
   4B1      2.990732    10A1      3.367728    11A1      3.699942  
   7B2      3.922979    12A1      4.102150  


      * SCF total energy   =     -76.022818203509
        kinetic energy     =      75.794777132454
        nuc. attr. energy  =    -198.816118366661
        elec. rep. energy  =      46.998523030697
        potential energy   =    -151.817595335964
        virial theorem     =       1.997000360202
        wavefunction norm  =       1.000000000000

*** PSI4 called tstop() on mac8319.local at Fri Nov  5 18:09:29 2010
	user time   =       1.05 seconds =       0.02 minutes
	system time =       0.59 seconds =       0.01 minutes
	total time  =          0 seconds =       0.00 minutes

  Job 2 is TRANSQT2
printed from execute_bp


  Options:
  ----------------------------------------------------------------------------
  AO_BASIS   => NONE         BASIS_PATH => (empty)    
  CACHELEV   => 2            CHARGE     => 0          
  DELETE_TEI => TRUE         DERTYPE    => FIRST     !
  MULTP      => 1            NO_INPUT   => FALSE      
  PRINT      => 1            PRINT_TEI  => FALSE      
  REFERENCE  => RHF       !  TOLERANCE  => 14         
  UNITS      => ANGSTROMS    WFN        => CCSD      !


*** PSI4 called tstart() on mac8319.local
*** at Fri Nov  5 18:09:29 2010


	**************************************************
	* TRANSQT2: Program to transform integrals from  *
	*           the SO basis to the MO basis.        *
	*                                                *
	*            Daniel, David, & Justin             *
	**************************************************


	Input parameters:
	-----------------
	Wave function   =	CCSD
	Backtransform   =	No
	Print Level     =	1
	Print TEIs      =	No
	Reference wfn   =	RHF
	Derivative      =	First
	Delete TEI File =	Yes
	Memory (Mbytes) =	100.0
	Cache Level     =	2
	Cache Type      =	LRU
	Chkpt Parameters:
	--------------------
	Number of irreps     = 4
	Number of SOs        = 25
	Number of MOs        = 25
	Number of active MOs = 25

	Label	# SOs	# FZDC	# DOCC	# SOCC	# VIRT	# FZVR
	-----	-----	------	------	------	------	------
	 A1 	   12	    0	    3	    0	    9	    0
	 A2 	   2	    0	    0	    0	    2	    0
	 B1 	   4	    0	    1	    0	    3	    0
	 B2 	   7	    0	    1	    0	    6	    0

	Nuclear Rep. energy (chkpt) =      9.15486822249873
	SCF energy          (chkpt) =    -76.02281820350949

	Presorting SO-basis two-electron integrals.
	Sorting File: SO Ints (pq,rs) nbuckets = 1
	Frozen-core energy =    0.000000000000000
	Starting first half-transformation.
	Sorting half-transformed integrals.
	Starting second half-transformation.
	Two-electron integral transformation complete.

*** PSI4 called tstop() on mac8319.local at Fri Nov  5 18:09:29 2010
	user time   =       1.07 seconds =       0.02 minutes
	system time =       0.61 seconds =       0.01 minutes
	total time  =          0 seconds =       0.00 minutes

  Job 3 is CCSORT
printed from execute_bp


  Options:
  ----------------------------------------------------------------------------
  AO_BASIS             => NONE            
  BASIS_PATH           => (empty)         
  CACHELEV             => 2               
  CHARGE               => 0               
  DERTYPE              => FIRST          !
  EOM_REFERENCE        => RHF             
  FREEZE_CORE          => FALSE           
  KEEP_OEIFILE         => FALSE           
  KEEP_TEIFILE         => FALSE           
  LOCAL                => FALSE           
  LOCAL_CORE_CUTOFF    => 0.05            
  LOCAL_CPHF_CUTOFF    => 0.1             
  LOCAL_CUTOFF         => 0.02            
  LOCAL_DOMAIN_MAG     => FALSE           
  LOCAL_DOMAIN_POLAR   => FALSE           
  LOCAL_DOMAIN_SEP     => FALSE           
  LOCAL_FILTER_SINGLES => FALSE           
  LOCAL_METHOD         => WERNER          
  LOCAL_PAIRDEF        => BP              
  LOCAL_WEAKP          => NONE            
  MULTP                => 1               
  NO_INPUT             => FALSE           
  OMEGA                => [  ]            
  PRINT                => 0               
  PROPERTY             => POLARIZABILITY  
  REFERENCE            => RHF            !
  TOLERANCE            => 14              
  UNITS                => ANGSTROMS       
  WFN                  => CCSD           !


*** PSI4 called tstart() on mac8319.local
*** at Fri Nov  5 18:09:29 2010


			**************************
			*                        *
			*         CCSORT         *
			*                        *
			**************************


	Input parameters:
	-----------------
	Wave function   =	CCSD
	Reference wfn   =	RHF
	Derivative      =	First
	Memory (Mbytes) =	256.0
	AO Basis        =	NONE
	Make (ab|cd)    =	True
	Make unpacked (ab|cd) =	True
	Cache Level     =	2
	Cache Type      =	LRU
	Local CC        =     No


	Chkpt Parameters:
	--------------------
	Number of irreps     = 4
	Number of MOs        = 25
	Number of active MOs = 25

	Label	# MOs	# FZDC	# DOCC	# SOCC	# VIRT	# FZVR
	-----	-----	------	------	------	------	------
	 A1 	   12	    0	    3	    0	    9	    0
	 A2 	   2	    0	    0	    0	    2	    0
	 B1 	   4	    0	    1	    0	    3	    0
	 B2 	   7	    0	    1	    0	    6	    0

	Nuclear Rep. energy (chkpt) =      9.15486822249873
	SCF energy          (chkpt) =    -76.02281820350949

	Size of irrep 0 of <ab|cd> integrals:      0.017 (MW) /      0.135 (MB)
	Size of irrep 1 of <ab|cd> integrals:      0.005 (MW) /      0.041 (MB)
	Size of irrep 2 of <ab|cd> integrals:      0.006 (MW) /      0.049 (MB)
	Size of irrep 3 of <ab|cd> integrals:      0.014 (MW) /      0.115 (MB)
	Total:                                     0.043 (MW) /      0.341 (MB)

	Size of irrep 0 of <ia|bc> integrals:      0.005 (MW) /      0.037 (MB)
	Size of irrep 1 of <ia|bc> integrals:      0.001 (MW) /      0.009 (MB)
	Size of irrep 2 of <ia|bc> integrals:      0.002 (MW) /      0.012 (MB)
	Size of irrep 3 of <ia|bc> integrals:      0.003 (MW) /      0.028 (MB)
	Total:                                     0.011 (MW) /      0.086 (MB)

	Size of irrep 0 of tijab amplitudes:       0.001 (MW) /      0.011 (MB)
	Size of irrep 1 of tijab amplitudes:       0.000 (MW) /      0.001 (MB)
	Size of irrep 2 of tijab amplitudes:       0.000 (MW) /      0.004 (MB)
	Size of irrep 3 of tijab amplitudes:       0.001 (MW) /      0.006 (MB)
	Total:                                     0.003 (MW) /      0.022 (MB)


	Sorting File: A <ij|kl> nbuckets = 1
	Sorting File: B <ab|cd> nbuckets = 1
	Sorting File: B(+) <ab|cd> nbuckets = 1
	Sorting File: C <ia|jb> nbuckets = 1
	Sorting File: D <ij|ab> nbuckets = 1
	Sorting File: E <ai|jk> nbuckets = 1
	Sorting File: F <ia|bc> nbuckets = 1
	Sorting File: F <ai|bc> nbuckets = 1
	One-electron energy          =   -123.02134123534731
	Two-electron (AA) energy     =     14.44298093919953
	Two-electron (BB) energy     =     14.44298093919953
	Two-electron (AB) energy     =     23.40067387013962
	Two-electron energy          =     37.84365480933914
	Frozen-core energy (transqt) =      0.00000000000000
	Reference energy             =    -76.02281820350943

*** PSI4 called tstop() on mac8319.local at Fri Nov  5 18:09:30 2010
	user time   =       1.10 seconds =       0.02 minutes
	system time =       0.64 seconds =       0.01 minutes
	total time  =          1 seconds =       0.02 minutes

  Job 4 is CCENERGY
printed from execute_bp


  Options:
  ----------------------------------------------------------------------------
  ABCD                => NEW             
  ANALYZE             => FALSE           
  AO_BASIS            => NONE            
  BASIS_PATH          => (empty)         
  BRUECKNER_CONV      => 5               
  CACHELEV            => 2               
  CACHETYPE           => LOW             
  CC_SCALE_OS         => 1.27            
  CC_SCALE_SS         => 1.13            
  CHARGE              => 0               
  CONVERGENCE         => 7               
  DERTYPE             => FIRST          !
  DIIS                => TRUE            
  FORCE_RESTART       => FALSE           
  FREEZE_CORE         => FALSE           
  LOCAL               => FALSE           
  LOCAL_CPHF_CUTOFF   => 0.1             
  LOCAL_CUTOFF        => 0.02            
  LOCAL_METHOD        => WERNER          
  LOCAL_MOS           => 0               
  LOCAL_PAIRDEF       => BP              
  LOCAL_WEAKP         => NONE            
  MAXITER             => 50              
  MP2_SCALE_OS        => 1.2             
  MP2_SCALE_SS        => 0.333333        
  MULTP               => 1               
  NEWTRIPS            => TRUE            
  NO_INPUT            => FALSE           
  NTHREADS            => 1               
  NUM_AMPS            => 10              
  PRINT               => 0               
  PRINT_MP2_AMPS      => FALSE           
  PRINT_PAIR_ENERGIES => FALSE           
  PROPERTY            => POLARIZABILITY  
  REFERENCE           => RHF            !
  RESTART             => TRUE            
  SCSN_MP2            => FALSE           
  SCS_CCSD            => FALSE           
  SCS_MP2             => FALSE           
  SPINADAPT_ENERGIES  => FALSE           
  T2_COUPLED          => FALSE           
  T3_WS_INCORE        => FALSE           
  UNITS               => ANGSTROMS       
  WFN                 => CCSD           !


*** PSI4 called tstart() on mac8319.local
*** at Fri Nov  5 18:09:30 2010

			**************************
			*                        *
			*        CCENERGY        *
			*                        *
			**************************

	Nuclear Rep. energy (chkpt)   =    9.154868222498731
	SCF energy          (chkpt)   =  -76.022818203509487
	Reference energy    (file100) =  -76.022818203509431

	Input parameters:
	-----------------
	Wave function   =     CCSD
	Reference wfn   =     RHF
	Memory (Mbytes) =     256.0
	Maxiter         =     50
	Convergence     =     1.0e-07
	Restart         =     Yes
	DIIS            =     Yes
	AO Basis        =     NONE
	ABCD            =     NEW
	Cache Level     =     2
	Cache Type      =     LOW
	Print Level     =     0
	Num. of threads =     1
	# Amps to Print =     10
	Print MP2 Amps? =     No
	Analyze T2 Amps =     No
	Print Pair Ener =     No
	Local CC        =     No
	SCS-MP2         =     False
	SCSN-MP2        =     False
	SCS-CCSD        =     False

	Using old T1 amplitudes.
	Using old T2 amplitudes.

	            Solving CC Amplitude Equations
	            ------------------------------
  Iter             Energy              RMS        T1Diag      D1Diag    New D1Diag
  ----     ---------------------    ---------   ----------  ----------  ----------
     0        -0.208851708603438    2.941e-08    0.005803    0.012514    0.012514
     1        -0.208398891857949    5.308e-03    0.005934    0.013070    0.013070
     2        -0.208398117006974    1.206e-03    0.005762    0.012505    0.012505
     3        -0.208362547908146    3.591e-04    0.005721    0.012360    0.012360
     4        -0.208354794464457    1.288e-04    0.005689    0.012234    0.012234
     5        -0.208353720127134    3.645e-05    0.005681    0.012192    0.012192
     6        -0.208354042699137    1.035e-05    0.005679    0.012179    0.012179
     7        -0.208354121267032    1.977e-06    0.005678    0.012177    0.012177
     8        -0.208354158891893    3.553e-07    0.005678    0.012177    0.012177
     9        -0.208354159700521    7.884e-08    0.005678    0.012177    0.012177

	Iterations converged.


	Largest TIA Amplitudes:
	          2   0         0.0104865399
	          3  11        -0.0065664601
	          4  14        -0.0062688211
	          4  18         0.0052532548
	          4  16         0.0046501207
	          1   2         0.0042833880
	          2   5        -0.0039592514
	          1   0        -0.0028591207
	          1   7         0.0023706699
	          2   1        -0.0022617371

	Largest TIjAb Amplitudes:
	  3   3  11  11        -0.0518800970
	  4   4  14  14        -0.0381960299
	  2   2   2   2        -0.0289863531
	  4   4  15  15        -0.0286683540
	  3   4  11  16        -0.0248107586
	  4   3  16  11        -0.0248107586
	  2   3   2  11         0.0246927194
	  3   2  11   2         0.0246927194
	  4   4  16  16        -0.0246705879
	  3   4  11  14        -0.0242465593

	SCF energy       (chkpt)              =  -76.022818203509487
	Reference energy (file100)            =  -76.022818203509431

	Opposite-spin MP2 correlation energy  =   -0.149429157724599
	Same-spin MP2 correlation energy      =   -0.050199554927347
	MP2 correlation energy                =   -0.199628712651947
      * MP2 total energy                      =  -76.222446916161374

	Opposite-spin CCSD correlation energy =   -0.163785172357862
	Same-spin CCSD correlation energy     =   -0.044568987342587
	CCSD correlation energy               =   -0.208354159700521
      * CCSD total energy                     =  -76.231172363209950


*** PSI4 called tstop() on mac8319.local at Fri Nov  5 18:09:34 2010
	user time   =       1.33 seconds =       0.02 minutes
	system time =       0.86 seconds =       0.01 minutes
	total time  =          4 seconds =       0.07 minutes

  Job 5 is CCHBAR
printed from execute_bp


  Options:
  ----------------------------------------------------------------------------
  BASIS_PATH    => (empty)      CACHELEV      => 2          
  CHARGE        => 0            DERTYPE       => FIRST     !
  EOM_REFERENCE => RHF          MULTP         => 1          
  NO_INPUT      => FALSE        PRINT         => 0          
  TAMPLITUDE    => FALSE        UNITS         => ANGSTROMS  
  WABEI_LOWDISK => FALSE        WFN           => CCSD      !


*** PSI4 called tstart() on mac8319.local
*** at Fri Nov  5 18:09:34 2010


			**************************
			*                        *
			*         CCHBAR         *
			*                        *
			**************************


*** PSI4 called tstop() on mac8319.local at Fri Nov  5 18:09:34 2010
	user time   =       1.36 seconds =       0.02 minutes
	system time =       0.90 seconds =       0.02 minutes
	total time  =          0 seconds =       0.00 minutes

  Job 6 is CCLAMBDA
printed from execute_bp


  Options:
  ----------------------------------------------------------------------------
  ABCD                 => NEW          AO_BASIS             => NONE       
  BASIS_PATH           => (empty)      CACHELEV             => 2          
  CHARGE               => 0            CONVERGENCE          => 7          
  DERTYPE              => FIRST     !  DIIS                 => TRUE       
  FREEZE_CORE          => FALSE        JOBTYPE              => OPT       !
  LOCAL                => FALSE        LOCAL_CPHF_CUTOFF    => 0.1        
  LOCAL_CUTOFF         => 0.02         LOCAL_FILTER_SINGLES => TRUE       
  LOCAL_METHOD         => WERNER       LOCAL_PAIRDEF        => (empty)    
  LOCAL_WEAKP          => NONE         MAXITER              => 50         
  MULTP                => 1            NO_INPUT             => FALSE      
  NUM_AMPS             => 10           PRINT                => 0          
  PROP_ALL             => FALSE        PROP_ROOT            => 1          
  PROP_SYM             => 1            RESTART              => FALSE      
  SEKINO               => FALSE        STATES_PER_IRREP     => [  ]       
  UNITS                => ANGSTROMS    WFN                  => CCSD      !


*** PSI4 called tstart() on mac8319.local
*** at Fri Nov  5 18:09:34 2010


			**************************
			*        CCLAMBDA        *
			**************************


	Nuclear Rep. energy (chkpt)   =    9.154868222498731
	Reference           (chkpt)   = 0
	SCF energy          (chkpt)   =  -76.022818203509487
	Reference energy    (CC_INFO) =  -76.022818203509431
	CCSD energy         (CC_INFO) =   -0.208354159700521
	Total CCSD energy   (CC_INFO) =  -76.231172363209950

	Input parameters:
	-----------------
	Maxiter       =      50
	Convergence   = 1.0e-07
	Restart       =     No
	Cache Level   =     2
	Model III     =     No
	DIIS          =     Yes
	AO Basis      =     No
	ABCD            =     NEW
	Local CC        =     No
	Paramaters for left-handed eigenvectors:
	    Irr   Root  Ground-State?    EOM energy        R0
	  1   0     0        Yes       0.0000000000   1.0000000000
	Labels for eigenvector 1:
	LIA 0 -1, Lia 0 -1, LIJAB 0 -1, Lijab 0 -1, LIjAb 0 -1, 2LIjAb - LIjbA 0 -1
	Symmetry of left-hand state: A1 
	Symmetry of left-hand eigenvector: A1 

	          Solving Lambda Equations
	          ------------------------
	Iter     PseudoEnergy or Norm         RMS  
	----     ---------------------     --------
	   0        -0.208390741083759    9.017e-08
	   1        -0.205901944683537    7.970e-03
	   2        -0.205479746700786    1.317e-03
	   3        -0.205396127458855    6.049e-04
	   4        -0.205389749657113    2.004e-04
	   5        -0.205393301704265    6.080e-05
	   6        -0.205393281213065    1.459e-05
	   7        -0.205393362196185    3.274e-06
	   8        -0.205393390446754    4.975e-07
	   9        -0.205393388485758    8.465e-08

	Largest LIA Amplitudes:
	          2   0         0.0069794019
	          4  16         0.0048526962
	          4  18         0.0045368442
	          3  11        -0.0038981442
	          2   5        -0.0035251093
	          4  14        -0.0031674458
	          1   2         0.0031626888
	          1   3        -0.0024527585
	          1   7         0.0021770465
	          4  15         0.0020554592

	Largest LIjAb Amplitudes:
	  3   3  11  11        -0.0515994661
	  4   4  14  14        -0.0373195785
	  2   2   2   2        -0.0286169360
	  4   4  15  15        -0.0279584133
	  3   4  11  16        -0.0246238640
	  4   3  16  11        -0.0246238640
	  2   3   2  11         0.0245416392
	  3   2  11   2         0.0245416392
	  4   4  16  16        -0.0244169857
	  3   4  11  14        -0.0239889066

	Iterations converged.

	Overlap <L|e^T> =        0.94337468283

*** PSI4 called tstop() on mac8319.local at Fri Nov  5 18:09:35 2010
	user time   =       1.46 seconds =       0.02 minutes
	system time =       0.99 seconds =       0.02 minutes
	total time  =          1 seconds =       0.02 minutes

  Job 7 is CCDENSITY
printed from execute_bp


  Options:
  ----------------------------------------------------------------------------
  AEL              => FALSE        AO_BASIS         => NONE       
  BASIS_PATH       => (empty)      CACHELEV         => 2          
  CHARGE           => 0            CONNECT_XI       => FALSE      
  DERTYPE          => FIRST     !  GAUGE            => LENGTH     
  MULTP            => 1            NO_INPUT         => FALSE      
  PROP_ALL         => FALSE        PROP_ROOT        => 0          
  PROP_SYM         => 0            REFERENCE        => RHF       !
  RELAX_OPDM       => FALSE        STATES_PER_IRREP => [  ]       
  TOLERANCE        => 14           UNITS            => ANGSTROMS  
  WFN              => CCSD      !

*** PSI4 called tstart() on mac8319.local
*** at Fri Nov  5 18:09:35 2010


			**************************
[...]
  PRINT_NOS            => FALSE           
  QED_DARWIN           => FALSE           
  READ_OPDM            => TRUE            
  REFERENCE            => RHF            !
  ROOT                 => 1               
  SOCC                 => [  ]            
  SPIN_PROP            => FALSE           
  TRANSITION_DENSITY   => FALSE           
  UNITS                => ANGSTROMS       
  WFN                  => CCSD           !
  WRTNOS               => FALSE           
  ZVEC_FILE            => 0               


*** PSI4 called tstart() on mac8319.local
*** at Fri Nov  5 18:09:43 2010

    **********************************************
    *                    OEPROP                  *
    *          A simple property program         *
    *              by a big TOOL fan             *
    **********************************************


  TASKS to be performed :
    $One-particle density in MO basis in SQUARE form will be read from file73.
    $Only electric dipole moment will be computed.
    $Reference point for the electric multipole moments calculation is 
      the center of mass.
    $Reference point for the electric angular momentum calculation is 
      at (0.000000 0.000000 0.000000)
    $Electrostatic properties at the nuclei will be evaluated.

  Title : 'RHF CCSD GRADIENT'

  List of PARAMETERS :
    # of atoms                 =      3
    # of molecular orbitals    =     25
    # of basis functions       =     25
    # of atomic orbitals       =     25
    # of irreps                =      4
    Total charge               =      0
    # of unique shells         =     12
    # of primitives            =     20
    Print level                =      1

  List of GRID PARAMETERS :
    GRID_ORIGIN                =	(  0.00000  0.00000  0.00000 )
    GRID_STEP_X                =	(  0.00000  0.00000  0.00000 )
    GRID_STEP_Y                =	(  0.00000  0.00000  0.00000 )
    NIX                        =	  11
    NIY                        =	  11
    GRID_ZMIN                  =	   0.00000
    GRID_ZMAX                  =	   3.00000

	Densities available up to root 1
	** Analyzing density number 1 **
 --------------------------------------------------------------
   ** Mulliken population analysis of one-particle density **
 --------------------------------------------------------------

 -Gross orbital populations :

  Center   AO          L          Q(AO)
  ------  ----        ---      -----------
     1      1          0        1.99515659
     1      2          0        0.89829336
     1      3          0        0.90602989
     1      4          1        1.12413955
     1      5          1        0.80491779
     1      6          1        0.93098069
     1      7          1        0.84116570
     1      8          1        0.44727943
     1      9          1        0.64113843
     1     10          2        0.00193110
     1     11          2        0.00494508
     1     12          2        0.00691172
     1     13          2        0.00795387
     1     14          2        0.01836960
     1     15          2        0.00086238
     2     16          0        0.49360089
     2     17          0        0.14953755
     2     18          1        0.01167599
     2     19          1        0.01644597
     2     20          1        0.01370202
     3     21          0        0.49360089
     3     22          0        0.14953755
     3     23          1        0.01167599
     3     24          1        0.01644597
     3     25          1        0.01370202


 -Atomic bond populations :

                 1            2            3

    1    7.1258441    0.2870296    0.2870296
    2    0.2870296    0.3543081   -0.0262296
    3    0.2870296   -0.0262296    0.3543081




 -Gross atomic populations and net charges :

    Center    Atomic Population    Net Charge
    ------    -----------------    ----------
       1            8.630075        -0.630075
       2            0.684962        +0.315038
       3            0.684962        +0.315038


 --------------------------------------------------------------
                *** Electric multipole moments ***
 --------------------------------------------------------------

 -Coordinates of the reference point (a.u.) :
           x                     y                     z
  --------------------  --------------------  --------------------
          0.0000000000          0.0000000000          0.0132019910

 -Electric dipole moment (expectation values) :

    mu(X)  =   0.00000 D  =   0.00000000e+00 C*m  =   0.00000000 a.u.
    mu(Y)  =  -0.00000 D  =  -8.08918358e-46 C*m  =  -0.00000000 a.u.
    mu(Z)  =   2.08977 D  =   6.97071821e-30 C*m  =   0.82217787 a.u.
    |mu|   =   2.08977 D  =   6.97071821e-30 C*m  =   0.82217787 a.u.


 --------------------------------------------------------------
              *** Electronic angular momentum ***
 --------------------------------------------------------------

 -Coordinates of the reference point (a.u.) :
           x                     y                     z
  --------------------  --------------------  --------------------
          0.0000000000         -0.0000000000         -0.0396059730

 -Electronic angular momentum (expectation values) :

    Lx  =   0.00000000 a.u.
    Ly  =   0.00000000 a.u.
    Lz  =   0.00000000 a.u.


 --------------------------------------------------------------
      *** Electrostatic  properties at atomic centers ***
 --------------------------------------------------------------

 -Coordinates of atomic centers (a.u.):
    #   Charge           x                     y                     z
   ---  ------  --------------------  --------------------  --------------------
    1      8            0.0000000000          0.0000000000         -0.1118396699
    2      1            0.0000000000          1.4317422163          1.0054529406
    3      1            0.0000000000         -1.4317422163          1.0054529406


 -Electrostatic potential and electric field (a.u.) :

    Center         phi            Ex             Ey           Ez
    ------    ------------   ------------  ------------  ------------
       1      -22.29670760     0.00000000    0.00000000   -0.12551066
       2       -1.01171087     0.00000000    0.01742904    0.00658719
       3       -1.01171087     0.00000000   -0.01742904    0.00658719


 -Electric field gradient (regular form) (a.u.):

    Center           XX                    YY                    ZZ
    ------  --------------------  --------------------  --------------------
       1          -1214.84529971        -1218.15945595        -1216.87876636
       2             -1.42685548           -1.95195279           -1.76060801
       3             -1.42685548           -1.95195279           -1.76060801

    Center           XY                    XZ                    YZ
    ------  --------------------  --------------------  --------------------
       1              0.00000000            0.00000000            0.00000000
       2              0.00000000            0.00000000            1.60060820
       3              0.00000000            0.00000000           -1.60060820


 -Electric field gradient (traceless tensor form) (a.u.):

    Center        XX - RR/3             YY - RR/3             ZZ - RR/3
    ------  --------------------  --------------------  --------------------
       1              1.78254096           -1.53161528           -0.25092569
       2              0.28628328           -0.23881403           -0.04746925
       3              0.28628328           -0.23881403           -0.04746925

    Center           XY                    XZ                    YZ
    ------  --------------------  --------------------  --------------------
       1              0.00000000            0.00000000            0.00000000
       2              0.00000000            0.00000000            1.60060820
       3              0.00000000            0.00000000           -1.60060820


 -Electron density (a.u.):

    Center           rho
    ------  --------------------
       1            290.44850212
       2              0.40898175
       3              0.40898175


 --------------------------------------------------------------
                *** Miscellaneous properties ***
 --------------------------------------------------------------

 -Relativistic MVD one-electron corrections to the energy (a.u.):

    Mass-velocity (p^4) term     :   -0.245451284469430
    One-electron Darwin term     :   0.194429688805371
    Total one-electron MVD terms :   -0.051021595664059


*** PSI4 called tstop() on mac8319.local at Fri Nov  5 18:09:43 2010
	user time   =       2.47 seconds =       0.04 minutes
	system time =       1.62 seconds =       0.03 minutes
	total time  =          0 seconds =       0.00 minutes

  Job 9 is TRANSQT
printed from execute_bp


  Options:
  ----------------------------------------------------------------------------
  AA_M_FILE            => 81              
  AB_M_FILE            => 83              
  AO_BASIS             => NONE            
  BASIS_PATH           => (empty)         
  BB_M_FILE            => 82              
  CHARGE               => 0               
  CHECK_C_ORTHONORM    => FALSE           
  DELETE_AO            => TRUE            
  DELETE_RESTR_DOCC    => TRUE            
  DELETE_TPDM          => TRUE            
  DERTYPE              => FIRST          !
  DOCC                 => [ 3, 0, 1, 1 ] !
  DO_ALL_TEI           => FALSE           
  FIRST_TMP_FILE       => 150             
  FREEZE_CORE          => FALSE           
  FZC_A_FILE           => 35              
  FZC_B_FILE           => 35              
  FZC_FILE             => 35              
  IVO                  => FALSE           
  J_FILE               => 91              
  KEEP_J               => FALSE           
  KEEP_PRESORT         => FALSE           
  LAGRAN_DOUBLE        => FALSE           
  LAGRAN_HALVE         => FALSE           
  LAG_IN_FILE          => 75              
  MAX_BUCKETS          => 499             
  MODE                 => TO_MO           
  MOORDER              => [  ]            
  MP2R12A              => MP2R12AERI      
  MULTP                => 1               
  M_FILE               => 0               
  NO_INPUT             => FALSE           
  OEI_A_FILE           => 35              
  OEI_B_FILE           => 35              
  OEI_FILE             => 35              
  OPDM_IN_FILE         => 73              
  OPDM_OUT_FILE        => 76              
  PITZER               => FALSE           
  PRESORT_FILE         => 41              
  PRINT_LVL            => 1               
  PRINT_MOS            => FALSE           
  PRINT_OE_INTEGRALS   => FALSE           
  PRINT_REORDER        => FALSE           
  PRINT_SORTED_OE_INTS => FALSE           
  PRINT_SORTED_TE_INTS => FALSE           
  PRINT_TE_INTEGRALS   => FALSE           
  PSIMRCC              => FALSE           
  QRHF                 => FALSE           
  REFERENCE            => RHF            !
  REORDER              => FALSE           
  SOCC                 => [  ]            
  SORTED_TEI_FILE      => 72              
  SO_S_FILE            => 35              
  SO_TEI_FILE          => 72              
  SO_T_FILE            => 35              
  SO_V_FILE            => 35              
  TOLERANCE            => 14              
  TPDM_ADD_REF         => FALSE           
  TPDM_FILE            => 74              
  UNITS                => ANGSTROMS       
  WFN                  => CCSD           !


*** PSI4 called tstart() on mac8319.local
*** at Fri Nov  5 18:09:43 2010


	**************************************************
	* TRANSQT:  Program to transform integrals from  *
	*           the SO basis to the MO basis.        *
	*                                                *
	*            Daniel, David, & Justin             *
	*                   Sept  1995                   *
	**************************************************

	Input Parameters:
	-----------------
	Wavefunction           =  CCSD
	Reference orbitals     =  RHF
	Backtrans              =  Yes
	Print MOs              =  No
	Freeze Core            =  No
	Delete Restricted Docc =  No
	Do All TEI             =  No
	Memory (Mbytes)        =  256.0
	Max Buckets            =  499
	First Tmp File         =  150
	Presort File           =  41
	Source TEI File        =  74
	Opdm In File           =  73
	Opdm Out File          =  76
	Lag In File            =  75
	Keep Presort           =  No
	J File                 =  91
	Keep J                 =  No
	M File                 =  77
	Bare OEI file          =  35
	Frozen Core OEI file   =  35
	Sorted TEI file        =  72
	Delete TEI source file =  Yes
	Add TPDM Ref Part      =  No
	Do Bare OEI tranform   =  No
	Do FZC  OEI tranform   =  No
	Tolerance              =  1.0e-14
	Print Level            =  1
	Print TE Ints          =  No
	Print OE Ints          =  No
	Print Sorted TE Ints   =  No
	Print Sorted OE Ints   =  No
	Reorder MOs            =  No
	Check C Orthonormality =  No
	QRHF orbitals          =  No
	IVO orbitals           =  No
	Pitzer                 =  No

	Chkpt File Parameters:
	------------------
	Number of irreps = 4
	Number of SOs    = 25
	Number of MOs    = 25

	Label	# SOs	# MOs	# FZDC	# DOCC	# SOCC	# VIRT	# FZVR
	-----	-----	-----	------	------	------	------	------
	 A1 	   12	   12	    0	    3	    0	    9	    0
	 A2 	   2	   2	    0	    0	    0	    2	    0
	 B1 	   4	   4	    0	    1	    0	    3	    0
	 B2 	   7	   7	    0	    1	    0	    6	    0

	Nuclear Repulsion Energy    =         9.1592999516
	Total SCF Energy            =       -76.0228866695

	Pre-sorting two-electron ints...


	Frozen core energy =    0.000000000000000
	Transforming two-electron ints...

	Sorting half-transformed integrals...
	Finished half-transform...
	Working on second half...

	Transformation finished.
	Two-electron integrals written to file77.

	Transforming one-electron integrals...
	One-pdm and lagrangian written to file76.

*** PSI4 called tstop() on mac8319.local at Fri Nov  5 18:09:43 2010
	user time   =       2.53 seconds =       0.04 minutes
	system time =       1.65 seconds =       0.03 minutes
	total time  =          0 seconds =       0.00 minutes

  Job 10 is CINTS
printed from execute_bp


  Options:
  ----------------------------------------------------------------------------
  BASIS_PATH           => (empty)       CHARGE               => 0           
  CUTOFF               => 15            EMPIRICAL_DISPERSION => FALSE       
  ERI_FILE             => 33            FINE_STRUCTURE_ALPHA => 0.00729735  
  MAKE_ERI             => TRUE          MODE                 => (empty)     
  MULTP                => 1             NO_INPUT             => FALSE       
  NUM_THREADS          => 1             PRINT                => 1           
  RESTART              => FALSE         RESTART_TASK         => 0           
  S_FILE               => 35            T_FILE               => 35          
  UNITS                => ANGSTROMS     V_FILE               => 35          
  WFN                  => CCSD       !

*** PSI4 called tstart() on mac8319.local
*** at Fri Nov  5 18:09:43 2010

                  --------------------------------------------
                    CINTS: An integrals program written in C
                     Justin T. Fermann and Edward F. Valeev
                  --------------------------------------------

  -OPTIONS:
    Print level                 = 1
    Integral tolerance          = 1e-15
    Max. memory to use          = 2500000 double words
    Number of threads           = 1
    LIBINT's real type length   = 64 bit

  -CALCULATION CONSTANTS:
    Label                       = RHF CCSD GRADIENT
    Number of atoms             = 3
    Number of atomic orbitals   = 25
    Number of symmetry orbitals = 25
    Maximum AM in the basis     = 2
    Fine-structure alpha scaling =   0.0073

  -SYMMETRY INFORMATION;
    Computational point group        = C2v
    Number of irreps                 = 4
  Rotational invariance condition satisfied.
  |X cross Grad| =  0.000000000000   (it is the accuracy of the computed forces)
  So long..


  -CCSD forces in the reference frame (a.u.):
     Atom            X                  Y                   Z
    ------   -----------------  -----------------  -----------------
       1        0.000000000000     0.000000000000    -0.000001978178
       2        0.000000000000     0.000087080572     0.000000989089
       3        0.000000000000    -0.000087080572     0.000000989089


*** PSI4 called tstop() on mac8319.local at Fri Nov  5 18:09:43 2010
	user time   =       2.63 seconds =       0.04 minutes
	system time =       1.65 seconds =       0.03 minutes
	total time  =          0 seconds =       0.00 minutes

			----------------------------------
			 OPTKING: for geometry optimizations  
			  - R.A. King,  Bethel University   
			------------------------------------
	---Fragment 1 Bond Connectivity---
	 1 : 2 3
	 2 : 1
	 3 : 1

	---Fragment 1 Intrafragment Coordinates---
	 * Coordinate *           * BOHR/RAD *       * ANG/DEG *
	 R(1,2)           =         1.816103	       0.961040
	 R(1,3)           =         1.816103	       0.961040
	 A(2,1,3)         =         1.816277	     104.064986

	---Fragment 1 Geometry and Gradient---
	 O           0.0000000000        0.0000000000       -0.1118396699
	 H           0.0000000000        1.4317422163        1.0054529406
	 H           0.0000000000       -1.4317422163        1.0054529406
	             0.0000000000        0.0000000000       -0.0000019782
	             0.0000000000        0.0000870806        0.0000009891
	             0.0000000000       -0.0000870806        0.0000009891


	Performing BFGS update with previous 2 gradient(s).
	Following RFO solution 1.
	Projected energy change by RFO approximation:        -0.0000000326

	Back-transformation to cartesian coordinates...
	---------------------------------------------
	 Iter     RMS difference    MAX difference   
	---------------------------------------------
	    1        5.4e-08          6.3e-08
	---------------------------------------------

	Successfully converged to displaced geometry.

	---Internal Coordinate Step in ANG or DEG, aJ/ANG or AJ/DEG (3) ---
	 ----------------------------------------------------------------------
	 Coordinate             Previous        Force       Change         New 
	 ----------             --------       ------       ------       ------
	 R(1,2)          =      0.961040    -0.000571    -0.000057     0.960983
	 R(1,3)          =      0.961040    -0.000571    -0.000057     0.960983
	 A(2,1,3)        =    104.064986    -0.000007    -0.030099   104.034887
	 ----------------------------------------------------------------------

	Convergence Check Cycle    3:
	                    Actual        Tolerance     Converged?
	----------------------------------------------------------
	MAX Force           9.6e-05        3.0e-04         yes
	Energy Change      -5.1e-06        1.0e-06          no
	MAX Displacement    5.3e-04        1.2e-03         yes
	----------------------------------------------------------
	 *** Geometry is converged!

	            ****  Optimization Summary  ****
	----------------------------------------------------------------------------
	 Step         Energy             Delta(E)      MAX force    MAX Delta(q)  
	----------------------------------------------------------------------------
	   1    -76.230988855700    -76.230988855700    8.48e-03     8.48e-03
	   2    -76.231172363200     -0.000183507500    9.20e-04     9.20e-04
	   3    -76.231177460100     -0.000005096900    9.59e-05     9.59e-05
	----------------------------------------------------------------------

Writing optimization data to psio file.
			--------------------------
			 OPTKING Finished Execution 
			--------------------------
psiclean: Cleaning up files.
