    -----------------------------------------------------------------------
          PSI4: An Open-Source Ab Initio Electronic Structure Package
                              PSI 4.0.0-alpha Driver
    T. D. Crawford, C. D. Sherrill, E. F. Valeev, J. T. Fermann, R. A. King,
    M. L. Leininger, S. T. Brown, C. L. Janssen, E. T. Seidl, J. P. Kenny,
    and W. D. Allen, J. Comput. Chem. 28, 1610-1616 (2007)

                         Additional Contributions by
    Francesco Evangelista, Andrew Simmonett, Justin Turney, Jeremy Wilke
    -----------------------------------------------------------------------


    Using LocalCommunicator (Number of processes = 1)

    Memory level set to 256.000 MB
    Job type         = OPT
    Wavefunction     = CCSD
    Reference        = RHF
    Derivative type  = FIRST
    Calculation type = CCSD:RHF:FIRST


  Options:
  ----------------------------------------------------------------------------
  BASIS_FILE                => (empty)            
  CHKPT_GEOM                => FALSE              
  CHKPT_MOS                 => FALSE              
  EXPERT                    => FALSE              
  FRAGMENT_DISTANCE_INVERSE => FALSE              
  FREEZE_CORE               => FALSE              
  FREEZE_VIRT               => 0                  
  GEOMDAT                   => FALSE              
  KEEP_CHKPT                => FALSE              
  KEEP_OUTPUT               => FALSE              
  KEEP_REF_FRAME            => FALSE              
  LABEL                     => RHF CCSD GRADIENT !
  NFRAGMENTS                => 1                  
  NOPROJECT                 => FALSE              
  NORMALIZE                 => TRUE               
  NO_COM_SHIFT              => FALSE              
  NO_REORIENT               => FALSE              
  PRINT                     => 1                  
  PUREAM                    => FALSE              
  SAVE_MOS                  => FALSE              
  SHOWNORM                  => FALSE              
  SUBGROUP                  => (empty)            
  UNIQUE_AXIS               => (empty)            
  UNITS                     => ANGSTROMS          
  WFN                       => CCSD              !


*** PSI4 called tstart() on mac8319.local
*** at Thu Aug 12 14:40:37 2010

                                --------------
                                    INPUT
                                --------------

  LABEL       =	RHF CCSD GRADIENT
  SHOWNORM    =	0
  PUREAM      =	0
  PRINT_LVL   =	1

  Parsed basis sets from /usr/local/psi4/share/psi/pbasis.dat
Coordinates after reading z-matrices

           1           2           3

    1   0.0000000   0.0000000   0.0000000
    2   0.0000000   0.0000000   1.8330342
    3   1.7860537   0.0000000  -0.4123430

  -Geometry before Center-of-Mass shift (a.u.):
   Atom            X                  Y                   Z
  ------   -----------------  -----------------  -----------------
    O         0.000000000000     0.000000000000     0.000000000000
    H         0.000000000000     0.000000000000     1.833034208922
    H         1.786053660900     0.000000000000    -0.412342977945


  -Rotational constants (cm-1) :
    A =   25.82761  B =   14.51273  C =    9.29167
    It is an asymmetric top.

  -Geometry after Center-of-Mass shift and reorientation (a.u.):
   Atom            X                  Y                   Z
  ------   -----------------  -----------------  -----------------
    O         0.000000000000    -0.127705012634     0.000000000000
    H         1.434547523692     1.013385611877     0.000000000000
    H        -1.434547523692     1.013385611877    -0.000000000000


  -SYMMETRY INFORMATION:
    Computational point group is C2v 
    Number of irr. rep.      = 4
    Number of atoms          = 3
    Number of unique atoms   = 2

  Primary Basis:

  -BASIS SETS:

   -Basis set on unique center 1:
      ( (S (  5484.67166000     0.00183107)
           (   825.23494600     0.01395017)
           (   188.04695800     0.06844508)
           (    52.96450000     0.23271434)
           (    16.89757040     0.47019290)
           (     5.79963534     0.35852085) )
        (S (    15.53961625    -0.11077755)
           (     3.59993359    -0.14802626)
           (     1.01376175     1.13076701) )
        (S (     0.27000582     1.00000000) )
        (P (    15.53961625     0.07087427)
           (     3.59993359     0.33975284)
           (     1.01376175     0.72715858) )
        (P (     0.27000582     1.00000000) )
        (D (     0.80000000     1.00000000) )
       )

   -Basis set on unique center 2:
      ( (S (    18.73113696     0.03349460)
           (     2.82539437     0.23472695)
           (     0.64012169     0.81375733) )
        (S (     0.16127776     1.00000000) )
        (P (     1.10000000     1.00000000) )
       )


  -BASIS SET INFORMATION:
    Total number of shells = 12
    Number of primitives   = 20
    Number of AO           = 25
    Number of SO           = 25

    Irrep    Number of SO
    -----    ------------
      1           12
      2            2
      3            4
      4            7

  -Contraction Scheme:
    Atom     All Primitives // Unique Primitives // Shells
    ----     ---------------------------------------------
       1      10s 4p 1d //  10s 1d //  3s 2p 1d
       2      4s 1p //  4s 1p //  2s 1p
       3      4s 1p //  4s 1p //  2s 1p


  -Unique atoms in the canonical coordinate system (a.u.):
   Atom            X                  Y                   Z
  ------   -----------------  -----------------  -----------------
    O         0.000000000000     0.000000000000    -0.127705012634
    H         0.000000000000     1.434547523692     1.013385611877


  -Geometry in the canonical coordinate system (a.u.):
   Atom            X                  Y                   Z
  ------   -----------------  -----------------  -----------------
    O         0.000000000000     0.000000000000    -0.127705012634
    H         0.000000000000     1.434547523692     1.013385611877
    H        -0.000000000000    -1.434547523692     1.013385611877


  -Geometry in the canonical coordinate system (Angstrom):
   Atom            X                  Y                   Z
  ------   -----------------  -----------------  -----------------
    O         0.000000000000     0.000000000000    -0.067578587269
    H         0.000000000000     0.759129912147     0.536260610269
    H        -0.000000000000    -0.759129912147     0.536260610269


  -Geometry in the reference coordinate system (a.u.):
   Atom            X                  Y                   Z
  ------   -----------------  -----------------  -----------------
    O         0.000000000000     0.000000000000    -0.127705012634
    H         0.000000000000     1.434547523692     1.013385611877
    H        -0.000000000000    -1.434547523692     1.013385611877


  --------------------------------------------------------------------------

    Nuclear Repulsion Energy (a.u.) =       9.077238846804

  -The Interatomic Distances in angstroms:

           1           2           3

    1   0.0000000
    2   0.9700000   0.0000000
    3   0.9700000   1.5182598   0.0000000

    Note: To print *all* bond angles, out-of-plane
          angles, and torsion angles set print = 3



*** PSI4 called tstop() on mac8319.local at Thu Aug 12 14:40:37 2010
	user time   =       0.08 seconds =       0.00 minutes
	system time =       0.01 seconds =       0.00 minutes
	total time  =          0 seconds =       0.00 minutes
    List of tasks to execute:
    cints
    cscf
    transqt2
    ccsort
    ccenergy
    cchbar
    cclambda
    ccdensity
    oeprop
    transqt to_ao
    cints deriv1

  Job 0 is CINTS


  Options:
  ----------------------------------------------------------------------------
  CUTOFF               => 15            EMPIRICAL_DISPERSION => FALSE       
  ERI_FILE             => 33            FINE_STRUCTURE_ALPHA => 0.00729735  
  MAKE_ERI             => TRUE          MODE                 => (empty)     
  NUM_THREADS          => 1             PRINT                => 1           
  RESTART              => FALSE         RESTART_TASK         => 0           
  S_FILE               => 35            T_FILE               => 35          
  V_FILE               => 35            WFN                  => CCSD       !


*** PSI4 called tstart() on mac8319.local
*** at Thu Aug 12 14:40:37 2010

                  --------------------------------------------
                    CINTS: An integrals program written in C
                     Justin T. Fermann and Edward F. Valeev
                  --------------------------------------------

  -OPTIONS:
    Print level                 = 1
    Integral tolerance          = 1e-15
    Max. memory to use          = 2500000 double words
    Number of threads           = 1
    LIBINT's real type length   = 64 bit

  -CALCULATION CONSTANTS:
    Label                       = RHF CCSD GRADIENT
    Number of atoms             = 3
    Number of atomic orbitals   = 25
    Number of symmetry orbitals = 25
    Maximum AM in the basis     = 2
    Fine-structure alpha scaling =   0.0073

  -SYMMETRY INFORMATION;
    Computational point group        = C2v
    Number of irreps                 = 4

    Wrote 13617 two-electron integrals to IWL file 33


*** PSI4 called tstop() on mac8319.local at Thu Aug 12 14:40:37 2010
	user time   =       0.09 seconds =       0.00 minutes
	system time =       0.01 seconds =       0.00 minutes
	total time  =          0 seconds =       0.00 minutes

  Job 1 is CSCF


  Options:
  ----------------------------------------------------------------------------


*** PSI4 called tstart() on mac8319.local
*** at Thu Aug 12 14:40:37 2010

             ------------------------------------------

                CSCF3.0: An SCF program written in C

              Written by too many people to mention here

             ------------------------------------------

  I think the multiplicity is 1.
  If this is wrong, please specify the MULTP keyword

  label        = RHF CCSD gradient
  wfn          = CCSD
  reference    = RHF
  multiplicity = 1
  charge       = 0
  direct       = false
  dertype      = FIRST
  convergence  = 10
  maxiter      = 100
  guess        = AUTO

  nuclear repulsion energy        9.0772388468036
  first run, so defaulting to core-hamiltonian guess

  level shift                      = 0.100000

  level shifting will stop after 10 cycles
  diis scale factor                = 1.000000
  iterations before extrapolation  = 0
  6 error matrices will be kept

  keeping integrals in 114320 bytes of core

  The lowest eigenvalue of the overlap matrix was 2.230864e-02


  Using DOCC and SOCC to determine occupations


  Symmetry block:   A1    A2    B1    B2   
  DOCC:              3     0     1     1   
  SOCC:              0     0     0     0   

  reading integrals in the IWL format from files 33,35,36,37
  wrote 6516 integrals to file92

  iter       total energy        delta E         delta P          diiser
    1       -68.2945751265    7.737181e+01    0.000000e+00    0.000000e+00
    2       -71.3448673106    3.050292e+00    1.461731e-01    1.190466e+00
    3       -75.8740206500    4.529153e+00    1.386292e-01    8.573611e-01
    4       -76.0127771706    1.387565e-01    3.571875e-03    1.989130e-01
    5       -76.0218018537    9.024683e-03    1.255711e-03    4.393924e-02
    6       -76.0219748189    1.729652e-04    1.594762e-04    1.118920e-02
    7       -76.0219974063    2.258741e-05    7.979152e-05    3.902789e-03
    8       -76.0219978577    4.514294e-07    1.227064e-05    2.893048e-04
    9       -76.0219978753    1.754036e-08    3.631956e-06    6.228041e-05
   10       -76.0219978763    1.006882e-09    9.827202e-07    1.132714e-05
   11       -76.0219978763    2.330580e-11    1.193354e-07    1.728025e-06
   12       -76.0219978763    2.458478e-12    5.349900e-08    5.148786e-07
   13       -76.0219978763   -1.421085e-14    2.824306e-09    3.877380e-08
   14       -76.0219978763    2.842171e-14    6.149916e-10    1.019689e-08
   15       -76.0219978763    0.000000e+00    1.063461e-10    4.573083e-09
   16       -76.0219978763    0.000000e+00    1.439428e-11    2.909392e-10

Orbital energies (a.u.):

  Doubly occupied orbitals
   1A1    -20.563756     2A1     -1.335128     1B2     -0.693868  
   3A1     -0.569546     1B1     -0.496894  


  Unoccupied orbitals
   4A1      0.209148     2B2      0.301190     3B2      0.992987  
   5A1      1.080901     6A1      1.131133     2B1      1.168613  
   4B2      1.294487     7A1      1.418370     1A2      1.805555  
   8A1      1.805556     3B1      1.919426     9A1      2.554725  
   5B2      2.571406     6B2      2.778746     2A2      2.955797  
   4B1      2.985114    10A1      3.349725    11A1      3.681199  
   7B2      3.913091    12A1      4.093637  


      * SCF total energy   =     -76.021997876298
        kinetic energy     =      75.764070728969
        nuc. attr. energy  =    -198.644160740606
        elec. rep. energy  =      46.858092135338
        potential energy   =    -151.786068605268
        virial theorem     =       1.996607203776
        wavefunction norm  =       1.000000000000

*** PSI4 called tstop() on mac8319.local at Thu Aug 12 14:40:37 2010
	user time   =       0.10 seconds =       0.00 minutes
	system time =       0.01 seconds =       0.00 minutes
	total time  =          0 seconds =       0.00 minutes

  Job 2 is TRANSQT2


  Options:
  ----------------------------------------------------------------------------
  AO_BASIS   => NONE       CACHELEV   => 2          DELETE_TEI => TRUE     
  DERTYPE    => FIRST   !  PRINT      => 1          PRINT_TEI  => FALSE    
  REFERENCE  => RHF     !  TOLERANCE  => 14         WFN        => CCSD    !


*** PSI4 called tstart() on mac8319.local
*** at Thu Aug 12 14:40:37 2010


	**************************************************
	* TRANSQT2: Program to transform integrals from  *
	*           the SO basis to the MO basis.        *
	*                                                *
	*            Daniel, David, & Justin             *
	**************************************************


	Input parameters:
	-----------------
	Wave function   =	CCSD
	Backtransform   =	No
	Print Level     =	1
	Print TEIs      =	No
	Reference wfn   =	RHF
	Derivative      =	First
	Delete TEI File =	Yes
	Memory (Mbytes) =	100.0
	Cache Level     =	2
	Cache Type      =	LRU
	Chkpt Parameters:
	--------------------
	Number of irreps     = 4
	Number of SOs        = 25
	Number of MOs        = 25
	Number of active MOs = 25

	Label	# SOs	# FZDC	# DOCC	# SOCC	# VIRT	# FZVR
	-----	-----	------	------	------	------	------
	 A1 	   12	    0	    3	    0	    9	    0
	 A2 	   2	    0	    0	    0	    2	    0
	 B1 	   4	    0	    1	    0	    3	    0
	 B2 	   7	    0	    1	    0	    6	    0

	Nuclear Rep. energy (chkpt) =      9.07723884680363
	SCF energy          (chkpt) =    -76.02199787629843

	Presorting SO-basis two-electron integrals.
	Sorting File: SO Ints (pq,rs) nbuckets = 1
	Frozen-core energy =    0.000000000000000
	Starting first half-transformation.
	Sorting half-transformed integrals.
	Starting second half-transformation.
	Two-electron integral transformation complete.

*** PSI4 called tstop() on mac8319.local at Thu Aug 12 14:40:37 2010
	user time   =       0.11 seconds =       0.00 minutes
	system time =       0.03 seconds =       0.00 minutes
	total time  =          0 seconds =       0.00 minutes

  Job 3 is CCSORT


  Options:
  ----------------------------------------------------------------------------
  AO_BASIS             => NONE            
  CACHELEV             => 2               
  DERTYPE              => FIRST          !
  EOM_REFERENCE        => RHF             
  FREEZE_CORE          => NONE            
  KEEP_OEIFILE         => FALSE           
  KEEP_TEIFILE         => FALSE           
  LOCAL                => FALSE           
  LOCAL_CORE_CUTOFF    => 0.05            
  LOCAL_CPHF_CUTOFF    => 0.1             
  LOCAL_CUTOFF         => 0.02            
  LOCAL_DOMAIN_MAG     => FALSE           
  LOCAL_DOMAIN_POLAR   => FALSE           
  LOCAL_DOMAIN_SEP     => FALSE           
  LOCAL_FILTER_SINGLES => FALSE           
  LOCAL_METHOD         => WERNER          
  LOCAL_PAIRDEF        => BP              
  LOCAL_WEAKP          => NONE            
  OMEGA                => [  ]            
  PRINT                => 0               
  PROPERTY             => POLARIZABILITY  
  REFERENCE            => RHF            !
  TOLERANCE            => 14              
  WFN                  => CCSD           !


*** PSI4 called tstart() on mac8319.local
*** at Thu Aug 12 14:40:37 2010


			**************************
			*                        *
			*         CCSORT         *
			*                        *
			**************************


	Input parameters:
	-----------------
	Wave function   =	CCSD
	Reference wfn   =	RHF
	Derivative      =	First
	Memory (Mbytes) =	256.0
	AO Basis        =	NONE
	Make (ab|cd)    =	True
	Make unpacked (ab|cd) =	True
	Cache Level     =	2
	Cache Type      =	LRU
	Local CC        =     No


	Chkpt Parameters:
	--------------------
	Number of irreps     = 4
	Number of MOs        = 25
	Number of active MOs = 25

	Label	# MOs	# FZDC	# DOCC	# SOCC	# VIRT	# FZVR
	-----	-----	------	------	------	------	------
	 A1 	   12	    0	    3	    0	    9	    0
	 A2 	   2	    0	    0	    0	    2	    0
	 B1 	   4	    0	    1	    0	    3	    0
	 B2 	   7	    0	    1	    0	    6	    0

	Nuclear Rep. energy (chkpt) =      9.07723884680363
	SCF energy          (chkpt) =    -76.02199787629843

	Size of irrep 0 of <ab|cd> integrals:      0.017 (MW) /      0.135 (MB)
	Size of irrep 1 of <ab|cd> integrals:      0.005 (MW) /      0.041 (MB)
	Size of irrep 2 of <ab|cd> integrals:      0.006 (MW) /      0.049 (MB)
	Size of irrep 3 of <ab|cd> integrals:      0.014 (MW) /      0.115 (MB)
	Total:                                     0.043 (MW) /      0.341 (MB)

	Size of irrep 0 of <ia|bc> integrals:      0.005 (MW) /      0.037 (MB)
	Size of irrep 1 of <ia|bc> integrals:      0.001 (MW) /      0.009 (MB)
	Size of irrep 2 of <ia|bc> integrals:      0.002 (MW) /      0.012 (MB)
	Size of irrep 3 of <ia|bc> integrals:      0.003 (MW) /      0.028 (MB)
	Total:                                     0.011 (MW) /      0.086 (MB)

	Size of irrep 0 of tijab amplitudes:       0.001 (MW) /      0.011 (MB)
	Size of irrep 1 of tijab amplitudes:       0.000 (MW) /      0.001 (MB)
	Size of irrep 2 of tijab amplitudes:       0.000 (MW) /      0.004 (MB)
	Size of irrep 3 of tijab amplitudes:       0.001 (MW) /      0.006 (MB)
	Total:                                     0.003 (MW) /      0.022 (MB)


	Sorting File: A <ij|kl> nbuckets = 1
	Sorting File: B <ab|cd> nbuckets = 1
	Sorting File: B(+) <ab|cd> nbuckets = 1
	Sorting File: C <ia|jb> nbuckets = 1
	Sorting File: D <ij|ab> nbuckets = 1
	Sorting File: E <ai|jk> nbuckets = 1
	Sorting File: F <ia|bc> nbuckets = 1
	Sorting File: F <ai|bc> nbuckets = 1
	One-electron energy          =   -122.88009001187018
	Two-electron (AA) energy     =     14.41616333314054
	Two-electron (BB) energy     =     14.41616333314054
	Two-electron (AB) energy     =     23.36468995562764
	Two-electron energy          =     37.78085328876818
	Frozen-core energy (transqt) =      0.00000000000000
	Reference energy             =    -76.02199787629839

*** PSI4 called tstop() on mac8319.local at Thu Aug 12 14:40:37 2010
	user time   =       0.14 seconds =       0.00 minutes
	system time =       0.06 seconds =       0.00 minutes
	total time  =          0 seconds =       0.00 minutes

  Job 4 is CCENERGY


  Options:
  ----------------------------------------------------------------------------
  ABCD                => NEW             
  ANALYZE             => FALSE           
  AO_BASIS            => NONE            
  BRUECKNER_CONV      => 5               
  CACHELEV            => 2               
  CACHETYPE           => LOW             
  CC_SCALE_OS         => 1.27            
  CC_SCALE_SS         => 1.13            
  CONVERGENCE         => 7               
  DERTYPE             => FIRST           
  DIIS                => TRUE            
  FORCE_RESTART       => FALSE           
  FREEZE_CORE         => FALSE           
  LOCAL               => FALSE           
  LOCAL_CPHF_CUTOFF   => 0.1             
  LOCAL_CUTOFF        => 0.02            
  LOCAL_METHOD        => WERNER          
  LOCAL_MOS           => 0               
  LOCAL_PAIRDEF       => BP              
  LOCAL_WEAKP         => NONE            
  MAXITER             => 50              
  MP2_SCALE_OS        => 1.2             
  MP2_SCALE_SS        => 0.333333        
  NEWTRIPS            => TRUE            
  NTHREADS            => 1               
  NUM_AMPS            => 10              
  PRINT               => 0               
  PRINT_MP2_AMPS      => FALSE           
  PRINT_PAIR_ENERGIES => FALSE           
  PROPERTY            => POLARIZABILITY  
  REFERENCE           => RHF            !
  RESTART             => TRUE            
  SCSN_MP2            => FALSE           
  SCS_CCSD            => FALSE           
  SCS_MP2             => FALSE           
  SPINADAPT_ENERGIES  => FALSE           
  T2_COUPLED          => FALSE           
  T3_WS_INCORE        => FALSE           
  WFN                 => CCSD            


*** PSI4 called tstart() on mac8319.local
*** at Thu Aug 12 14:40:37 2010

			**************************
			*                        *
			*        CCENERGY        *
			*                        *
			**************************

	Nuclear Rep. energy (chkpt)   =    9.077238846803628
	SCF energy          (chkpt)   =  -76.021997876298428
	Reference energy    (file100) =  -76.021997876298386

	Input parameters:
	-----------------
	Wave function   =     CCSD
	Reference wfn   =     RHF
	Memory (Mbytes) =     256.0
	Maxiter         =     50
	Convergence     =     1.0e-07
	Restart         =     Yes
	DIIS            =     Yes
	AO Basis        =     NONE
	ABCD            =     NEW
	Cache Level     =     2
	Cache Type      =     LOW
	Print Level     =     0
	Num. of threads =     1
	# Amps to Print =     10
	Print MP2 Amps? =     No
	Analyze T2 Amps =     No
	Print Pair Ener =     No
	Local CC        =     No
	SCS-MP2         =     False
	SCSN-MP2        =     False
	SCS-CCSD        =     False

	            Solving CC Amplitude Equations
	            ------------------------------
  Iter             Energy              RMS        T1Diag      D1Diag    New D1Diag
  ----     ---------------------    ---------   ----------  ----------  ----------
     0        -0.200284583173948    0.000e+00    0.000000    0.000000    0.000000
     1        -0.204524502075002    2.733e-02    0.004508    0.008904    0.008904
     2        -0.208454935199261    9.794e-03    0.005161    0.010333    0.010333
     3        -0.208976352651959    2.795e-03    0.005693    0.011917    0.011917
     4        -0.208980674127093    6.466e-04    0.005747    0.012228    0.012228
     5        -0.208995515133577    2.053e-04    0.005786    0.012422    0.012422
     6        -0.208991614392825    6.453e-05    0.005799    0.012493    0.012493
     7        -0.208991056570570    1.565e-05    0.005803    0.012511    0.012511
     8        -0.208991037417512    2.937e-06    0.005803    0.012514    0.012514
     9        -0.208990960559508    7.070e-07    0.005803    0.012514    0.012514
    10        -0.208990980781139    1.507e-07    0.005803    0.012514    0.012514
    11        -0.208990979379472    2.941e-08    0.005803    0.012514    0.012514

	Iterations converged.


	Largest TIA Amplitudes:
	          2   0         0.0108429989
	          3  11        -0.0066539437
	          4  14        -0.0062968525
	          4  18         0.0053909624
	          4  16         0.0049115255
	          1   2         0.0043626426
	          2   5        -0.0040679843
	          1   0        -0.0026726467
	          1   7         0.0023396374
	          2   1        -0.0022229009

	Largest TIjAb Amplitudes:
	  3   3  11  11        -0.0518990452
	  4   4  14  14        -0.0394129106
	  2   2   2   2        -0.0298937778
	  4   4  15  15        -0.0287516509
	  2   3   2  11         0.0252441039
	  3   2  11   2         0.0252441039
	  3   4  11  16        -0.0248319597
	  4   3  16  11        -0.0248319597
	  4   4  16  16        -0.0246255003
	  3   4  11  14        -0.0244548465

	SCF energy       (chkpt)              =  -76.021997876298428
	Reference energy (file100)            =  -76.021997876298386

	Opposite-spin MP2 correlation energy  =   -0.149954963249766
	Same-spin MP2 correlation energy      =   -0.050329619924182
	MP2 correlation energy                =   -0.200284583173948
      * MP2 total energy                      =  -76.222282459472339

	Opposite-spin CCSD correlation energy =   -0.164400075252514
	Same-spin CCSD correlation energy     =   -0.044590904126920
	CCSD correlation energy               =   -0.208990979379472
      * CCSD total energy                     =  -76.230988855677865


*** PSI4 called tstop() on mac8319.local at Thu Aug 12 14:40:42 2010
	user time   =       0.40 seconds =       0.01 minutes
	system time =       0.31 seconds =       0.01 minutes
	total time  =          5 seconds =       0.08 minutes

  Job 5 is CCHBAR


  Options:
  ----------------------------------------------------------------------------
  CACHELEV      => 2          DERTYPE       => FIRST   !
  EOM_REFERENCE => RHF        PRINT         => 0        
  TAMPLITUDE    => FALSE      WABEI_LOWDISK => FALSE    
  WFN           => CCSD    !

*** PSI4 called tstart() on mac8319.local
*** at Thu Aug 12 14:40:42 2010


			**************************
			*                        *
			*         CCHBAR         *
			*                        *
			**************************


*** PSI4 called tstop() on mac8319.local at Thu Aug 12 14:40:42 2010
	user time   =       0.43 seconds =       0.01 minutes
	system time =       0.35 seconds =       0.01 minutes
	total time  =          0 seconds =       0.00 minutes

  Job 6 is CCLAMBDA


  Options:
  ----------------------------------------------------------------------------
  ABCD                 => NEW        AO_BASIS             => FALSE    
  CACHELEV             => 2          CONVERGENCE          => 7        
  DERTYPE              => FIRST   !  DIIS                 => TRUE     
  FREEZE_CORE          => FALSE      JOBTYPE              => OPT     !
  LOCAL                => FALSE      LOCAL_CPHF_CUTOFF    => 0.1      
  LOCAL_CUTOFF         => 0.02       LOCAL_FILTER_SINGLES => TRUE     
  LOCAL_METHOD         => WERNER     LOCAL_PAIRDEF        => (empty)  
  LOCAL_WEAKP          => NONE       MAXITER              => 50       
  NUM_AMPS             => 10         PRINT                => 0        
  PROP_ALL             => FALSE      PROP_ROOT            => 1        
  PROP_SYM             => 1          RESTART              => FALSE    
  SEKINO               => FALSE      STATES_PER_IRREP     => [  ]     
  WFN                  => CCSD    !

*** PSI4 called tstart() on mac8319.local
*** at Thu Aug 12 14:40:42 2010


			**************************
			*        CCLAMBDA        *
			**************************


	Nuclear Rep. energy (chkpt)   =    9.077238846803628
	Reference           (chkpt)   = 0
	SCF energy          (chkpt)   =  -76.021997876298428
	Reference energy    (CC_INFO) =  -76.021997876298386
	CCSD energy         (CC_INFO) =   -0.208990979379472
	Total CCSD energy   (CC_INFO) =  -76.230988855677865

	Input parameters:
	-----------------
	Maxiter       =      50
	Convergence   = 1.0e-07
	Restart       =     No
	Cache Level   =     2
	Model III     =     No
	DIIS          =     Yes
	AO Basis      =     No
	ABCD            =     NEW
	Local CC        =     No
	Paramaters for left-handed eigenvectors:
	    Irr   Root  Ground-State?    EOM energy        R0
	  1   0     0        Yes       0.0000000000   1.0000000000
	Labels for eigenvector 1:
	LIA 0 -1, Lia 0 -1, LIJAB 0 -1, Lijab 0 -1, LIjAb 0 -1, 2LIjAb - LIjbA 0 -1
	Symmetry of left-hand state: A1 
	Symmetry of left-hand eigenvector: A1 

	          Solving Lambda Equations
	          ------------------------
	Iter     PseudoEnergy or Norm         RMS  
	----     ---------------------     --------
	   0        -0.209027786977453    0.000e+00
	   1        -0.206495151796727    7.993e-03
	   2        -0.206067352571806    1.345e-03
	   3        -0.205981807555467    6.208e-04
	   4        -0.205975115136720    2.062e-04
	   5        -0.205978815277432    6.254e-05
	   6        -0.205978783013926    1.506e-05
	   7        -0.205978870950216    3.417e-06
	   8        -0.205978900421594    5.200e-07
	   9        -0.205978898467433    9.017e-08

	Largest LIA Amplitudes:
	          2   0         0.0072417840
	          4  16         0.0050589414
	          4  18         0.0046513000
	          3  11        -0.0039991745
	          2   5        -0.0036194743
	          1   2         0.0032129567
	          4  14        -0.0031907780
	          1   3        -0.0025293234
	          1   7         0.0021477525
	          4  15         0.0021208235

	Largest LIjAb Amplitudes:
	  3   3  11  11        -0.0516330659
	  4   4  14  14        -0.0384957106
	  2   2   2   2        -0.0295153732
	  4   4  15  15        -0.0280304863
	  2   3   2  11         0.0250935208
	  3   2  11   2         0.0250935208
	  3   4  11  16        -0.0246412000
	  4   3  16  11        -0.0246412000
	  4   4  16  16        -0.0243635767
	  3   4  11  14        -0.0241957706

	Iterations converged.

	Overlap <L|e^T> =        0.94273433760

*** PSI4 called tstop() on mac8319.local at Thu Aug 12 14:40:43 2010
	user time   =       0.52 seconds =       0.01 minutes
	system time =       0.45 seconds =       0.01 minutes
	total time  =          1 seconds =       0.02 minutes

  Job 7 is CCDENSITY


  Options:
  ----------------------------------------------------------------------------
  AEL              => FALSE      AO_BASIS         => FALSE    
  CACHELEV         => 2          CONNECT_XI       => FALSE    
  DERTYPE          => FIRST   !  GAUGE            => LENGTH   
  PROP_ALL         => FALSE      PROP_ROOT        => 0        
  PROP_SYM         => 0          REFERENCE        => RHF     !
  RELAX_OPDM       => FALSE      STATES_PER_IRREP => [  ]     
  TOLERANCE        => 14         WFN              => CCSD    !


*** PSI4 called tstart() on mac8319.local
*** at Thu Aug 12 14:40:43 2010


			**************************
			*                        *
			*        CCDENSITY       *
			*                        *
			**************************


	Input parameters:
	-----------------
	Wave function    =   CCSD
	Reference wfn    =   RHF
	Tolerance        = 1.0e-14
	Cache Level      = 2
	AO Basis         = No
	OPDM Only        = No
	Relax OPDM       = No
	Compute Xi       = No
	Use Zeta         = No
	Xi connected     = No

	Nuclear Rep. energy (chkpt)   =    9.077238846803628
	SCF energy          (chkpt)   =  -76.021997876298428
	Reference energy    (file100) =  -76.021997876298386
	CCSD energy         (CC_INFO) =   -0.208990979379472
	Total CCSD energy   (CC_INFO) =  -76.230988855677865
	Number of States = 1

	Ground?  State     EOM Energy       R0
	  Yes     0A1     0.0000000000   1.00000000

	Energies re-computed from CC density:
	-------------------------------------
	One-electron energy        =    0.221186770616809
	IJKL energy                =    0.041993248479873
	IJKA energy                =   -0.001393402795598
	IJAB energy                =   -0.412136965721247
	IBJA energy                =   -0.101198069309178
	CIAB energy                =   -0.000203578046853
	ABCD energy                =    0.042761017134952
	Total two-electron energy  =   -0.430177750258051
	CCSD correlation energy    =   -0.208990979641242
	Total CCSD energy          =  -76.230988855939628

	Virial Theorem Data:
	--------------------
	Kinetic energy (ref)   =   75.764070729469410
	Kinetic energy (corr)  =    0.151616947049739
	Kinetic energy (total) =   75.915687676519156
	-V/T (ref)             =    2.003404346471165
	-V/T (corr)            =    2.378414375478167
	-V/T (total)           =    2.004153307291403

	Energies re-computed from Fock-adjusted CC density:
	---------------------------------------------------
	One-electron energy        =    0.258019450878554
	IJKL energy                =   -0.672858072916463
	IJKA energy                =   -0.059474667415514
	IJAB energy                =   -0.412136965721247
	IBJA energy                =    0.634901836445330
	CIAB energy                =   -0.000203578046853
	ABCD energy                =    0.042761017134952
	Total two-electron energy  =   -0.467010430519795
	CCSD correlation energy    =   -0.208990979641241
	Total CCSD energy          =  -76.230988855939628

	Energies re-computed from Mulliken density:
	-------------------------------------------
	One-electron energy        =    0.258019450878554
	IJKL energy                =   -0.672858072916463
	IJKA energy                =   -0.059474667415514
	IJAB energy                =   -0.381058765741879
	IBJA energy                =    0.603823636465961
	CIAB energy                =   -0.000203578046853
	ABCD energy                =    0.042761017134952
	Total two-electron energy  =   -0.467010430519795
	CCSD correlation energy    =   -0.208990979641242
	Total CCSD energy          =  -76.230988855939628

*** PSI4 called tstop() on mac8319.local at Thu Aug 12 14:40:43 2010
	user time   =       0.60 seconds =       0.01 minutes
	system time =       0.54 seconds =       0.01 minutes
	total time  =          0 seconds =       0.00 minutes

  Job 8 is OEPROP


  Options:
  ----------------------------------------------------------------------------
  ASYMM_OPDM           => FALSE           
  CORREL_CORR          => 0               
  DELETE_ZVEC          => 0               
  DOCC                 => [ 3, 0, 1, 1 ] !
  EDGRAD_LOGSCALE      => 5               
  FINE_STRUCTURE_ALPHA => 1               
  FREEZE_CORE          => FALSE           
  GRID                 => 0               
  GRID_FORMAT          => (empty)         
  GRID_ORIGIN          => 0               
  GRID_UNIT_X          => 0               
  GRID_XY0             => [  ]            
  GRID_XY1             => [  ]            
  GRID_XYZ0            => [  ]            
  GRID_XYZ1            => [  ]            
  GRID_ZMAX            => 3               
  GRID_ZMIN            => 0               
  LM_REF_XYZ           => [  ]            
  MO_TO_PLOT           => (empty)         
  MPMAX                => 1               
  MP_REF               => 0               
  MP_REF_XYZ           => [  ]            
  NIX                  => 0               
  NIY                  => 0               
  NIZ                  => 0               
  NUC_ESP              => TRUE            
  NUM_ROOTS            => 1               
  OPDM_BASIS           => MO              
  OPDM_FILE            => 0               
  OPDM_FORMAT          => SQUARE          
  PRINT                => 1               
  PRINT_NOS            => FALSE           
  QED_DARWIN           => FALSE           
  READ_OPDM            => TRUE            
  REFERENCE            => RHF            !
  ROOT                 => 1               
  SOCC                 => [  ]            
  SPIN_PROP            => FALSE           
  TRANSITION_DENSITY   => FALSE           
  WFN                  => CCSD           !
  WRTNOS               => FALSE           
  ZVEC_FILE            => 0               


*** PSI4 called tstart() on mac8319.local
*** at Thu Aug 12 14:40:43 2010

    **********************************************
    *                    OEPROP                  *
    *          A simple property program         *
    *              by a big TOOL fan             *
    **********************************************


  TASKS to be performed :
    $One-particle density in MO basis in SQUARE form will be read from file73.
    $Only electric dipole moment will be computed.
    $Reference point for the electric multipole moments calculation is 
      the center of mass.
    $Reference point for the electric angular momentum calculation is 
      at (0.000000 0.000000 0.000000)
    $Electrostatic properties at the nuclei will be evaluated.

  Title : 'RHF CCSD GRADIENT'

  List of PARAMETERS :
    # of atoms                 =      3
    # of molecular orbitals    =     25
    # of basis functions       =     25
    # of atomic orbitals       =     25
    # of irreps                =      4
    Total charge               =      0
    # of unique shells         =     12
    # of primitives            =     20
    Print level                =      1

  List of GRID PARAMETERS :
    GRID_ORIGIN                =	(  0.00000  0.00000  0.00000 )
    GRID_STEP_X                =	(  0.00000  0.00000  0.00000 )
    GRID_STEP_Y                =	(  0.00000  0.00000  0.00000 )
    NIX                        =	  11
    NIY                        =	  11
    GRID_ZMIN                  =	   0.00000
    GRID_ZMAX                  =	   3.00000

	Densities available up to root 1
	** Analyzing density number 1 **
 --------------------------------------------------------------
   ** Mulliken population analysis of one-particle density **
 --------------------------------------------------------------

 -Gross orbital populations :

  Center   AO          L          Q(AO)
  ------  ----        ---      -----------
     1      1          0        1.99517542
     1      2          0        0.90059193
     1      3          0        0.91088284
     1      4          1        1.12486154
     1      5          1        0.80206002
     1      6          1        0.92416372
     1      7          1        0.84108607
     1      8          1        0.45175846
     1      9          1        0.63755169
     1     10          2        0.00184622
     1     11          2        0.00493574
     1     12          2        0.00689728
     1     13          2        0.00801968
     1     14          2        0.01843603
     1     15          2        0.00123426
     2     16          0        0.48944658
     2     17          0        0.15482958
     2     18          1        0.01135443
     2     19          1        0.01606458
     2     20          1        0.01355438
     3     21          0        0.48944658
     3     22          0        0.15482958
     3     23          1        0.01135443
     3     24          1        0.01606458
     3     25          1        0.01355438


 -Atomic bond populations :

           1           2           3

    1   7.1310685   0.2831807   0.2831807
    2   0.2831807   0.3569489  -0.0262363
    3   0.2831807  -0.0262363   0.3569489


 -Gross atomic populations and net charges :

    Center    Atomic Population    Net Charge
    ------    -----------------    ----------
       1            8.629501        -0.629501
       2            0.685250        +0.314750
       3            0.685250        +0.314750


 --------------------------------------------------------------
                *** Electric multipole moments ***
 --------------------------------------------------------------

 -Coordinates of the reference point (a.u.) :
           x                     y                     z
  --------------------  --------------------  --------------------
          0.0000000000         -0.0000000000         -0.0000000000

 -Electric dipole moment (expectation values) :

    mu(X)  =  -0.00000 D  =  -1.04989967e-45 C*m  =  -0.00000000 a.u.
    mu(Y)  =   0.00000 D  =   1.25014655e-45 C*m  =   0.00000000 a.u.
    mu(Z)  =   2.10875 D  =   7.03404097e-30 C*m  =   0.82964662 a.u.
    |mu|   =   2.10875 D  =   7.03404097e-30 C*m  =   0.82964662 a.u.


 --------------------------------------------------------------
              *** Electronic angular momentum ***
 --------------------------------------------------------------

 -Coordinates of the reference point (a.u.) :
           x                     y                     z
  --------------------  --------------------  --------------------
          0.0000000000          0.0000000000          0.0000000000

 -Electronic angular momentum (expectation values) :

    Lx  =   0.00000000 a.u.
    Ly  =   0.00000000 a.u.
    Lz  =   0.00000000 a.u.


 --------------------------------------------------------------
      *** Electrostatic  properties at atomic centers ***
 --------------------------------------------------------------

 -Coordinates of atomic centers (a.u.):
    #   Charge           x                     y                     z
   ---  ------  --------------------  --------------------  --------------------
    1      8            0.0000000000          0.0000000000         -0.1277050126
    2      1            0.0000000000          1.4345475237          1.0133856119
    3      1           -0.0000000000         -1.4345475237          1.0133856119


 -Electrostatic potential and electric field (a.u.) :

    Center         phi            Ex             Ey           Ez
    ------    ------------   ------------  ------------  ------------
       1      -22.29516584     0.00000000   -0.00000000   -0.12459314
       2       -1.01097690     0.00000000    0.01132203    0.00035653
       3       -1.01097690    -0.00000000   -0.01132203    0.00035653


 -Electric field gradient (regular form) (a.u.):

    Center           XX                    YY                    ZZ
    ------  --------------------  --------------------  --------------------
       1          -1214.93112063        -1218.26026032        -1217.03123468
       2             -1.41920952           -1.91069647           -1.74021568
       3             -1.41920952           -1.91069647           -1.74021568

    Center           XY                    XZ                    YZ
    ------  --------------------  --------------------  --------------------
       1              0.00000000           -0.00000000            0.00000000
       2             -0.00000000           -0.00000000            1.57565613
       3             -0.00000000            0.00000000           -1.57565613


 -Electric field gradient (traceless tensor form) (a.u.):

    Center        XX - RR/3             YY - RR/3             ZZ - RR/3
    ------  --------------------  --------------------  --------------------
       1              1.80975125           -1.51938845           -0.29036280
       2              0.27083104           -0.22065591           -0.05017512
       3              0.27083104           -0.22065591           -0.05017512

    Center           XY                    XZ                    YZ
    ------  --------------------  --------------------  --------------------
       1              0.00000000           -0.00000000            0.00000000
       2             -0.00000000           -0.00000000            1.57565613
       3             -0.00000000            0.00000000           -1.57565613


 -Electron density (a.u.):

    Center           rho
    ------  --------------------
       1            290.47548633
       2              0.40346746
       3              0.40346746


 --------------------------------------------------------------
                *** Miscellaneous properties ***
 --------------------------------------------------------------

 -Relativistic MVD one-electron corrections to the energy (a.u.):

    Mass-velocity (p^4) term     :   -0.245471476446290
    One-electron Darwin term     :   0.194446823493528
    Total one-electron MVD terms :   -0.051024652952761


*** PSI4 called tstop() on mac8319.local at Thu Aug 12 14:40:43 2010
	user time   =       0.60 seconds =       0.01 minutes
	system time =       0.54 seconds =       0.01 minutes
	total time  =          0 seconds =       0.00 minutes

  Job 9 is TRANSQT


  Options:
  ----------------------------------------------------------------------------
  AA_M_FILE            => 81              
  AB_M_FILE            => 83              
  AO_BASIS             => NONE            
  BB_M_FILE            => 82              
  CHECK_C_ORTHONORM    => FALSE           
  DELETE_AO            => TRUE            
  DELETE_RESTR_DOCC    => TRUE            
  DELETE_TPDM          => TRUE            
  DERTYPE              => FIRST          !
  DOCC                 => [ 3, 0, 1, 1 ] !
  DO_ALL_TEI           => FALSE           
  FIRST_TMP_FILE       => 150             
  FREEZE_CORE          => TRUE            
  FZC_A_FILE           => 35              
  FZC_B_FILE           => 35              
  FZC_FILE             => 35              
  IVO                  => FALSE           
  J_FILE               => 91              
  KEEP_J               => FALSE           
  KEEP_PRESORT         => FALSE           
  LAGRAN_DOUBLE        => FALSE           
  LAGRAN_HALVE         => FALSE           
  LAG_IN_FILE          => 75              
  MAX_BUCKETS          => 499             
  MODE                 => TO_MO           
  MOORDER              => [  ]            
  MP2R12A              => MP2R12AERI      
  M_FILE               => 0               
  OEI_A_FILE           => 35              
  OEI_B_FILE           => 35              
  OEI_FILE             => 35              
  OPDM_IN_FILE         => 73              
  OPDM_OUT_FILE        => 76              
  PITZER               => FALSE           
  PRESORT_FILE         => 41              
  PRINT_LVL            => 1               
  PRINT_MOS            => FALSE           
  PRINT_OE_INTEGRALS   => FALSE           
  PRINT_REORDER        => FALSE           
  PRINT_SORTED_OE_INTS => FALSE           
  PRINT_SORTED_TE_INTS => FALSE           
  PRINT_TE_INTEGRALS   => FALSE           
  PSIMRCC              => FALSE           
  QRHF                 => FALSE           
  REFERENCE            => RHF            !
  REORDER              => FALSE           
  SOCC                 => [  ]            
  SORTED_TEI_FILE      => 72              
  SO_S_FILE            => 35              
  SO_TEI_FILE          => 72              
  SO_T_FILE            => 35              
  SO_V_FILE            => 35              
  TOLERANCE            => 14              
  TPDM_ADD_REF         => FALSE           
  TPDM_FILE            => 74              
  WFN                  => CCSD           !


*** PSI4 called tstart() on mac8319.local
*** at Thu Aug 12 14:40:43 2010


	**************************************************
	* TRANSQT:  Program to transform integrals from  *
	*           the SO basis to the MO basis.        *
	*                                                *
	*            Daniel, David, & Justin             *
	*                   Sept  1995                   *
	**************************************************

	Input Parameters:
	-----------------
	Wavefunction           =  CCSD
	Reference orbitals     =  RHF
	Backtrans              =  Yes
	Print MOs              =  No
	Freeze Core            =  No
	Delete Restricted Docc =  No
	Do All TEI             =  No
	Memory (Mbytes)        =  256.0
	Max Buckets            =  499
	First Tmp File         =  150
	Presort File           =  41
	Source TEI File        =  74
	Opdm In File           =  73
	Opdm Out File          =  76
	Lag In File            =  75
	Keep Presort           =  No
	J File                 =  91
	Keep J                 =  No
	M File                 =  77
	Bare OEI file          =  35
	Frozen Core OEI file   =  35
	Sorted TEI file        =  72
	Delete TEI source file =  Yes
	Add TPDM Ref Part      =  No
	Do Bare OEI tranform   =  No
	Do FZC  OEI tranform   =  No
	Tolerance              =  1.0e-14
	Print Level            =  1
	Print TE Ints          =  No
	Print OE Ints          =  No
	Print Sorted TE Ints   =  No
	Print Sorted OE Ints   =  No
	Reorder MOs            =  No
	Check C Orthonormality =  No
	QRHF orbitals          =  No
	IVO orbitals           =  No
	Pitzer                 =  No

	Chkpt File Parameters:
	------------------
	Number of irreps = 4
	Number of SOs    = 25
	Number of MOs    = 25

	Label	# SOs	# MOs	# FZDC	# DOCC	# SOCC	# VIRT	# FZVR
	-----	-----	-----	------	------	------	------	------
	 A1 	   12	   12	    0	    3	    0	    9	    0
	 A2 	   2	   2	    0	    0	    0	    2	    0
	 B1 	   4	   4	    0	    1	    0	    3	    0
	 B2 	   7	   7	    0	    1	    0	    6	    0

	Nuclear Repulsion Energy    =         9.0772388468
	Total SCF Energy            =       -76.0219978763

	Pre-sorting two-electron ints...


	Frozen core energy =    0.000000000000000
	Transforming two-electron ints...

	Sorting half-transformed integrals...
	Finished half-transform...
	Working on second half...

	Transformation finished.
	Two-electron integrals written to file77.

	Transforming one-electron integrals...
	One-pdm and lagrangian written to file76.

*** PSI4 called tstop() on mac8319.local at Thu Aug 12 14:40:44 2010
	user time   =       0.66 seconds =       0.01 minutes
	system time =       0.57 seconds =       0.01 minutes
	total time  =          1 seconds =       0.02 minutes

  Job 10 is CINTS


  Options:
  ----------------------------------------------------------------------------
  CUTOFF               => 15            EMPIRICAL_DISPERSION => FALSE       
  ERI_FILE             => 33            FINE_STRUCTURE_ALPHA => 0.00729735  
  MAKE_ERI             => TRUE          MODE                 => (empty)     
  NUM_THREADS          => 1             PRINT                => 1           
  RESTART              => FALSE         RESTART_TASK         => 0           
  S_FILE               => 35            T_FILE               => 35          
  V_FILE               => 35            WFN                  => CCSD       !


*** PSI4 called tstart() on mac8319.local
*** at Thu Aug 12 14:40:44 2010

                  --------------------------------------------
                    CINTS: An integrals program written in C
                     Justin T. Fermann and Edward F. Valeev
                  --------------------------------------------

  -OPTIONS:
    Print level                 = 1
    Integral tolerance          = 1e-15
    Max. memory to use          = 2500000 double words
    Number of threads           = 1
    LIBINT's real type length   = 64 bit

  -CALCULATION CONSTANTS:
    Label                       = RHF CCSD GRADIENT
    Number of atoms             = 3
    Number of atomic orbitals   = 25
    Number of symmetry orbitals = 25
    Maximum AM in the basis     = 2
    Fine-structure alpha scaling =   0.0073

  -SYMMETRY INFORMATION;
    Computational point group        = C2v
    Number of irreps                 = 4
  Rotational invariance condition satisfied.
  |X cross Grad| =  0.000000000000   (it is the accuracy of the computed forces)
  So long..


  -CCSD forces in the reference frame (a.u.):
     Atom            X                  Y                   Z
    ------   -----------------  -----------------  -----------------
       1        0.000000000000     0.000000000000    -0.012246744489
       2        0.000000000000     0.005967567295     0.006123372244
       3        0.000000000000    -0.005967567295     0.006123372244


*** PSI4 called tstop() on mac8319.local at Thu Aug 12 14:40:44 2010
	user time   =       0.73 seconds =       0.01 minutes
	system time =       0.58 seconds =       0.01 minutes
	total time  =          0 seconds =       0.00 minutes


  Options:
  ----------------------------------------------------------------------------
  NOPT           => 40         NO_LINE_SEARCH => TRUE     


	------------------------------------------------------
	    OPTKING: for internal coordinate optimizations    
	     Rollin A. King, Bethel University, 1999-2010     
	------------------------------------------------------

Cartesian geometry and possibly gradient in a.u. with masses
  8.0    15.99491462   0.0000000000   0.0000000000  -0.1277050126
  1.0     1.00782503   0.0000000000   1.4345475237   1.0133856119
  1.0     1.00782503  -0.0000000000  -1.4345475237   1.0133856119
                       0.0000000000   0.0000000000  -0.0122467445
                       0.0000000000   0.0059675673   0.0061233722
                       0.0000000000  -0.0059675673   0.0061233722

 MAX cartesian force:    0.0122467445   RMS force:    0.0057367998

Generating simple internals

Searching for geometrical constraints...none found.

Simple Internal Coordinates and Values
Stretches
    (1 1 2) (0.97000000)
    (2 1 3) (0.97000000)
Bends
    (3 2 1 3) (103.00000000)

Putting simple, possibly redundant, internal coordinates in intco.dat.
 
 ** Taking normal optimization step. **

Current CCSD energy before step       -76.230988855678

 ** Taking geometry step number 1 **

BuB^t Determinant: 2.518640e+00

Generating empirical Hessian (Schlegel)

Force Constants read from PSIF_OPTKING

No Hessian update performed.
Projected energy change by quadratic approximation:        -0.0001469765

	Internal Coordinate Update in Ang or Rad, aJ/Ang or aJ/Rad
	----------------------------------------------------------
	       Value         Force        Displacement  New Value
	----------------------------------------------------------
	  1    0.97000000   -0.06988212   -0.00840918    0.96159082
	  2    0.97000000   -0.06988212   -0.00840918    0.96159082
	  3    1.79768913    0.00860933    0.01234208    1.81003121
	----------------------------------------------------------

	Convergence Check Cycle    1:
	                    Actual        Tolerance     Converged?
	----------------------------------------------------------
	MAX Force           7.0e-02        1.0e-04          no
	RMS Force           5.7e-02
	Energy Change       1.0e+06        1.0e-08          no
	MAX Displacement    1.2e-02        1.0e-03          no
	RMS Displacement    9.9e-03
	----------------------------------------------------------

	Back-transformation to cartesian coordinates...
	------------------------------------
	 Iter  RMS Delta(dx)  RMS Delta(dq)
	------------------------------------
	    1      4.4e-03      6.4e-05
	    2      2.5e-05      1.7e-09
	    3      7.3e-10      9.1e-17
	------------------------------------

Successfully converged to displaced geometry.

New Cartesian Geometry in a.u.
  8.0   0.0000000000   0.0000000000  -0.1256133463
  1.0   0.0000000000   1.4290646125   0.9967874809
  1.0   0.0000000000  -1.4290646125   0.9967874809

Geometry written to chkpt

******** OPTKING execution completed ********

    List of tasks to execute:
    cints
    cscf
    transqt2
    ccsort
    ccenergy
    cchbar
    cclambda
    ccdensity
    oeprop
    transqt to_ao
    cints deriv1

  Job 0 is CINTS


  Options:
  ----------------------------------------------------------------------------
  CUTOFF               => 15            EMPIRICAL_DISPERSION => FALSE       
  ERI_FILE             => 33            FINE_STRUCTURE_ALPHA => 0.00729735  
  MAKE_ERI             => TRUE          MODE                 => (empty)     
  NUM_THREADS          => 1             PRINT                => 1           
  RESTART              => FALSE         RESTART_TASK         => 0           
  S_FILE               => 35            T_FILE               => 35          
  V_FILE               => 35            WFN                  => CCSD       !


*** PSI4 called tstart() on mac8319.local
*** at Thu Aug 12 14:40:44 2010

                  --------------------------------------------
                    CINTS: An integrals program written in C
                     Justin T. Fermann and Edward F. Valeev
                  --------------------------------------------

  -OPTIONS:
    Print level                 = 1
    Integral tolerance          = 1e-15
    Max. memory to use          = 2500000 double words
    Number of threads           = 1
    LIBINT's real type length   = 64 bit

  -CALCULATION CONSTANTS:
    Label                       = RHF CCSD GRADIENT
    Number of atoms             = 3
    Number of atomic orbitals   = 25
    Number of symmetry orbitals = 25
    Maximum AM in the basis     = 2
    Fine-structure alpha scaling =   0.0073

  -SYMMETRY INFORMATION;
    Computational point group        = C2v
    Number of irreps                 = 4

    Wrote 13617 two-electron integrals to IWL file 33


    Wrote 186874 first-derivative ERIs to IWL files [200, 208]


*** PSI4 called tstop() on mac8319.local at Thu Aug 12 14:40:44 2010
	user time   =       0.86 seconds =       0.01 minutes
	system time =       0.60 seconds =       0.01 minutes
	total time  =          0 seconds =       0.00 minutes

  Job 1 is CSCF


  Options:
  ----------------------------------------------------------------------------


*** PSI4 called tstart() on mac8319.local
*** at Thu Aug 12 14:40:44 2010

             ------------------------------------------

                CSCF3.0: An SCF program written in C

              Written by too many people to mention here

             ------------------------------------------

  I think the multiplicity is 1.
  If this is wrong, please specify the MULTP keyword

  label        = RHF CCSD gradient
  wfn          = CCSD
  reference    = RHF
  multiplicity = 1
  charge       = 0
  direct       = false
  dertype      = FIRST
  convergence  = 10
  maxiter      = 100
  guess        = AUTO

  nuclear repulsion energy        9.1549091643796

  using old vector from file30 as initial guess
  energy from old vector:   -76.02199788

  level shift                      = 0.100000

  level shifting will stop after 10 cycles
  diis scale factor                = 1.000000
  iterations before extrapolation  = 0
  6 error matrices will be kept

  keeping integrals in 114320 bytes of core

  The lowest eigenvalue of the overlap matrix was 2.202956e-02


  Using DOCC and SOCC to determine occupations


  Symmetry block:   A1    A2    B1    B2   
  DOCC:              3     0     1     1   
  SOCC:              0     0     0     0   

  reading integrals in the IWL format from files 33,35,36,37
  wrote 6516 integrals to file92

  iter       total energy        delta E         delta P          diiser
    1       -76.0227629334    8.517767e+01    0.000000e+00    0.000000e+00
    2       -76.0228124238    4.949034e-05    1.479224e-04    2.749349e-03
    3       -76.0228174662    5.042435e-06    4.102799e-05    1.303093e-03
    4       -76.0228185644    1.098219e-06    2.137999e-05    4.323469e-04
    5       -76.0228186524    8.797210e-08    7.900370e-06    1.166252e-04
    6       -76.0228186574    4.980691e-09    2.250841e-06    2.615997e-05
    7       -76.0228186576    1.857074e-10    4.264854e-07    3.750042e-06
    8       -76.0228186576    3.637979e-12    3.834506e-08    5.962372e-07
    9       -76.0228186576    1.136868e-13    9.378048e-09    1.529408e-07
   10       -76.0228186576    2.842171e-14    1.577323e-09    1.475860e-08
   11       -76.0228186576    2.842171e-14    1.436889e-10    5.958269e-09
   12       -76.0228186576   -4.263256e-14    7.855334e-11    1.417941e-09

 Correcting phases of orbitals.

Orbital energies (a.u.):

  Doubly occupied orbitals
   1A1    -20.561854     2A1     -1.338774     1B2     -0.699606  
   3A1     -0.569612     1B1     -0.497173  


  Unoccupied orbitals
   4A1      0.211061     2B2      0.303534     3B2      0.999275  
   5A1      1.085437     6A1      1.132288     2B1      1.168725  
   4B2      1.294649     7A1      1.416804     1A2      1.804936  
   8A1      1.811233     3B1      1.922347     9A1      2.565640  
   5B2      2.576806     6B2      2.797459     2A2      2.970018  
   4B1      2.990729    10A1      3.367739    11A1      3.699953  
   7B2      3.922982    12A1      4.102159  


      * SCF total energy   =     -76.022818657568
        kinetic energy     =      75.794792718821
        nuc. attr. energy  =    -198.816211749000
        elec. rep. energy  =      46.998600372611
        potential energy   =    -151.817611376390
        virial theorem     =       1.997000559269
        wavefunction norm  =       1.000000000000

*** PSI4 called tstop() on mac8319.local at Thu Aug 12 14:40:44 2010
	user time   =       0.87 seconds =       0.01 minutes
	system time =       0.61 seconds =       0.01 minutes
	total time  =          0 seconds =       0.00 minutes

  Job 2 is TRANSQT2


  Options:
  ----------------------------------------------------------------------------
  AO_BASIS   => NONE       CACHELEV   => 2          DELETE_TEI => TRUE     
  DERTYPE    => FIRST   !  PRINT      => 1          PRINT_TEI  => FALSE    
  REFERENCE  => RHF     !  TOLERANCE  => 14         WFN        => CCSD    !


*** PSI4 called tstart() on mac8319.local
*** at Thu Aug 12 14:40:44 2010


	**************************************************
	* TRANSQT2: Program to transform integrals from  *
	*           the SO basis to the MO basis.        *
	*                                                *
	*            Daniel, David, & Justin             *
	**************************************************


	Input parameters:
	-----------------
	Wave function   =	CCSD
	Backtransform   =	No
	Print Level     =	1
	Print TEIs      =	No
	Reference wfn   =	RHF
	Derivative      =	First
	Delete TEI File =	Yes
	Memory (Mbytes) =	100.0
	Cache Level     =	2
	Cache Type      =	LRU
	Chkpt Parameters:
	--------------------
	Number of irreps     = 4
	Number of SOs        = 25
	Number of MOs        = 25
	Number of active MOs = 25

	Label	# SOs	# FZDC	# DOCC	# SOCC	# VIRT	# FZVR
	-----	-----	------	------	------	------	------
	 A1 	   12	    0	    3	    0	    9	    0
	 A2 	   2	    0	    0	    0	    2	    0
	 B1 	   4	    0	    1	    0	    3	    0
	 B2 	   7	    0	    1	    0	    6	    0

	Nuclear Rep. energy (chkpt) =      9.15490916437964
	SCF energy          (chkpt) =    -76.02281865756844

	Presorting SO-basis two-electron integrals.
	Sorting File: SO Ints (pq,rs) nbuckets = 1
	Frozen-core energy =    0.000000000000000
	Starting first half-transformation.
	Sorting half-transformed integrals.
	Starting second half-transformation.
	Two-electron integral transformation complete.

*** PSI4 called tstop() on mac8319.local at Thu Aug 12 14:40:44 2010
	user time   =       0.89 seconds =       0.01 minutes
	system time =       0.62 seconds =       0.01 minutes
	total time  =          0 seconds =       0.00 minutes

  Job 3 is CCSORT


  Options:
  ----------------------------------------------------------------------------
  AO_BASIS             => NONE            
  CACHELEV             => 2               
  DERTYPE              => FIRST          !
  EOM_REFERENCE        => RHF             
  FREEZE_CORE          => NONE            
  KEEP_OEIFILE         => FALSE           
  KEEP_TEIFILE         => FALSE           
  LOCAL                => FALSE           
  LOCAL_CORE_CUTOFF    => 0.05            
  LOCAL_CPHF_CUTOFF    => 0.1             
  LOCAL_CUTOFF         => 0.02            
  LOCAL_DOMAIN_MAG     => FALSE           
  LOCAL_DOMAIN_POLAR   => FALSE           
  LOCAL_DOMAIN_SEP     => FALSE           
  LOCAL_FILTER_SINGLES => FALSE           
  LOCAL_METHOD         => WERNER          
  LOCAL_PAIRDEF        => BP              
  LOCAL_WEAKP          => NONE            
  OMEGA                => [  ]            
  PRINT                => 0               
  PROPERTY             => POLARIZABILITY  
  REFERENCE            => RHF            !
  TOLERANCE            => 14              
  WFN                  => CCSD           !


*** PSI4 called tstart() on mac8319.local
*** at Thu Aug 12 14:40:44 2010


			**************************
			*                        *
			*         CCSORT         *
			*                        *
			**************************


	Input parameters:
	-----------------
	Wave function   =	CCSD
	Reference wfn   =	RHF
	Derivative      =	First
	Memory (Mbytes) =	256.0
	AO Basis        =	NONE
	Make (ab|cd)    =	True
	Make unpacked (ab|cd) =	True
	Cache Level     =	2
	Cache Type      =	LRU
	Local CC        =     No


	Chkpt Parameters:
	--------------------
	Number of irreps     = 4
	Number of MOs        = 25
	Number of active MOs = 25

	Label	# MOs	# FZDC	# DOCC	# SOCC	# VIRT	# FZVR
	-----	-----	------	------	------	------	------
	 A1 	   12	    0	    3	    0	    9	    0
	 A2 	   2	    0	    0	    0	    2	    0
	 B1 	   4	    0	    1	    0	    3	    0
	 B2 	   7	    0	    1	    0	    6	    0

	Nuclear Rep. energy (chkpt) =      9.15490916437964
	SCF energy          (chkpt) =    -76.02281865756844

	Size of irrep 0 of <ab|cd> integrals:      0.017 (MW) /      0.135 (MB)
	Size of irrep 1 of <ab|cd> integrals:      0.005 (MW) /      0.041 (MB)
	Size of irrep 2 of <ab|cd> integrals:      0.006 (MW) /      0.049 (MB)
	Size of irrep 3 of <ab|cd> integrals:      0.014 (MW) /      0.115 (MB)
	Total:                                     0.043 (MW) /      0.341 (MB)

	Size of irrep 0 of <ia|bc> integrals:      0.005 (MW) /      0.037 (MB)
	Size of irrep 1 of <ia|bc> integrals:      0.001 (MW) /      0.009 (MB)
	Size of irrep 2 of <ia|bc> integrals:      0.002 (MW) /      0.012 (MB)
	Size of irrep 3 of <ia|bc> integrals:      0.003 (MW) /      0.028 (MB)
	Total:                                     0.011 (MW) /      0.086 (MB)

	Size of irrep 0 of tijab amplitudes:       0.001 (MW) /      0.011 (MB)
	Size of irrep 1 of tijab amplitudes:       0.000 (MW) /      0.001 (MB)
	Size of irrep 2 of tijab amplitudes:       0.000 (MW) /      0.004 (MB)
	Size of irrep 3 of tijab amplitudes:       0.001 (MW) /      0.006 (MB)
	Total:                                     0.003 (MW) /      0.022 (MB)


	Sorting File: A <ij|kl> nbuckets = 1
	Sorting File: B <ab|cd> nbuckets = 1
	Sorting File: B(+) <ab|cd> nbuckets = 1
	Sorting File: C <ia|jb> nbuckets = 1
	Sorting File: D <ij|ab> nbuckets = 1
	Sorting File: E <ai|jk> nbuckets = 1
	Sorting File: F <ia|bc> nbuckets = 1
	Sorting File: F <ai|bc> nbuckets = 1
	One-electron energy          =   -123.02141903132024
	Two-electron (AA) energy     =     14.44299654017491
	Two-electron (BB) energy     =     14.44299654017491
	Two-electron (AB) energy     =     23.40069466919726
	Two-electron energy          =     37.84369120937217
	Frozen-core energy (transqt) =      0.00000000000000
	Reference energy             =    -76.02281865756845

*** PSI4 called tstop() on mac8319.local at Thu Aug 12 14:40:45 2010
	user time   =       0.92 seconds =       0.02 minutes
	system time =       0.66 seconds =       0.01 minutes
	total time  =          1 seconds =       0.02 minutes

  Job 4 is CCENERGY


  Options:
  ----------------------------------------------------------------------------
  ABCD                => NEW             
  ANALYZE             => FALSE           
  AO_BASIS            => NONE            
  BRUECKNER_CONV      => 5               
  CACHELEV            => 2               
  CACHETYPE           => LOW             
  CC_SCALE_OS         => 1.27            
  CC_SCALE_SS         => 1.13            
  CONVERGENCE         => 7               
  DERTYPE             => FIRST           
  DIIS                => TRUE            
  FORCE_RESTART       => FALSE           
  FREEZE_CORE         => FALSE           
  LOCAL               => FALSE           
  LOCAL_CPHF_CUTOFF   => 0.1             
  LOCAL_CUTOFF        => 0.02            
  LOCAL_METHOD        => WERNER          
  LOCAL_MOS           => 0               
  LOCAL_PAIRDEF       => BP              
  LOCAL_WEAKP         => NONE            
  MAXITER             => 50              
  MP2_SCALE_OS        => 1.2             
  MP2_SCALE_SS        => 0.333333        
  NEWTRIPS            => TRUE            
  NTHREADS            => 1               
  NUM_AMPS            => 10              
  PRINT               => 0               
  PRINT_MP2_AMPS      => FALSE           
  PRINT_PAIR_ENERGIES => FALSE           
  PROPERTY            => POLARIZABILITY  
  REFERENCE           => RHF            !
  RESTART             => TRUE            
  SCSN_MP2            => FALSE           
  SCS_CCSD            => FALSE           
  SCS_MP2             => FALSE           
  SPINADAPT_ENERGIES  => FALSE           
  T2_COUPLED          => FALSE           
  T3_WS_INCORE        => FALSE           
  WFN                 => CCSD            


*** PSI4 called tstart() on mac8319.local
*** at Thu Aug 12 14:40:45 2010

			**************************
			*                        *
			*        CCENERGY        *
			*                        *
			**************************

	Nuclear Rep. energy (chkpt)   =    9.154909164379637
	SCF energy          (chkpt)   =  -76.022818657568436
	Reference energy    (file100) =  -76.022818657568450

	Input parameters:
	-----------------
	Wave function   =     CCSD
	Reference wfn   =     RHF
	Memory (Mbytes) =     256.0
	Maxiter         =     50
	Convergence     =     1.0e-07
	Restart         =     Yes
	DIIS            =     Yes
	AO Basis        =     NONE
	ABCD            =     NEW
	Cache Level     =     2
	Cache Type      =     LOW
	Print Level     =     0
	Num. of threads =     1
	# Amps to Print =     10
	Print MP2 Amps? =     No
	Analyze T2 Amps =     No
	Print Pair Ener =     No
	Local CC        =     No
	SCS-MP2         =     False
	SCSN-MP2        =     False
	SCS-CCSD        =     False

	Using old T1 amplitudes.
	Using old T2 amplitudes.

	            Solving CC Amplitude Equations
	            ------------------------------
  Iter             Energy              RMS        T1Diag      D1Diag    New D1Diag
  ----     ---------------------    ---------   ----------  ----------  ----------
     0        -0.208851619942581    2.941e-08    0.005803    0.012514    0.012514
     1        -0.208398516606417    5.308e-03    0.005934    0.013070    0.013070
     2        -0.208397727974225    1.206e-03    0.005762    0.012505    0.012505
     3        -0.208362141153897    3.591e-04    0.005721    0.012360    0.012360
     4        -0.208354380309608    1.288e-04    0.005689    0.012234    0.012234
     5        -0.208353307227807    3.646e-05    0.005681    0.012191    0.012191
     6        -0.208353630600758    1.035e-05    0.005679    0.012179    0.012179
     7        -0.208353709362733    1.977e-06    0.005678    0.012177    0.012177
     8        -0.208353747005864    3.554e-07    0.005678    0.012177    0.012177
     9        -0.208353747813642    7.883e-08    0.005678    0.012177    0.012177

	Iterations converged.


	Largest TIA Amplitudes:
	          2   0         0.0104863446
	          3  11        -0.0065663909
	          4  14        -0.0062687496
	          4  18         0.0052531510
	          4  16         0.0046499441
	          1   2         0.0042834252
	          2   5        -0.0039591825
	          1   0        -0.0028593048
	          1   7         0.0023706963
	          2   1        -0.0022617219

	Largest TIjAb Amplitudes:
	  3   3  11  11        -0.0518800932
	  4   4  14  14        -0.0381951174
	  2   2   2   2        -0.0289876383
	  4   4  15  15        -0.0286683058
	  3   4  11  16        -0.0248106853
	  4   3  16  11        -0.0248106853
	  2   3   2  11         0.0246934783
	  3   2  11   2         0.0246934783
	  4   4  16  16        -0.0246705199
	  3   4  11  14        -0.0242464153

	SCF energy       (chkpt)              =  -76.022818657568436
	Reference energy (file100)            =  -76.022818657568450

	Opposite-spin MP2 correlation energy  =   -0.149428813307133
	Same-spin MP2 correlation energy      =   -0.050199467261016
	MP2 correlation energy                =   -0.199628280568149
      * MP2 total energy                      =  -76.222446938136599

	Opposite-spin CCSD correlation energy =   -0.163784780977680
	Same-spin CCSD correlation energy     =   -0.044568966835891
	CCSD correlation energy               =   -0.208353747813642
      * CCSD total energy                     =  -76.231172405382097


*** PSI4 called tstop() on mac8319.local at Thu Aug 12 14:40:49 2010
	user time   =       1.14 seconds =       0.02 minutes
	system time =       0.88 seconds =       0.01 minutes
	total time  =          4 seconds =       0.07 minutes

  Job 5 is CCHBAR


  Options:
  ----------------------------------------------------------------------------
  CACHELEV      => 2          DERTYPE       => FIRST   !
  EOM_REFERENCE => RHF        PRINT         => 0        
  TAMPLITUDE    => FALSE      WABEI_LOWDISK => FALSE    
  WFN           => CCSD    !

*** PSI4 called tstart() on mac8319.local
*** at Thu Aug 12 14:40:49 2010


			**************************
			*                        *
			*         CCHBAR         *
			*                        *
			**************************


*** PSI4 called tstop() on mac8319.local at Thu Aug 12 14:40:49 2010
	user time   =       1.17 seconds =       0.02 minutes
	system time =       0.92 seconds =       0.02 minutes
	total time  =          0 seconds =       0.00 minutes

  Job 6 is CCLAMBDA


  Options:
  ----------------------------------------------------------------------------
  ABCD                 => NEW        AO_BASIS             => FALSE    
  CACHELEV             => 2          CONVERGENCE          => 7        
  DERTYPE              => FIRST   !  DIIS                 => TRUE     
  FREEZE_CORE          => FALSE      JOBTYPE              => OPT     !
  LOCAL                => FALSE      LOCAL_CPHF_CUTOFF    => 0.1      
  LOCAL_CUTOFF         => 0.02       LOCAL_FILTER_SINGLES => TRUE     
  LOCAL_METHOD         => WERNER     LOCAL_PAIRDEF        => (empty)  
  LOCAL_WEAKP          => NONE       MAXITER              => 50       
  NUM_AMPS             => 10         PRINT                => 0        
  PROP_ALL             => FALSE      PROP_ROOT            => 1        
  PROP_SYM             => 1          RESTART              => FALSE    
  SEKINO               => FALSE      STATES_PER_IRREP     => [  ]     
  WFN                  => CCSD    !

*** PSI4 called tstart() on mac8319.local
*** at Thu Aug 12 14:40:49 2010


			**************************
			*        CCLAMBDA        *
			**************************


	Nuclear Rep. energy (chkpt)   =    9.154909164379637
	Reference           (chkpt)   = 0
	SCF energy          (chkpt)   =  -76.022818657568436
	Reference energy    (CC_INFO) =  -76.022818657568450
	CCSD energy         (CC_INFO) =   -0.208353747813642
	Total CCSD energy   (CC_INFO) =  -76.231172405382097

	Input parameters:
	-----------------
	Maxiter       =      50
	Convergence   = 1.0e-07
	Restart       =     No
	Cache Level   =     2
	Model III     =     No
	DIIS          =     Yes
	AO Basis      =     No
	ABCD            =     NEW
	Local CC        =     No
	Paramaters for left-handed eigenvectors:
	    Irr   Root  Ground-State?    EOM energy        R0
	  1   0     0        Yes       0.0000000000   1.0000000000
	Labels for eigenvector 1:
	LIA 0 -1, Lia 0 -1, LIJAB 0 -1, Lijab 0 -1, LIjAb 0 -1, 2LIjAb - LIjbA 0 -1
	Symmetry of left-hand state: A1 
	Symmetry of left-hand eigenvector: A1 

	          Solving Lambda Equations
	          ------------------------
	Iter     PseudoEnergy or Norm         RMS  
	----     ---------------------     --------
	   0        -0.208390329056046    9.017e-08
	   1        -0.205901560855601    7.970e-03
	   2        -0.205479366592035    1.317e-03
	   3        -0.205395748485840    6.049e-04
	   4        -0.205389370836352    2.004e-04
	   5        -0.205392922790553    6.080e-05
	   6        -0.205392902306168    1.459e-05
	   7        -0.205392983285863    3.273e-06
	   8        -0.205393011535868    4.975e-07
	   9        -0.205393009574880    8.464e-08

	Largest LIA Amplitudes:
	          2   0         0.0069792720
	          4  16         0.0048525581
	          4  18         0.0045367621
	          3  11        -0.0038980637
	          2   5        -0.0035250463
	          4  14        -0.0031673882
	          1   2         0.0031627414
	          1   3        -0.0024527044
	          1   7         0.0021770716
	          4  15         0.0020553776

	Largest LIjAb Amplitudes:
	  3   3  11  11        -0.0515994529
	  4   4  14  14        -0.0373186979
	  2   2   2   2        -0.0286182128
	  4   4  15  15        -0.0279583751
	  3   4  11  16        -0.0246237943
	  4   3  16  11        -0.0246237943
	  2   3   2  11         0.0245423930
	  3   2  11   2         0.0245423930
	  4   4  16  16        -0.0244169251
	  3   4  11  14        -0.0239887638

	Iterations converged.

	Overlap <L|e^T> =        0.94337507141

*** PSI4 called tstop() on mac8319.local at Thu Aug 12 14:40:50 2010
	user time   =       1.27 seconds =       0.02 minutes
	system time =       1.01 seconds =       0.02 minutes
	total time  =          1 seconds =       0.02 minutes

  Job 7 is CCDENSITY


  Options:
  ----------------------------------------------------------------------------
  AEL              => FALSE      AO_BASIS         => FALSE    
  CACHELEV         => 2          CONNECT_XI       => FALSE    
  DERTYPE          => FIRST   !  GAUGE            => LENGTH   
  PROP_ALL         => FALSE      PROP_ROOT        => 0        
  PROP_SYM         => 0          REFERENCE        => RHF     !
  RELAX_OPDM       => FALSE      STATES_PER_IRREP => [  ]     
  TOLERANCE        => 14         WFN              => CCSD    !


*** PSI4 called tstart() on mac8319.local
*** at Thu Aug 12 14:40:50 2010


			**************************
			*                        *
			*        CCDENSITY       *
			*                        *
			**************************


	Input parameters:
	-----------------
	Wave function    =   CCSD
	Reference wfn    =   RHF
	Tolerance        = 1.0e-14
	Cache Level      = 2
	AO Basis         = No
	OPDM Only        = No
	Relax OPDM       = No
	Compute Xi       = No
	Use Zeta         = No
	Xi connected     = No

	Nuclear Rep. energy (chkpt)   =    9.154909164379637
	SCF energy          (chkpt)   =  -76.022818657568436
	Reference energy    (file100) =  -76.022818657568450
	CCSD energy         (CC_INFO) =   -0.208353747813642
	Total CCSD energy   (CC_INFO) =  -76.231172405382097
	Number of States = 1

	Ground?  State     EOM Energy       R0
	  Yes     0A1     0.0000000000   1.00000000

	Energies re-computed from CC density:
	-------------------------------------
	One-electron energy        =    0.220457744095551
	IJKL energy                =    0.041650740127968
	IJKA energy                =   -0.001381388915819
	IJAB energy                =   -0.410962295274656
	IBJA energy                =   -0.100294107878360
	CIAB energy                =   -0.000157833624682
	ABCD energy                =    0.042333391131117
	Total two-electron energy  =   -0.428811494434433
	CCSD correlation energy    =   -0.208353750338883
	Total CCSD energy          =  -76.231172407907337

	Virial Theorem Data:
	--------------------
	Kinetic energy (ref)   =   75.794792719941327
	Kinetic energy (corr)  =    0.148084981043649
	Kinetic energy (total) =   75.942877700984980
	-V/T (ref)             =    2.003008464426701
	-V/T (corr)            =    2.406987706283519
	-V/T (total)           =    2.003796204635966

	Energies re-computed from Fock-adjusted CC density:
	---------------------------------------------------
	One-electron energy        =    0.258803056613127
	IJKL energy                =   -0.667200114182660
	IJKA energy                =   -0.060116747243682
	IJAB energy                =   -0.410962295274656
	IBJA energy                =    0.628946792242554
	CIAB energy                =   -0.000157833624682
	ABCD energy                =    0.042333391131117
	Total two-electron energy  =   -0.467156806952010
	CCSD correlation energy    =   -0.208353750338883
	Total CCSD energy          =  -76.231172407907337

	Energies re-computed from Mulliken density:
	-------------------------------------------
	One-electron energy        =    0.258803056613127
	IJKL energy                =   -0.667200114182660
[...]
  QED_DARWIN           => FALSE           
  READ_OPDM            => TRUE            
  REFERENCE            => RHF            !
  ROOT                 => 1               
  SOCC                 => [  ]            
  SPIN_PROP            => FALSE           
  TRANSITION_DENSITY   => FALSE           
  WFN                  => CCSD           !
  WRTNOS               => FALSE           
  ZVEC_FILE            => 0               


*** PSI4 called tstart() on mac8319.local
*** at Thu Aug 12 14:41:05 2010

    **********************************************
    *                    OEPROP                  *
    *          A simple property program         *
    *              by a big TOOL fan             *
    **********************************************


  TASKS to be performed :
    $One-particle density in MO basis in SQUARE form will be read from file73.
    $Only electric dipole moment will be computed.
    $Reference point for the electric multipole moments calculation is 
      the center of mass.
    $Reference point for the electric angular momentum calculation is 
      at (0.000000 0.000000 0.000000)
    $Electrostatic properties at the nuclei will be evaluated.

  Title : 'RHF CCSD GRADIENT'

  List of PARAMETERS :
    # of atoms                 =      3
    # of molecular orbitals    =     25
    # of basis functions       =     25
    # of atomic orbitals       =     25
    # of irreps                =      4
    Total charge               =      0
    # of unique shells         =     12
    # of primitives            =     20
    Print level                =      1

  List of GRID PARAMETERS :
    GRID_ORIGIN                =	(  0.00000  0.00000  0.00000 )
    GRID_STEP_X                =	(  0.00000  0.00000  0.00000 )
    GRID_STEP_Y                =	(  0.00000  0.00000  0.00000 )
    NIX                        =	  11
    NIY                        =	  11
    GRID_ZMIN                  =	   0.00000
    GRID_ZMAX                  =	   3.00000

	Densities available up to root 1
	** Analyzing density number 1 **
 --------------------------------------------------------------
   ** Mulliken population analysis of one-particle density **
 --------------------------------------------------------------

 -Gross orbital populations :

  Center   AO          L          Q(AO)
  ------  ----        ---      -----------
     1      1          0        1.99515675
     1      2          0        0.89830738
     1      3          0        0.90602794
     1      4          1        1.12414480
     1      5          1        0.80496971
     1      6          1        0.93093155
     1      7          1        0.84115527
     1      8          1        0.44730157
     1      9          1        0.64103183
     1     10          2        0.00193347
     1     11          2        0.00494493
     1     12          2        0.00691302
     1     13          2        0.00794748
     1     14          2        0.01837555
     1     15          2        0.00086440
     2     16          0        0.49364109
     2     17          0        0.14952571
     2     18          1        0.01167824
     2     19          1        0.01644469
     2     20          1        0.01370745
     3     21          0        0.49364109
     3     22          0        0.14952571
     3     23          1        0.01167824
     3     24          1        0.01644469
     3     25          1        0.01370745


 -Atomic bond populations :

           1           2           3

    1   7.1257817   0.2870423   0.2870423
    2   0.2870423   0.3543437  -0.0262494
    3   0.2870423  -0.0262494   0.3543437


 -Gross atomic populations and net charges :

    Center    Atomic Population    Net Charge
    ------    -----------------    ----------
       1            8.630006        -0.630006
       2            0.684997        +0.315003
       3            0.684997        +0.315003


 --------------------------------------------------------------
                *** Electric multipole moments ***
 --------------------------------------------------------------

 -Coordinates of the reference point (a.u.) :
           x                     y                     z
  --------------------  --------------------  --------------------
          0.0000000000          0.0000000000          0.0000000000

 -Electric dipole moment (expectation values) :

    mu(X)  =   0.00000 D  =   0.00000000e+00 C*m  =   0.00000000 a.u.
    mu(Y)  =  -0.00000 D  =  -4.52258900e-46 C*m  =  -0.00000000 a.u.
    mu(Z)  =   2.09020 D  =   6.97216374e-30 C*m  =   0.82234836 a.u.
    |mu|   =   2.09020 D  =   6.97216374e-30 C*m  =   0.82234836 a.u.


 --------------------------------------------------------------
              *** Electronic angular momentum ***
 --------------------------------------------------------------

 -Coordinates of the reference point (a.u.) :
           x                     y                     z
  --------------------  --------------------  --------------------
          0.0000000000          0.0000000000         -0.0000000000

 -Electronic angular momentum (expectation values) :

    Lx  =   0.00000000 a.u.
    Ly  =   0.00000000 a.u.
    Lz  =   0.00000000 a.u.


 --------------------------------------------------------------
      *** Electrostatic  properties at atomic centers ***
 --------------------------------------------------------------

 -Coordinates of atomic centers (a.u.):
    #   Charge           x                     y                     z
   ---  ------  --------------------  --------------------  --------------------
    1      8            0.0000000000          0.0000000000         -0.1250764541
    2      1            0.0000000000          1.4313717438          0.9925270463
    3      1            0.0000000000         -1.4313717438          0.9925270463


 -Electrostatic potential and electric field (a.u.) :

    Center         phi            Ex             Ey           Ez
    ------    ------------   ------------  ------------  ------------
       1      -22.29670706     0.00000000   -0.00000000   -0.12552336
       2       -1.01171955     0.00000000    0.01751813    0.00659584
       3       -1.01171955     0.00000000   -0.01751813    0.00659584


 -Electric field gradient (regular form) (a.u.):

    Center           XX                    YY                    ZZ
    ------  --------------------  --------------------  --------------------
       1          -1214.84651403        -1218.16017659        -1216.88068692
       2             -1.42696888           -1.95212966           -1.76098870
       3             -1.42696888           -1.95212966           -1.76098870

    Center           XY                    XZ                    YZ
    ------  --------------------  --------------------  --------------------
       1              0.00000000            0.00000000            0.00000000
       2              0.00000000            0.00000000            1.60102171
       3              0.00000000            0.00000000           -1.60102171


 -Electric field gradient (traceless tensor form) (a.u.):

    Center        XX - RR/3             YY - RR/3             ZZ - RR/3
    ------  --------------------  --------------------  --------------------
       1              1.78261182           -1.53105074           -0.25156107
       2              0.28639353           -0.23876724           -0.04762628
       3              0.28639353           -0.23876724           -0.04762628

    Center           XY                    XZ                    YZ
    ------  --------------------  --------------------  --------------------
       1              0.00000000            0.00000000            0.00000000
       2              0.00000000            0.00000000            1.60102171
       3              0.00000000            0.00000000           -1.60102171


 -Electron density (a.u.):

    Center           rho
    ------  --------------------
       1            290.44880893
       2              0.40903515
       3              0.40903515


 --------------------------------------------------------------
                *** Miscellaneous properties ***
 --------------------------------------------------------------

 -Relativistic MVD one-electron corrections to the energy (a.u.):

    Mass-velocity (p^4) term     :   -0.245451619168688
    One-electron Darwin term     :   0.194429903048678
    Total one-electron MVD terms :   -0.051021716120010


*** PSI4 called tstop() on mac8319.local at Thu Aug 12 14:41:06 2010
	user time   =       2.82 seconds =       0.05 minutes
	system time =       2.20 seconds =       0.04 minutes
	total time  =          1 seconds =       0.02 minutes

  Job 9 is TRANSQT


  Options:
  ----------------------------------------------------------------------------
  AA_M_FILE            => 81              
  AB_M_FILE            => 83              
  AO_BASIS             => NONE            
  BB_M_FILE            => 82              
  CHECK_C_ORTHONORM    => FALSE           
  DELETE_AO            => TRUE            
  DELETE_RESTR_DOCC    => TRUE            
  DELETE_TPDM          => TRUE            
  DERTYPE              => FIRST          !
  DOCC                 => [ 3, 0, 1, 1 ] !
  DO_ALL_TEI           => FALSE           
  FIRST_TMP_FILE       => 150             
  FREEZE_CORE          => TRUE            
  FZC_A_FILE           => 35              
  FZC_B_FILE           => 35              
  FZC_FILE             => 35              
  IVO                  => FALSE           
  J_FILE               => 91              
  KEEP_J               => FALSE           
  KEEP_PRESORT         => FALSE           
  LAGRAN_DOUBLE        => FALSE           
  LAGRAN_HALVE         => FALSE           
  LAG_IN_FILE          => 75              
  MAX_BUCKETS          => 499             
  MODE                 => TO_MO           
  MOORDER              => [  ]            
  MP2R12A              => MP2R12AERI      
  M_FILE               => 0               
  OEI_A_FILE           => 35              
  OEI_B_FILE           => 35              
  OEI_FILE             => 35              
  OPDM_IN_FILE         => 73              
  OPDM_OUT_FILE        => 76              
  PITZER               => FALSE           
  PRESORT_FILE         => 41              
  PRINT_LVL            => 1               
  PRINT_MOS            => FALSE           
  PRINT_OE_INTEGRALS   => FALSE           
  PRINT_REORDER        => FALSE           
  PRINT_SORTED_OE_INTS => FALSE           
  PRINT_SORTED_TE_INTS => FALSE           
  PRINT_TE_INTEGRALS   => FALSE           
  PSIMRCC              => FALSE           
  QRHF                 => FALSE           
  REFERENCE            => RHF            !
  REORDER              => FALSE           
  SOCC                 => [  ]            
  SORTED_TEI_FILE      => 72              
  SO_S_FILE            => 35              
  SO_TEI_FILE          => 72              
  SO_T_FILE            => 35              
  SO_V_FILE            => 35              
  TOLERANCE            => 14              
  TPDM_ADD_REF         => FALSE           
  TPDM_FILE            => 74              
  WFN                  => CCSD           !


*** PSI4 called tstart() on mac8319.local
*** at Thu Aug 12 14:41:06 2010


	**************************************************
	* TRANSQT:  Program to transform integrals from  *
	*           the SO basis to the MO basis.        *
	*                                                *
	*            Daniel, David, & Justin             *
	*                   Sept  1995                   *
	**************************************************

	Input Parameters:
	-----------------
	Wavefunction           =  CCSD
	Reference orbitals     =  RHF
	Backtrans              =  Yes
	Print MOs              =  No
	Freeze Core            =  No
	Delete Restricted Docc =  No
	Do All TEI             =  No
	Memory (Mbytes)        =  256.0
	Max Buckets            =  499
	First Tmp File         =  150
	Presort File           =  41
	Source TEI File        =  74
	Opdm In File           =  73
	Opdm Out File          =  76
	Lag In File            =  75
	Keep Presort           =  No
	J File                 =  91
	Keep J                 =  No
	M File                 =  77
	Bare OEI file          =  35
	Frozen Core OEI file   =  35
	Sorted TEI file        =  72
	Delete TEI source file =  Yes
	Add TPDM Ref Part      =  No
	Do Bare OEI tranform   =  No
	Do FZC  OEI tranform   =  No
	Tolerance              =  1.0e-14
	Print Level            =  1
	Print TE Ints          =  No
	Print OE Ints          =  No
	Print Sorted TE Ints   =  No
	Print Sorted OE Ints   =  No
	Reorder MOs            =  No
	Check C Orthonormality =  No
	QRHF orbitals          =  No
	IVO orbitals           =  No
	Pitzer                 =  No

	Chkpt File Parameters:
	------------------
	Number of irreps = 4
	Number of SOs    = 25
	Number of MOs    = 25

	Label	# SOs	# MOs	# FZDC	# DOCC	# SOCC	# VIRT	# FZVR
	-----	-----	-----	------	------	------	------	------
	 A1 	   12	   12	    0	    3	    0	    9	    0
	 A2 	   2	   2	    0	    0	    0	    2	    0
	 B1 	   4	   4	    0	    1	    0	    3	    0
	 B2 	   7	   7	    0	    1	    0	    6	    0

	Nuclear Repulsion Energy    =         9.1598790648
	Total SCF Energy            =       -76.0228884454

	Pre-sorting two-electron ints...


	Frozen core energy =    0.000000000000000
	Transforming two-electron ints...

	Sorting half-transformed integrals...
	Finished half-transform...
	Working on second half...

	Transformation finished.
	Two-electron integrals written to file77.

	Transforming one-electron integrals...
	One-pdm and lagrangian written to file76.

*** PSI4 called tstop() on mac8319.local at Thu Aug 12 14:41:06 2010
	user time   =       2.88 seconds =       0.05 minutes
	system time =       2.22 seconds =       0.04 minutes
	total time  =          0 seconds =       0.00 minutes

  Job 10 is CINTS


  Options:
  ----------------------------------------------------------------------------
  CUTOFF               => 15            EMPIRICAL_DISPERSION => FALSE       
  ERI_FILE             => 33            FINE_STRUCTURE_ALPHA => 0.00729735  
  MAKE_ERI             => TRUE          MODE                 => (empty)     
  NUM_THREADS          => 1             PRINT                => 1           
  RESTART              => FALSE         RESTART_TASK         => 0           
  S_FILE               => 35            T_FILE               => 35          
  V_FILE               => 35            WFN                  => CCSD       !


*** PSI4 called tstart() on mac8319.local
*** at Thu Aug 12 14:41:06 2010

                  --------------------------------------------
                    CINTS: An integrals program written in C
                     Justin T. Fermann and Edward F. Valeev
                  --------------------------------------------

  -OPTIONS:
    Print level                 = 1
    Integral tolerance          = 1e-15
    Max. memory to use          = 2500000 double words
    Number of threads           = 1
    LIBINT's real type length   = 64 bit

  -CALCULATION CONSTANTS:
    Label                       = RHF CCSD GRADIENT
    Number of atoms             = 3
    Number of atomic orbitals   = 25
    Number of symmetry orbitals = 25
    Maximum AM in the basis     = 2
    Fine-structure alpha scaling =   0.0073

  -SYMMETRY INFORMATION;
    Computational point group        = C2v
    Number of irreps                 = 4
  Rotational invariance condition satisfied.
  |X cross Grad| =  0.000000000000   (it is the accuracy of the computed forces)
  So long..


  -CCSD forces in the reference frame (a.u.):
     Atom            X                  Y                   Z
    ------   -----------------  -----------------  -----------------
       1        0.000000000000     0.000000000000     0.000003885517
       2        0.000000000000    -0.000003656337    -0.000001942758
       3        0.000000000000     0.000003656337    -0.000001942758


*** PSI4 called tstop() on mac8319.local at Thu Aug 12 14:41:06 2010
	user time   =       2.95 seconds =       0.05 minutes
	system time =       2.23 seconds =       0.04 minutes
	total time  =          0 seconds =       0.00 minutes


  Options:
  ----------------------------------------------------------------------------
  NOPT           => 40         NO_LINE_SEARCH => TRUE     


	*** OPTKING : options read previously

Cartesian geometry and possibly gradient in a.u. with masses
  8.0    15.99491462   0.0000000000   0.0000000000  -0.1250764541
  1.0     1.00782503   0.0000000000   1.4313717438   0.9925270463
  1.0     1.00782503   0.0000000000  -1.4313717438   0.9925270463
                       0.0000000000   0.0000000000   0.0000038855
                       0.0000000000  -0.0000036563  -0.0000019428
                       0.0000000000   0.0000036563  -0.0000019428

 MAX cartesian force:    0.0000038855   RMS force:    0.0000023424

Generating simple internals

Searching for geometrical constraints...none found.

Simple Internal Coordinates and Values
Stretches
    (1 1 2) (0.96098685)
    (2 1 3) (0.96098685)
Bends
    (3 2 1 3) (104.03513862)

Putting simple, possibly redundant, internal coordinates in intco.dat.
 
 ** Taking normal optimization step. **

Current CCSD energy before step       -76.231177578236
  Previous energy                    -76.231177586082
  Actual Delta(E) from last step       0.000000007847
  Previous Predicted Delta(E)         -0.000000036153  (-121.7% error)

	Insufficient energy drop observed.
	Preventing line search due to user input of NO_LINE_SEARCH.

 ** Taking geometry step number 4 **

BuB^t Determinant: 2.568743e+00
	Symmetric Force Constants found in PSIF_OPTKING

Force Constants read from PSIF_OPTKING

Performing BFGS update with previous 3 gradient(s).
Projected energy change by quadratic approximation:        -0.0000000000

	Internal Coordinate Update in Ang or Rad, aJ/Ang or aJ/Rad
	----------------------------------------------------------
	       Value         Force        Displacement  New Value
	----------------------------------------------------------
	  1    0.96098685    0.00003359    0.00000396    0.96099081
	  2    0.96098685    0.00003359    0.00000396    0.96099081
	  3    1.81575571    0.00000569    0.00000454    1.81576025
	----------------------------------------------------------

	Convergence Check Cycle    4:
	                    Actual        Tolerance     Converged?
	----------------------------------------------------------
	MAX Force           3.4e-05        1.0e-04         yes
	RMS Force           2.8e-05
	Energy Change       7.8e-09        1.0e-08         yes
	MAX Displacement    4.5e-06        1.0e-03         yes
	RMS Displacement    4.2e-06
	----------------------------------------------------------

Optimization is complete.

Final CCSD energy is  -76.2311775782

	            ****  Optimization Summary  ****
	----------------------------------------------------------------------
	 Step         Energy             Delta(E)      RMS force    MAX force 
	----------------------------------------------------------------------
	   1    -76.230988855678    -76.230988855678    5.73e-02     6.99e-02
	   2    -76.231172405382     -0.000183549704    3.69e-03     4.00e-03
	   3    -76.231177586082     -0.000005180700    3.26e-04     4.85e-04
	----------------------------------------------------------------------

The Optimized geometry in a.u.
  (  O    0.0000000000    0.0000000000   -0.1250764541 )
  (  H    0.0000000000    1.4313717438    0.9925270463 )
  (  H    0.0000000000   -1.4313717438    0.9925270463 )

The Optimized geometry in Angstrom
  (  O    0.0000000000    0.0000000000   -0.0661876139 )
  (  H    0.0000000000    0.7574493617    0.5252227319 )
  (  H    0.0000000000   -0.7574493617    0.5252227319 )



******** OPTKING execution completed ********

psiclean: Cleaning up files.
