    -----------------------------------------------------------------------
          PSI4: An Open-Source Ab Initio Electronic Structure Package
                              PSI 4.0.0-alpha Driver
    T. D. Crawford, C. D. Sherrill, E. F. Valeev, J. T. Fermann, R. A. King,
    M. L. Leininger, S. T. Brown, C. L. Janssen, E. T. Seidl, J. P. Kenny,
    and W. D. Allen, J. Comput. Chem. 28, 1610-1616 (2007)

                         Additional Contributions by
    Francesco Evangelista, Andrew Simmonett, Justin Turney, Jeremiah Wilke
    -----------------------------------------------------------------------


    Using LocalCommunicator (Number of processes = 1)

    Memory level set to 256.000 MB

  ==> Input File <==

--------------------------------------------------------------------------
#! DCFT calculation for the Ne+ (doublet ground state). This performs both
#! two-step and simultaneous update of the orbitals and cumulant using DIIS extrapolation.
#! Four-virtual integrals are handled in the MO Basis.

refuhf      = -126.95798478422313 #TEST
refmp2      = -127.03669514810636 #TEST
refdcftscf  = -127.00494667865641 #TEST
refdcft     = -127.18032524447956 #TEST

molecule ne {
    1 2
    Ne
}

set globals {
    convergence 11
    reference   uhf
    ao_basis    none
    algorithm   twostep
    basis       3-21G
}

energy('dcft')

compare_values(refuhf, get_variable("SCF ENERGY"), 10, "UHF Energy");                   #TEST
compare_values(refmp2, get_variable("MP2 ENERGY"), 8, "MP2 Energy");                   #TEST
compare_values(refdcft, get_variable("DCFT ENERGY"), 8, "DCFT Energy (two-step)");                #TEST
compare_values(refdcftscf, get_variable("DCFT SCF ENERGY"), 8, "DCFT SCF Energy (two-step)");     #TEST

set algorithm simultaneous
energy('dcft')

compare_values(refdcft, get_variable("DCFT ENERGY"), 8, "DCFT Energy (simultaneous)");                #TEST
compare_values(refdcftscf, get_variable("DCFT SCF ENERGY"), 8, "DCFT SCF Energy (simultaneous)");     #TEST

clean()

--------------------------------------------------------------------------

*** tstart() called on Alex-2.local
*** at Tue Aug 23 15:14:09 2011


         ---------------------------------------------------------
                                   SCF
            by Justin Turney, Rob Parrish, and Andy Simmonnett
                              UHF Reference
                        1 Threads,    256 MiB Core
         ---------------------------------------------------------

  ==> Geometry <==

    Molecular point group: d2h

    Geometry (in Angstrom), charge = 1, multiplicity = 2:

       Center              X                  Y                   Z       
    ------------   -----------------  -----------------  -----------------
          NE          0.000000000000     0.000000000000     0.000000000000

    Number of unique atoms: 1

    Atoms equivalency:
       unique atom 0: 0 

  Running in d2h symmetry.

  Nuclear repulsion =    0.000000000000000

  Charge       = 1
  Multiplicity = 2
  Electrons    = 9
  Nalpha       = 5
  Nbeta        = 4

  ==> Algorithm <==

  SCF Algorithm Type is PK.
  DIIS enabled.
  MOM disabled.
  Guess Type is CORE.
  Energy threshold   = 1.00e-08
  Density threshold  = 1.00e-08
  Integral threshold = 0.00e+00

  ==> Primary Basis: 3-21G <==

  Basis Set
    Number of shells: 5
    Number of basis function: 9
    Number of Cartesian functions: 9
    Spherical Harmonics?: false
    Max angular momentum: 1

  ==> Pre-Iterations <==

  Minimum eigenvalue in the overlap matrix is 2.7203037040E-01.
  Using Symmetric Orthogonalization.
  SCF Guess: Core (One-Electron) Hamiltonian.

  Initial UHF energy:   -92.03700110054427

   -------------------------------------------------------
    Irrep   Nso     Nmo     Nalpha   Nbeta   Ndocc  Nsocc
   -------------------------------------------------------
     Ag         3       3       2       2       2       0
     B1g        0       0       0       0       0       0
     B2g        0       0       0       0       0       0
     B3g        0       0       0       0       0       0
     Au         0       0       0       0       0       0
     B1u        2       2       1       1       1       0
     B2u        2       2       1       1       1       0
     B3u        2       2       1       0       0       1
   -------------------------------------------------------
    Total       9       9       5       4       4       1
   -------------------------------------------------------

  ==> Integral Setup <==

 MINTS: Wrapper to libmints.
   by Justin Turney

   Calculation information:
      Number of atoms:                   1
      Number of AO shells:               5
      Number of SO shells:               5
      Number of primitives:              9
      Number of atomic orbitals:         9
      Number of basis functions:         9

      Number of irreps:                  8
      Number of functions per irrep: [   3    0    0    0    0    2    2    2 ]

      Computing integrals...done

      Computed 213 non-zero integrals.

  ==> Iterations <==

                        Total Energy        Delta E     Density RMS

   @UHF iter   1:  -120.38451299836437   -2.83475e+01   +0.00000e+00  
	Occupation by irrep:
	         Ag   B1g   B2g   B3g    Au   B1u   B2u   B3u 
	DOCC [     2,    0,    0,    0,    0,    1,    0,    1 ]
	SOCC [     0,    0,    0,    0,    0,    0,    1,    0 ]
   @UHF iter   2:  -126.23234398371822   -5.84783e+00   +8.27929e-01 DIIS
	Occupation by irrep:
	         Ag   B1g   B2g   B3g    Au   B1u   B2u   B3u 
	DOCC [     2,    0,    0,    0,    0,    0,    1,    1 ]
	SOCC [     0,    0,    0,    0,    0,    1,    0,    0 ]
   @UHF iter   3:  -127.06583880427347   -8.33495e-01   +2.81748e-01 DIIS
	Occupation by irrep:
	         Ag   B1g   B2g   B3g    Au   B1u   B2u   B3u 
	DOCC [     2,    0,    0,    0,    0,    1,    0,    1 ]
	SOCC [     0,    0,    0,    0,    0,    0,    1,    0 ]
   @UHF iter   4:  -127.06286281579753   +2.97599e-03   +2.10741e-01 DIIS
	Occupation by irrep:
	         Ag   B1g   B2g   B3g    Au   B1u   B2u   B3u 
	DOCC [     2,    0,    0,    0,    0,    1,    1,    0 ]
	SOCC [     0,    0,    0,    0,    0,    0,    0,    1 ]
   @UHF iter   5:  -127.07822576063649   -1.53629e-02   +2.08627e-01 DIIS
	Occupation by irrep:
	         Ag   B1g   B2g   B3g    Au   B1u   B2u   B3u 
	DOCC [     2,    0,    0,    0,    0,    1,    0,    1 ]
	SOCC [     0,    0,    0,    0,    0,    0,    1,    0 ]
   @UHF iter   6:  -127.06828286974277   +9.94289e-03   +2.08944e-01 DIIS
	Occupation by irrep:
	         Ag   B1g   B2g   B3g    Au   B1u   B2u   B3u 
	DOCC [     2,    0,    0,    0,    0,    0,    1,    1 ]
	SOCC [     0,    0,    0,    0,    0,    1,    0,    0 ]
   @UHF iter   7:  -127.02825871225663   +4.00242e-02   +2.09488e-01 DIIS
   @UHF iter   8:  -127.03496057117498   -6.70186e-03   +4.79179e-02 DIIS
	Occupation by irrep:
	         Ag   B1g   B2g   B3g    Au   B1u   B2u   B3u 
	DOCC [     2,    0,    0,    0,    0,    1,    0,    1 ]
	SOCC [     0,    0,    0,    0,    0,    0,    1,    0 ]
   @UHF iter   9:  -127.06604784339365   -3.10873e-02   +2.09559e-01 DIIS
   @UHF iter  10:  -127.06980843347500   -3.76059e-03   +7.16730e-03 DIIS
   @UHF iter  11:  -127.06698607261598   +2.82236e-03   +1.73618e-03 DIIS
	Occupation by irrep:
	         Ag   B1g   B2g   B3g    Au   B1u   B2u   B3u 
	DOCC [     2,    0,    0,    0,    0,    0,    1,    1 ]
	SOCC [     0,    0,    0,    0,    0,    1,    0,    0 ]
   @UHF iter  12:  -127.08270353095200   -1.57175e-02   +2.09058e-01 DIIS
	Occupation by irrep:
	         Ag   B1g   B2g   B3g    Au   B1u   B2u   B3u 
	DOCC [     2,    0,    0,    0,    0,    1,    1,    0 ]
	SOCC [     0,    0,    0,    0,    0,    0,    0,    1 ]
   @UHF iter  13:  -127.08684987492198   -4.14634e-03   +2.08343e-01 DIIS
	Occupation by irrep:
	         Ag   B1g   B2g   B3g    Au   B1u   B2u   B3u 
	DOCC [     2,    0,    0,    0,    0,    0,    1,    1 ]
	SOCC [     0,    0,    0,    0,    0,    1,    0,    0 ]
   @UHF iter  14:  -127.07149111576472   +1.53588e-02   +2.08280e-01 DIIS
   @UHF iter  15:  -127.07743769044365   -5.94657e-03   +2.58023e-02 DIIS
	Occupation by irrep:
	         Ag   B1g   B2g   B3g    Au   B1u   B2u   B3u 
	DOCC [     2,    0,    0,    0,    0,    1,    1,    0 ]
	SOCC [     0,    0,    0,    0,    0,    0,    0,    1 ]
   @UHF iter  16:  -127.08173672210586   -4.29903e-03   +2.08477e-01 DIIS
	Occupation by irrep:
	         Ag   B1g   B2g   B3g    Au   B1u   B2u   B3u 
	DOCC [     2,    0,    0,    0,    0,    1,    0,    1 ]
	SOCC [     0,    0,    0,    0,    0,    0,    1,    0 ]
   @UHF iter  17:  -127.08866889781345   -6.93218e-03   +2.08205e-01 DIIS
   @UHF iter  18:  -127.07867087948001   +9.99802e-03   +9.38209e-03 DIIS
	Occupation by irrep:
	         Ag   B1g   B2g   B3g    Au   B1u   B2u   B3u 
	DOCC [     2,    0,    0,    0,    0,    1,    1,    0 ]
	SOCC [     0,    0,    0,    0,    0,    0,    0,    1 ]
   @UHF iter  19:  -126.97015312492874   +1.08518e-01   +2.12545e-01 DIIS
   @UHF iter  20:  -126.94714104902855   +2.30121e-02   +7.58519e-03 DIIS
   @UHF iter  21:  -126.95134595030146   -4.20490e-03   +1.20116e-03 DIIS
   @UHF iter  22:  -126.95489439442323   -3.54844e-03   +1.01928e-03 DIIS
   @UHF iter  23:  -126.95663469149457   -1.74030e-03   +5.04330e-04 DIIS
   @UHF iter  24:  -126.95740595516169   -7.71264e-04   +2.24414e-04 DIIS
   @UHF iter  25:  -126.95773808753452   -3.32132e-04   +9.68090e-05 DIIS
   @UHF iter  26:  -126.95787984011871   -1.41753e-04   +4.13482e-05 DIIS
   @UHF iter  27:  -126.95794016794434   -6.03278e-05   +1.76027e-05 DIIS
   @UHF iter  28:  -126.95796582166587   -2.56537e-05   +7.48634e-06 DIIS
   @UHF iter  29:  -126.95797672688037   -1.09052e-05   +3.18257e-06 DIIS
   @UHF iter  30:  -126.95798136190935   -4.63503e-06   +1.35271e-06 DIIS
   @UHF iter  31:  -126.95798333106195   -1.96915e-06   +5.74694e-07 DIIS
   @UHF iter  32:  -126.95798416824984   -8.37188e-07   +2.44333e-07 DIIS
   @UHF iter  33:  -126.95798452523111   -3.56981e-07   +1.04185e-07 DIIS
   @UHF iter  34:  -126.95798467626162   -1.51031e-07   +4.40780e-08 DIIS
   @UHF iter  35:  -126.95798474070961   -6.44480e-08   +1.88093e-08 DIIS
   @UHF iter  36:  -126.95798476748301   -2.67734e-08   +7.81365e-09 DIIS
   @UHF iter  37:  -126.95798477875843   -1.12754e-08   +3.29073e-09 DIIS
   @UHF iter  38:  -126.95798478422313   -5.46470e-09   +1.59511e-09 DIIS

  ==> Post-Iterations <==

	Orbital Energies (a.u.)
	-----------------------

	Alpha Occupied:                                                       

	   1Ag   -33.545288     2Ag    -2.724534     1B2u   -1.846867  
	   1B1u   -1.577767     1B3u   -1.552881  

	Alpha Virtual:                                                        

	   2B2u    1.769851     2B1u    1.965363     2B3u    1.984017  
	   3Ag     3.264714  

	Beta Occupied:                                                        

	   1Ag   -33.487395     2Ag    -2.508150     1B1u   -1.883477  
	   1B2u    0.137693  

	Beta Virtual:                                                         

	   1B3u   -2.085229     2B3u    1.904997     2B1u    1.927105  
	   2B2u    2.299350     3Ag     3.347741  

	Final Occupation by Irrep:
	         Ag   B1g   B2g   B3g    Au   B1u   B2u   B3u 
	DOCC [     2,    0,    0,    0,    0,    1,    1,    0 ]
	SOCC [     0,    0,    0,    0,    0,    0,    0,    1 ]

  Energy converged.

  @UHF Final Energy:  -126.95798478422313

  ==> Properties <==

 OEPROP: One-electron properties/analyses.
  by Rob Parrish and Justin Turney.
  built on LIBMINTS.

 Dipole Moment: (a.u.)
     X:     0.0000      Y:     0.0000      Z:     0.0000     Total:     0.0000

 Dipole Moment: (Debye)
     X:     0.0000      Y:     0.0000      Z:     0.0000     Total:     0.0000


  @Spin Contamination Metric:  0.06509
  @S^2 Expected:               0.75000
  @S^2 Observed:               0.81509

  Saving occupied orbitals to File 100.

*** tstop() called on Alex-2.local at Tue Aug 23 15:14:10 2011
	user time   =       0.16 seconds =       0.00 minutes
	system time =       0.04 seconds =       0.00 minutes
	total time  =          1 seconds =       0.02 minutes

*** tstart() called on Alex-2.local
*** at Tue Aug 23 15:14:10 2011



		*******************************************
		*  DCFT - A Density Cumulant Functional   *
		*  Theory code written by Andy Simmonett  *
		*******************************************



	Computing MP2 amplitude guess...

	Transforming the one-electron integrals and constructing Fock matrices
	*Total Hartree-Fock energy        = -126.957984784223129
	 Alpha - Alpha MP2 energy         =   -0.014318291165589
	 Alpha - Beta  MP2 energy         =   -0.058164660292945
	 Beta  - Beta  MP2 energy         =   -0.006227412424686
	 Total MP2 correlation energy     =   -0.078710363883221
	*Total MP2 energy                 = -127.036695148106361


	*=================================================================================*
	* Cycle  RMS [F, Kappa]   RMS Lambda Error   delta E        Total Energy     DIIS *
	*---------------------------------------------------------------------------------*
	                          *** Macro Iteration 1 ***
	Cumulant Iterations
	* 1        1.350e-01         5.815e-03     -9.013e-02   -127.126824954845219      *
	* 2        1.350e-01         1.574e-03     -2.189e-03   -127.129013943971387      *
	* 3        1.350e-01         4.790e-04     -5.942e-04   -127.129608162104617  S   *
	* 4        1.350e-01         1.628e-04     -1.814e-04   -127.129789596106463  S   *
	* 5        1.350e-01         6.162e-05     -8.084e-05   -127.129870436661847  S/E *
	* 6        1.350e-01         1.498e-06     -1.472e-05   -127.129885159548635  S/E *
	* 7        1.350e-01         8.171e-08     -8.731e-08   -127.129885246861591  S/E *
	* 8        1.350e-01         1.206e-08     -2.246e-09   -127.129885249107375  S/E *
	* 9        1.350e-01         1.827e-09      5.351e-10   -127.129885248572236  S/E *
	* 10       1.350e-01         1.711e-09     -1.760e-10   -127.129885248748252  S/E *
	* 11       1.350e-01         2.610e-10     -2.345e-11   -127.129885248771700  S/E *
	* 12       1.350e-01         2.108e-10      5.437e-11   -127.129885248717329  S/E *
	* 13       1.350e-01         1.788e-10      3.492e-11   -127.129885248682413  S/E *
	* 14       1.350e-01         1.632e-10      2.433e-11   -127.129885248658084  S/E *
	* 15       1.350e-01         2.248e-10      2.018e-12   -127.129885248656066  S/E *
	Orbital Updates
	* 1        1.351e-01         2.248e-10      8.873e-02   -127.041150370490371      *
	* 2        4.259e-02         2.248e-10     -1.254e-01   -127.166590885445828      *
	* 3        1.305e-02         2.248e-10     -1.126e-02   -127.177852142230449      *
	* 4        4.358e-03         2.248e-10     -1.164e-03   -127.179015995109438      *
	* 5        1.508e-03         2.248e-10     -1.330e-04   -127.179149039647129      *
	* 6        5.419e-04         2.248e-10     -1.648e-05   -127.179165515231162  S   *
	* 7        2.011e-04         2.248e-10     -2.178e-06   -127.179167692749431  S   *
	* 8        7.579e-05         2.248e-10     -3.021e-07   -127.179167994808921  S   *
	* 9        2.906e-05         2.248e-10     -4.337e-08   -127.179168038177679  S/E *
	* 10       1.446e-07         2.248e-10     -7.497e-09   -127.179168045674245  S/E *
	* 11       4.384e-09         2.248e-10     -2.132e-13   -127.179168045674459  S/E *
	                          *** Macro Iteration 2 ***
	Cumulant Iterations
	* 1        4.384e-09         3.516e-03     -3.239e-03   -127.182406888265476      *
	* 2        4.384e-09         4.927e-04     -1.515e-04   -127.182558415416239  S   *
	* 3        4.384e-09         1.482e-04     -5.279e-05   -127.182611206070490  S   *
	* 4        4.384e-09         5.596e-05     -3.161e-05   -127.182642813622209  S/E *
	* 5        4.384e-09         2.587e-06     -7.416e-06   -127.182650229190557  S/E *
	* 6        4.384e-09         3.884e-07     -2.950e-07   -127.182650524194869  S/E *
	* 7        4.384e-09         7.832e-08     -5.683e-08   -127.182650581026778  S/E *
	* 8        4.384e-09         1.067e-08     -1.213e-08   -127.182650593153525  S/E *
	* 9        4.384e-09         2.269e-09     -1.403e-09   -127.182650594556364  S/E *
	* 10       4.384e-09         1.253e-09     -2.652e-10   -127.182650594821610  S/E *
	* 11       4.384e-09         9.269e-10      5.001e-11   -127.182650594771602  S/E *
	* 12       4.384e-09         7.798e-10      1.661e-11   -127.182650594754989  S/E *
	* 13       4.384e-09         7.886e-10     -3.212e-10   -127.182650595076154  S/E *
	* 14       4.384e-09         2.306e-10      1.109e-10   -127.182650594965295  S/E *
	* 15       4.384e-09         3.528e-10      7.020e-12   -127.182650594958275  S/E *
	Orbital Updates
	* 1        4.280e-04         3.528e-10      2.322e-03   -127.180328565819778  S   *
	* 2        1.404e-04         3.528e-10     -1.315e-06   -127.180329881051492  S   *
	* 3        4.901e-05         3.528e-10     -1.475e-07   -127.180330028544134  S   *
	* 4        1.767e-05         3.528e-10     -1.804e-08   -127.180330046589120  S/E *
	* 5        4.158e-07         3.528e-10     -2.736e-09   -127.180330049324752  S/E *
	* 6        3.041e-08         3.528e-10     -1.421e-12   -127.180330049326173  S/E *
	                          *** Macro Iteration 3 ***
	Cumulant Iterations
	* 1        3.041e-08         1.267e-05      4.589e-06   -127.180325460239857  S   *
	* 2        3.041e-08         1.964e-06     -1.371e-07   -127.180325597329443  S   *
	* 3        3.041e-08         4.379e-07     -1.184e-08   -127.180325609171391  S/E *
	* 4        3.041e-08         4.064e-08      1.424e-08   -127.180325594931276  S/E *
	* 5        3.041e-08         5.869e-09      5.108e-09   -127.180325589823255  S/E *
	* 6        3.041e-08         7.011e-10      6.262e-10   -127.180325589197082  S/E *
	* 7        3.041e-08         3.915e-10      5.693e-11   -127.180325589140153  S/E *
	* 8        3.041e-08         3.323e-10      2.484e-11   -127.180325589115313  S/E *
	* 9        3.041e-08         3.113e-10      2.527e-11   -127.180325589090046  S/E *
	* 10       3.041e-08         2.790e-10     -5.454e-11   -127.180325589144587  S/E *
	* 11       3.041e-08         3.448e-10      1.178e-10   -127.180325589026779  S/E *
	* 12       3.041e-08         1.374e-10      5.599e-11   -127.180325588970788  S/E *
	* 13       3.041e-08         1.087e-10      1.641e-11   -127.180325588954375  S/E *
	* 14       3.041e-08         9.321e-11      1.444e-11   -127.180325588939937  S/E *
	* 15       3.041e-08         7.978e-11      1.369e-11   -127.180325588926252  S/E *
	* 16       3.041e-08         6.493e-11      1.270e-11   -127.180325588913547  S/E *
	* 17       3.041e-08         5.078e-11      1.170e-11   -127.180325588901852  S/E *
	* 18       3.041e-08         3.795e-11      7.432e-12   -127.180325588894419  S/E *
	Orbital Updates
	* 1        1.549e-06         3.795e-11      3.494e-07   -127.180325239531712  S   *
	* 2        5.502e-07         3.795e-11     -1.873e-11   -127.180325239550442  S   *
	* 3        2.013e-07         3.795e-11     -2.331e-12   -127.180325239552772  S   *
	                          *** Macro Iteration 4 ***
	Cumulant Iterations
	* 1        2.013e-07         3.190e-08     -7.359e-09   -127.180325246912048  S   *
	* 2        2.013e-07         6.008e-09     -1.966e-09   -127.180325248878432  S   *
	* 3        2.013e-07         2.080e-09     -9.267e-10   -127.180325249805151  S/E *
	* 4        2.013e-07         8.798e-10     -2.973e-10   -127.180325250102456  S/E *
	* 5        2.013e-07         6.474e-10     -1.051e-10   -127.180325250207588  S/E *
	* 6        2.013e-07         5.248e-10     -6.270e-11   -127.180325250270286  S/E *
	* 7        2.013e-07         4.476e-10      9.859e-11   -127.180325250171691  S/E *
	* 8        2.013e-07         6.601e-10     -1.126e-10   -127.180325250284284  S/E *
	* 9        2.013e-07         3.731e-10     -1.091e-10   -127.180325250393395  S/E *
	* 10       2.013e-07         2.570e-10     -4.536e-11   -127.180325250438756  S/E *
	* 11       2.013e-07         2.127e-10     -2.615e-11   -127.180325250464904  S/E *
	* 12       2.013e-07         1.806e-10     -2.507e-11   -127.180325250489972  S/E *
	* 13       2.013e-07         1.474e-10     -2.173e-11   -127.180325250511700  S/E *
	* 14       2.013e-07         1.206e-10     -1.856e-11   -127.180325250530259  S/E *
	* 15       2.013e-07         9.750e-11     -1.634e-11   -127.180325250546602  S/E *
	* 16       2.013e-07         7.680e-11     -1.182e-11   -127.180325250558425  S/E *
	* 17       2.013e-07         6.321e-11     -9.223e-12   -127.180325250567648  S/E *
	Orbital Updates
	* 1        6.925e-08         6.321e-11      6.715e-09   -127.180325243852181  S   *
	* 2        2.633e-08         6.321e-11     -1.421e-14   -127.180325243852195  S   *
	                          *** Macro Iteration 5 ***
	Cumulant Iterations
	* 1        2.633e-08         1.680e-09     -1.105e-09   -127.180325244956862  S   *
	* 2        2.633e-08         3.157e-10     -1.208e-10   -127.180325245077654  S   *
	* 3        2.633e-08         9.783e-11     -4.974e-12   -127.180325245082628  S/E *
	Orbital Updates
	* 1        9.851e-09         9.783e-11      6.882e-10   -127.180325244394467  S   *
	* 2        3.811e-09         9.783e-11      1.421e-14   -127.180325244394453  S   *
	                          *** Macro Iteration 6 ***
	Cumulant Iterations
	* 1        3.811e-09         3.632e-10     -1.848e-10   -127.180325244579222  S   *
	* 2        3.811e-09         9.006e-11     -4.299e-11   -127.180325244622210  S   *
	* 3        3.811e-09         3.383e-11     -2.473e-12   -127.180325244624683  S/E *
	Orbital Updates
	* 1        1.444e-09         3.383e-11      1.568e-10   -127.180325244467909  S   *
	* 2        5.631e-10         3.383e-11     -1.421e-14   -127.180325244467923  S   *
	                          *** Macro Iteration 7 ***
	Cumulant Iterations
	* 1        5.631e-10         7.255e-11     -3.448e-11   -127.180325244502399  S   *
	* 2        5.631e-10         2.335e-11     -1.275e-11   -127.180325244515146  S   *
	* 3        5.631e-10         9.838e-12     -8.242e-13   -127.180325244515970  S/E *
	Orbital Updates
	* 1        2.146e-10         9.838e-12      3.800e-11   -127.180325244477970  S   *
	* 2        8.397e-11         9.838e-12      0.000e+00   -127.180325244477970  S   *
	                          *** Macro Iteration 8 ***
	Cumulant Iterations
	* 1        8.397e-11         1.564e-11     -7.077e-12   -127.180325244485047  S   *
	Orbital Updates
	* 1        3.208e-11         1.564e-11      7.233e-12   -127.180325244477814  S   *
	                          *** Macro Iteration 9 ***
	Cumulant Iterations
	* 1        3.208e-11         6.344e-12     -3.894e-12   -127.180325244481708  S   *
	Orbital Updates
	* 1        1.248e-11         6.344e-12      2.927e-12   -127.180325244478780  S   *
	*=================================================================================*

	*DCFT SCF Energy                       = -127.004946678659223
	*DCFT Lambda Energy                    =   -0.175378565819554
	*DCFT Total Energy                     = -127.180325244478780

	Orbital occupations:
		Alpha occupied orbitals
		   1Ag       1.0000     2Ag       0.9981     1B3u      0.9968     1B2u      0.9964  
		   1B1u      0.9964  

		Beta occupied orbitals
		   1Ag       1.0000     2Ag       0.9977     1B2u      0.9960     1B1u      0.9960  
		

		Alpha virtual orbitals
		   2B1u      0.0036     2B2u      0.0036     2B3u      0.0030     3Ag       0.0020  
		

		Beta virtual orbitals
		   2B2u      0.0038     2B1u      0.0038     3Ag       0.0021     1B3u      0.0003  
		   2B3u      0.0003  


*** tstop() called on Alex-2.local at Tue Aug 23 15:14:13 2011
	user time   =       0.89 seconds =       0.01 minutes
	system time =       0.65 seconds =       0.01 minutes
	total time  =          3 seconds =       0.05 minutes

*** tstart() called on Alex-2.local
*** at Tue Aug 23 15:14:13 2011


         ---------------------------------------------------------
                                   SCF
            by Justin Turney, Rob Parrish, and Andy Simmonnett
                              UHF Reference
                        1 Threads,    256 MiB Core
         ---------------------------------------------------------

  ==> Geometry <==

    Molecular point group: d2h

    Geometry (in Angstrom), charge = 1, multiplicity = 2:

       Center              X                  Y                   Z       
    ------------   -----------------  -----------------  -----------------
          NE          0.000000000000     0.000000000000     0.000000000000

    Number of unique atoms: 1

    Atoms equivalency:
       unique atom 0: 0 

  Running in d2h symmetry.

  Nuclear repulsion =    0.000000000000000

  Charge       = 1
  Multiplicity = 2
  Electrons    = 9
  Nalpha       = 5
  Nbeta        = 4

  ==> Algorithm <==

  SCF Algorithm Type is PK.
  DIIS enabled.
  MOM disabled.
  Guess Type is CORE.
  Energy threshold   = 1.00e-08
  Density threshold  = 1.00e-08
  Integral threshold = 0.00e+00

  ==> Primary Basis: 3-21G <==

  Basis Set
    Number of shells: 5
    Number of basis function: 9
    Number of Cartesian functions: 9
    Spherical Harmonics?: false
    Max angular momentum: 1

  ==> Pre-Iterations <==

  Minimum eigenvalue in the overlap matrix is 2.7203037040E-01.
  Using Symmetric Orthogonalization.
  SCF Guess: Core (One-Electron) Hamiltonian.

  Initial UHF energy:   -92.03700110054427

   -------------------------------------------------------
    Irrep   Nso     Nmo     Nalpha   Nbeta   Ndocc  Nsocc
   -------------------------------------------------------
     Ag         3       3       2       2       2       0
     B1g        0       0       0       0       0       0
     B2g        0       0       0       0       0       0
     B3g        0       0       0       0       0       0
     Au         0       0       0       0       0       0
     B1u        2       2       1       1       1       0
     B2u        2       2       1       1       1       0
     B3u        2       2       1       0       0       1
   -------------------------------------------------------
    Total       9       9       5       4       4       1
   -------------------------------------------------------

  ==> Integral Setup <==

 MINTS: Wrapper to libmints.
   by Justin Turney

   Calculation information:
      Number of atoms:                   1
      Number of AO shells:               5
      Number of SO shells:               5
      Number of primitives:              9
      Number of atomic orbitals:         9
      Number of basis functions:         9

      Number of irreps:                  8
      Number of functions per irrep: [   3    0    0    0    0    2    2    2 ]

      Computing integrals...done

      Computed 213 non-zero integrals.

  ==> Iterations <==

                        Total Energy        Delta E     Density RMS

   @UHF iter   1:  -120.38451299836437   -2.83475e+01   +0.00000e+00  
	Occupation by irrep:
	         Ag   B1g   B2g   B3g    Au   B1u   B2u   B3u 
	DOCC [     2,    0,    0,    0,    0,    1,    0,    1 ]
	SOCC [     0,    0,    0,    0,    0,    0,    1,    0 ]
   @UHF iter   2:  -126.23234398371822   -5.84783e+00   +8.27929e-01 DIIS
	Occupation by irrep:
	         Ag   B1g   B2g   B3g    Au   B1u   B2u   B3u 
	DOCC [     2,    0,    0,    0,    0,    0,    1,    1 ]
	SOCC [     0,    0,    0,    0,    0,    1,    0,    0 ]
   @UHF iter   3:  -127.06583880427347   -8.33495e-01   +2.81748e-01 DIIS
	Occupation by irrep:
	         Ag   B1g   B2g   B3g    Au   B1u   B2u   B3u 
	DOCC [     2,    0,    0,    0,    0,    1,    0,    1 ]
	SOCC [     0,    0,    0,    0,    0,    0,    1,    0 ]
   @UHF iter   4:  -127.06286281579753   +2.97599e-03   +2.10741e-01 DIIS
	Occupation by irrep:
	         Ag   B1g   B2g   B3g    Au   B1u   B2u   B3u 
	DOCC [     2,    0,    0,    0,    0,    1,    1,    0 ]
	SOCC [     0,    0,    0,    0,    0,    0,    0,    1 ]
   @UHF iter   5:  -127.07822576063649   -1.53629e-02   +2.08627e-01 DIIS
	Occupation by irrep:
	         Ag   B1g   B2g   B3g    Au   B1u   B2u   B3u 
	DOCC [     2,    0,    0,    0,    0,    1,    0,    1 ]
	SOCC [     0,    0,    0,    0,    0,    0,    1,    0 ]
   @UHF iter   6:  -127.06828286974277   +9.94289e-03   +2.08944e-01 DIIS
	Occupation by irrep:
	         Ag   B1g   B2g   B3g    Au   B1u   B2u   B3u 
	DOCC [     2,    0,    0,    0,    0,    0,    1,    1 ]
	SOCC [     0,    0,    0,    0,    0,    1,    0,    0 ]
   @UHF iter   7:  -127.02825871225663   +4.00242e-02   +2.09488e-01 DIIS
   @UHF iter   8:  -127.03496057117498   -6.70186e-03   +4.79179e-02 DIIS
	Occupation by irrep:
	         Ag   B1g   B2g   B3g    Au   B1u   B2u   B3u 
	DOCC [     2,    0,    0,    0,    0,    1,    0,    1 ]
	SOCC [     0,    0,    0,    0,    0,    0,    1,    0 ]
   @UHF iter   9:  -127.06604784339365   -3.10873e-02   +2.09559e-01 DIIS
   @UHF iter  10:  -127.06980843347500   -3.76059e-03   +7.16730e-03 DIIS
   @UHF iter  11:  -127.06698607261598   +2.82236e-03   +1.73618e-03 DIIS
	Occupation by irrep:
	         Ag   B1g   B2g   B3g    Au   B1u   B2u   B3u 
	DOCC [     2,    0,    0,    0,    0,    0,    1,    1 ]
	SOCC [     0,    0,    0,    0,    0,    1,    0,    0 ]
   @UHF iter  12:  -127.08270353095200   -1.57175e-02   +2.09058e-01 DIIS
	Occupation by irrep:
	         Ag   B1g   B2g   B3g    Au   B1u   B2u   B3u 
	DOCC [     2,    0,    0,    0,    0,    1,    1,    0 ]
	SOCC [     0,    0,    0,    0,    0,    0,    0,    1 ]
   @UHF iter  13:  -127.08684987492198   -4.14634e-03   +2.08343e-01 DIIS
	Occupation by irrep:
	         Ag   B1g   B2g   B3g    Au   B1u   B2u   B3u 
	DOCC [     2,    0,    0,    0,    0,    0,    1,    1 ]
	SOCC [     0,    0,    0,    0,    0,    1,    0,    0 ]
   @UHF iter  14:  -127.07149111576472   +1.53588e-02   +2.08280e-01 DIIS
   @UHF iter  15:  -127.07743769044365   -5.94657e-03   +2.58023e-02 DIIS
	Occupation by irrep:
	         Ag   B1g   B2g   B3g    Au   B1u   B2u   B3u 
	DOCC [     2,    0,    0,    0,    0,    1,    1,    0 ]
	SOCC [     0,    0,    0,    0,    0,    0,    0,    1 ]
   @UHF iter  16:  -127.08173672210586   -4.29903e-03   +2.08477e-01 DIIS
	Occupation by irrep:
	         Ag   B1g   B2g   B3g    Au   B1u   B2u   B3u 
	DOCC [     2,    0,    0,    0,    0,    1,    0,    1 ]
	SOCC [     0,    0,    0,    0,    0,    0,    1,    0 ]
   @UHF iter  17:  -127.08866889781345   -6.93218e-03   +2.08205e-01 DIIS
   @UHF iter  18:  -127.07867087948001   +9.99802e-03   +9.38209e-03 DIIS
	Occupation by irrep:
	         Ag   B1g   B2g   B3g    Au   B1u   B2u   B3u 
	DOCC [     2,    0,    0,    0,    0,    1,    1,    0 ]
	SOCC [     0,    0,    0,    0,    0,    0,    0,    1 ]
   @UHF iter  19:  -126.97015312492874   +1.08518e-01   +2.12545e-01 DIIS
   @UHF iter  20:  -126.94714104902855   +2.30121e-02   +7.58519e-03 DIIS
   @UHF iter  21:  -126.95134595030146   -4.20490e-03   +1.20116e-03 DIIS
   @UHF iter  22:  -126.95489439442323   -3.54844e-03   +1.01928e-03 DIIS
   @UHF iter  23:  -126.95663469149457   -1.74030e-03   +5.04330e-04 DIIS
   @UHF iter  24:  -126.95740595516169   -7.71264e-04   +2.24414e-04 DIIS
   @UHF iter  25:  -126.95773808753452   -3.32132e-04   +9.68090e-05 DIIS
   @UHF iter  26:  -126.95787984011871   -1.41753e-04   +4.13482e-05 DIIS
   @UHF iter  27:  -126.95794016794434   -6.03278e-05   +1.76027e-05 DIIS
   @UHF iter  28:  -126.95796582166587   -2.56537e-05   +7.48634e-06 DIIS
   @UHF iter  29:  -126.95797672688037   -1.09052e-05   +3.18257e-06 DIIS
   @UHF iter  30:  -126.95798136190935   -4.63503e-06   +1.35271e-06 DIIS
   @UHF iter  31:  -126.95798333106195   -1.96915e-06   +5.74694e-07 DIIS
   @UHF iter  32:  -126.95798416824984   -8.37188e-07   +2.44333e-07 DIIS
   @UHF iter  33:  -126.95798452523111   -3.56981e-07   +1.04185e-07 DIIS
   @UHF iter  34:  -126.95798467626162   -1.51031e-07   +4.40780e-08 DIIS
   @UHF iter  35:  -126.95798474070961   -6.44480e-08   +1.88093e-08 DIIS
   @UHF iter  36:  -126.95798476748301   -2.67734e-08   +7.81365e-09 DIIS
   @UHF iter  37:  -126.95798477875843   -1.12754e-08   +3.29073e-09 DIIS
   @UHF iter  38:  -126.95798478422313   -5.46470e-09   +1.59511e-09 DIIS

  ==> Post-Iterations <==

	Orbital Energies (a.u.)
	-----------------------

	Alpha Occupied:                                                       

	   1Ag   -33.545288     2Ag    -2.724534     1B2u   -1.846867  
	   1B1u   -1.577767     1B3u   -1.552881  

	Alpha Virtual:                                                        

	   2B2u    1.769851     2B1u    1.965363     2B3u    1.984017  
	   3Ag     3.264714  

	Beta Occupied:                                                        

	   1Ag   -33.487395     2Ag    -2.508150     1B1u   -1.883477  
	   1B2u    0.137693  

	Beta Virtual:                                                         

	   1B3u   -2.085229     2B3u    1.904997     2B1u    1.927105  
	   2B2u    2.299350     3Ag     3.347741  

	Final Occupation by Irrep:
	         Ag   B1g   B2g   B3g    Au   B1u   B2u   B3u 
	DOCC [     2,    0,    0,    0,    0,    1,    1,    0 ]
	SOCC [     0,    0,    0,    0,    0,    0,    0,    1 ]

  Energy converged.

  @UHF Final Energy:  -126.95798478422313

  ==> Properties <==

 OEPROP: One-electron properties/analyses.
  by Rob Parrish and Justin Turney.
  built on LIBMINTS.

 Dipole Moment: (a.u.)
     X:     0.0000      Y:     0.0000      Z:     0.0000     Total:     0.0000

 Dipole Moment: (Debye)
     X:     0.0000      Y:     0.0000      Z:     0.0000     Total:     0.0000


  @Spin Contamination Metric:  0.06509
  @S^2 Expected:               0.75000
  @S^2 Observed:               0.81509

  Saving occupied orbitals to File 100.

*** tstop() called on Alex-2.local at Tue Aug 23 15:14:13 2011
	user time   =       0.99 seconds =       0.02 minutes
	system time =       0.66 seconds =       0.01 minutes
	total time  =          0 seconds =       0.00 minutes

*** tstart() called on Alex-2.local
*** at Tue Aug 23 15:14:13 2011



		*******************************************
		*  DCFT - A Density Cumulant Functional   *
		*  Theory code written by Andy Simmonett  *
		*******************************************



	Computing MP2 amplitude guess...

	Transforming the one-electron integrals and constructing Fock matrices
	*Total Hartree-Fock energy        = -126.957984784223129
	 Alpha - Alpha MP2 energy         =   -0.014318291165589
	 Alpha - Beta  MP2 energy         =   -0.058164660292945
	 Beta  - Beta  MP2 energy         =   -0.006227412424686
	 Total MP2 correlation energy     =   -0.078710363883221
	*Total MP2 energy                 = -127.036695148106361


	*=================================================================================*
	* Cycle  RMS [F, Kappa]   RMS Lambda Error   delta E        Total Energy     DIIS *
	*---------------------------------------------------------------------------------*
	* 1        1.351e-01         5.815e-03     -1.139e-02   -127.048083146659195      *
	* 2        4.229e-02         3.653e-03     -1.215e-01   -127.169558902639508      *
	* 3        1.287e-02         1.795e-03     -9.883e-03   -127.179441499027519      *
	* 4        4.265e-03         6.504e-04     -4.448e-04   -127.179886279368390      *
	* 5        1.463e-03         2.119e-04     -5.702e-04   -127.180456456211473      *
	* 6        5.223e-04         9.262e-05      1.320e-04   -127.180324433692206  S   *
	* 7        1.923e-04         3.812e-05     -2.079e-05   -127.180345224209589  S   *
	* 8        7.202e-05         1.786e-05      1.584e-05   -127.180329383778655  S   *
	* 9        2.740e-05         8.009e-06      7.585e-07   -127.180328625231908  S/E *
	* 10       1.336e-07         6.387e-07      3.178e-06   -127.180325447270036  S/E *
	* 11       2.385e-08         1.251e-07      1.271e-07   -127.180325320185858  S/E *
	* 12       4.504e-09         2.380e-08      7.722e-08   -127.180325242962240  S/E *
	* 13       1.030e-09         3.626e-09     -1.470e-09   -127.180325244432353  S/E *
	* 14       9.948e-11         4.308e-10     -3.204e-10   -127.180325244752794  S/E *
	* 15       7.892e-11         2.276e-10      1.359e-10   -127.180325244616853  S/E *
	* 16       4.518e-11         1.609e-10      4.393e-11   -127.180325244572927  S/E *
	* 17       5.444e-11         1.539e-10      6.463e-11   -127.180325244508296  S/E *
	* 18       3.993e-11         1.541e-10     -2.856e-12   -127.180325244511153  S/E *
	* 19       6.009e-11         2.343e-10     -6.224e-11   -127.180325244573396  S/E *
	* 20       1.648e-11         6.737e-11      7.317e-11   -127.180325244500224  S/E *
	* 21       1.284e-11         5.134e-11      5.343e-12   -127.180325244494881  S/E *
	* 22       1.059e-11         4.282e-11      5.400e-12   -127.180325244489481  S/E *
	* 23       7.628e-12         3.404e-11      2.586e-12   -127.180325244486895  S/E *
	* 24       5.384e-12         2.854e-11      3.837e-13   -127.180325244486511  S/E *
	* 25       4.121e-12         2.203e-11      1.762e-12   -127.180325244484749  S/E *
	* 26       2.658e-12         1.641e-11      9.948e-13   -127.180325244483754  S/E *
	* 27       2.019e-12         1.312e-11      1.194e-12   -127.180325244482560  S/E *
	* 28       1.516e-12         1.063e-11      8.384e-13   -127.180325244481722  S/E *
	* 29       1.134e-12         8.555e-12      4.547e-13   -127.180325244481267  S/E *
	*=================================================================================*

	*DCFT SCF Energy                       = -127.004946678660417
	*DCFT Lambda Energy                    =   -0.175378565820851
	*DCFT Total Energy                     = -127.180325244481267

	Orbital occupations:
		Alpha occupied orbitals
		   1Ag       1.0000     2Ag       0.9981     1B3u      0.9968     1B1u      0.9964  
		   1B2u      0.9964  

		Beta occupied orbitals
		   1Ag       1.0000     2Ag       0.9977     1B1u      0.9960     1B2u      0.9960  
		

		Alpha virtual orbitals
		   2B2u      0.0036     2B1u      0.0036     2B3u      0.0030     3Ag       0.0020  
		

		Beta virtual orbitals
		   2B2u      0.0038     2B1u      0.0038     3Ag       0.0021     1B3u      0.0003  
		   2B3u      0.0003  


*** tstop() called on Alex-2.local at Tue Aug 23 15:14:16 2011
	user time   =       1.72 seconds =       0.03 minutes
	system time =       1.42 seconds =       0.02 minutes
	total time  =          3 seconds =       0.05 minutes

*** PSI4 exiting successfully, buy a developer a beer!
