
    -----------------------------------------------------------------------
          Psi4: An Open-Source Ab Initio Electronic Structure Package
                               Psi4 1.1rc3.dev5 

                         Git: Rev {master} 3fbd859 


    R. M. Parrish, L. A. Burns, D. G. A. Smith, A. C. Simmonett,
    A. E. DePrince III, E. G. Hohenstein, U. Bozkaya, A. Yu. Sokolov,
    R. Di Remigio, R. M. Richard, J. F. Gonthier, A. M. James,
    H. R. McAlexander, A. Kumar, M. Saitow, X. Wang, B. P. Pritchard,
    P. Verma, H. F. Schaefer III, K. Patkowski, R. A. King, E. F. Valeev,
    F. A. Evangelista, J. M. Turney, T. D. Crawford, and C. D. Sherrill,
    J. Chem. Theory Comput. in press (2017).
    (doi: 10.1021/acs.jctc.7b00174)

    -----------------------------------------------------------------------


    Psi4 started on: Monday, 15 May 2017 03:35PM

    Process ID:  13561
    PSIDATADIR: /home/psilocaluser/gits/hrw-direct/objdir4/stage/usr/local/psi4/share/psi4
    Memory:     500.0 MiB
    Threads:    1
    
  ==> Input File <==

--------------------------------------------------------------------------
#! DCFT calculation for the triplet O2 using DC-06, DC-12 and CEPA0 functionals. 
#! Only two-step algorithm is tested.

refscf      = -149.65367728294785   #TEST
refmp2      = -150.17316961260252   #TEST

# DC-06
refdcftscf  = -149.08581589084218   #TEST
refdcft     = -150.190274002583237  #TEST

# DC-12                             #TEST
refdcftxscf = -149.101073338708972  #TEST
refdcftx    = -150.185859013565732  #TEST

#CEPA0
refdcftcepa = -150.188254445548893  #TEST

molecule OO {
0 3
O
O 1 R

units bohr
R = 2.000
}

set {
    r_convergence 12
    d_convergence 12
    ao_basis    none
    algorithm   twostep
    basis       cc-pcvtz
    reference   uhf 
}

set dcft_functional dc-06
energy('dcft')

compare_values(refscf, get_variable("SCF TOTAL ENERGY"), 10, "SCF Energy");                                       #TEST
compare_values(refmp2, get_variable("MP2 TOTAL ENERGY"), 10, "MP2 Energy");                                             #TEST
compare_values(refdcftscf, get_variable("DCFT SCF ENERGY"), 10, "DC-06 SCF Energy (two-step, ao_basis=none)");     #TEST
compare_values(refdcft, get_variable("DCFT TOTAL ENERGY"), 10, "DC-06 Energy (two-step, ao_basis=none)");                #TEST

set dcft_functional dc-12
energy('dcft')

compare_values(refdcftxscf, get_variable("DCFT SCF ENERGY"), 10, "DC-12 SCF Energy (two-step, ao_basis=none)");     #TEST
compare_values(refdcftx, get_variable("DCFT TOTAL ENERGY"), 10, "DC-12 Energy (two-step, ao_basis=none)");                #TEST

set dcft_functional cepa0
energy('dcft')

compare_values(refdcftcepa, get_variable("DCFT TOTAL ENERGY"), 10, "CEPA0 Energy (two-step, ao_basis=none)");                #TEST
--------------------------------------------------------------------------

*** tstart() called on psinet
*** at Mon May 15 15:35:23 2017

   => Loading Basis Set <=

    Name: CC-PCVTZ
    Role: ORBITAL
    Keyword: BASIS
    atoms 1-2 entry O          line   317 file /home/psilocaluser/gits/hrw-direct/objdir4/stage/usr/local/psi4/share/psi4/basis/cc-pcvtz.gbs 


         ---------------------------------------------------------
                                   SCF
            by Justin Turney, Rob Parrish, and Andy Simmonett
                              UHF Reference
                        1 Threads,    500 MiB Core
         ---------------------------------------------------------

  ==> Geometry <==

    Molecular point group: d2h
    Full point group: D_inf_h

    Geometry (in Bohr), charge = 0, multiplicity = 3:

       Center              X                  Y                   Z               Mass       
    ------------   -----------------  -----------------  -----------------  -----------------
           O          0.000000000000     0.000000000000    -1.000000000000    15.994914619560
           O          0.000000000000     0.000000000000     1.000000000000    15.994914619560

  Running in d2h symmetry.

  Rotational constants: A = ************  B =      1.88184  C =      1.88184 [cm^-1]
  Rotational constants: A = ************  B =  56416.09372  C =  56416.09372 [MHz]
  Nuclear repulsion =   32.000000000000000

  Charge       = 0
  Multiplicity = 3
  Electrons    = 16
  Nalpha       = 9
  Nbeta        = 7

  ==> Algorithm <==

  SCF Algorithm Type is PK.
  DIIS enabled.
  MOM disabled.
  Fractional occupation disabled.
  Guess Type is GWH.
  Energy threshold   = 1.00e-08
  Density threshold  = 1.00e-12
  Integral threshold = 0.00e+00

  ==> Primary Basis <==

  Basis Set: CC-PCVTZ
    Blend: CC-PCVTZ
    Number of shells: 30
    Number of basis function: 86
    Number of Cartesian functions: 98
    Spherical Harmonics?: true
    Max angular momentum: 3

  ==> Pre-Iterations <==

   -------------------------------------------------------
    Irrep   Nso     Nmo     Nalpha   Nbeta   Ndocc  Nsocc
   -------------------------------------------------------
     Ag        19      19       0       0       0       0
     B1g        4       4       0       0       0       0
     B2g       10      10       0       0       0       0
     B3g       10      10       0       0       0       0
     Au         4       4       0       0       0       0
     B1u       19      19       0       0       0       0
     B2u       10      10       0       0       0       0
     B3u       10      10       0       0       0       0
   -------------------------------------------------------
    Total      86      86       9       7       7       2
   -------------------------------------------------------

  ==> Integral Setup <==

  Using in-core PK algorithm.
   Calculation information:
      Number of atoms:                   2
      Number of AO shells:              30
      Number of primitives:             62
      Number of atomic orbitals:        98
      Number of basis functions:        86

      Integral cutoff                 1.00e-12
      Number of threads:                 1

  Performing in-core PK
  Using 13998822 doubles for integral storage.
  We computed 101732 shell quartets total.
  Whereas there are 108345 unique shell quartets.
  ==> DiskJK: Disk-Based J/K Matrices <==

    J tasked:                  Yes
    K tasked:                  Yes
    wK tasked:                  No
    Memory (MB):               375
    Schwarz Cutoff:          1E-12

    OpenMP threads:              1
  Minimum eigenvalue in the overlap matrix is 1.6797415199E-03.
  Using Symmetric Orthogonalization.

  SCF Guess: Generalized Wolfsberg-Helmholtz.

  ==> Iterations <==

                        Total Energy        Delta E     RMS |[F,P]|

    Occupation by irrep:
             Ag   B1g   B2g   B3g    Au   B1u   B2u   B3u 
    DOCC [     3,    0,    0,    0,    0,    2,    1,    1 ]
    SOCC [     0,    0,    1,    1,    0,    0,    0,    0 ]

   @UHF iter   1:   479.40928935514637    4.79409e+02   5.49346e+00 
   @UHF iter   2:  -130.64070679031448   -6.10050e+02   2.23712e-01 DIIS
   @UHF iter   3:  -145.58185406389194   -1.49411e+01   1.21999e-01 DIIS
   @UHF iter   4:  -149.61908602143887   -4.03723e+00   1.06408e-02 DIIS
   @UHF iter   5:  -149.65062843036853   -3.15424e-02   2.90029e-03 DIIS
   @UHF iter   6:  -149.65354025102775   -2.91182e-03   4.78943e-04 DIIS
   @UHF iter   7:  -149.65367189546242   -1.31644e-04   1.13220e-04 DIIS
   @UHF iter   8:  -149.65367707675642   -5.18129e-06   1.51798e-05 DIIS
   @UHF iter   9:  -149.65367726558998   -1.88834e-07   4.09014e-06 DIIS
   @UHF iter  10:  -149.65367728244510   -1.68551e-08   6.37779e-07 DIIS
   @UHF iter  11:  -149.65367728292713   -4.82032e-10   1.37380e-07 DIIS
   @UHF iter  12:  -149.65367728294711   -1.99805e-11   2.45685e-08 DIIS
   @UHF iter  13:  -149.65367728294763   -5.11591e-13   4.28805e-09 DIIS
   @UHF iter  14:  -149.65367728294763    0.00000e+00   5.38527e-10 DIIS
   @UHF iter  15:  -149.65367728294763    0.00000e+00   8.12691e-11 DIIS
   @UHF iter  16:  -149.65367728294757    5.68434e-14   9.14980e-12 DIIS
   @UHF iter  17:  -149.65367728294771   -1.42109e-13   9.79226e-13 DIIS

  ==> Post-Iterations <==

   @Spin Contamination Metric:   2.987006734E-02
   @S^2 Expected:                2.000000000E+00
   @S^2 Observed:                2.029870067E+00
   @S   Expected:                1.000000000E+00
   @S   Observed:                1.000000000E+00

    Orbital Energies (a.u.)
    -----------------------

    Alpha Occupied:                                                       

       1Ag   -20.720693     1B1u  -20.719199     2Ag    -1.857588  
       2B1u   -1.147190     1B3u   -0.903173     1B2u   -0.903173  
       3Ag    -0.812143     1B3g   -0.480847     1B2g   -0.480847  

    Alpha Virtual:                                                        

       3B1u    0.456848     2B3u    0.661966     2B2u    0.661966  
       4Ag     0.700746     5Ag     0.736877     2B3g    0.798297  
       2B2g    0.798297     4B1u    0.934468     5B1u    1.294683  
       1B1g    1.410878     6Ag     1.410878     3B2u    1.642980  
       3B3u    1.642980     6B1u    1.926335     1Au     1.926335  
       7Ag     2.350885     7B1u    2.473959     3B3g    2.533963  
       3B2g    2.533963     4B3u    3.758443     4B2u    3.758443  
       8Ag     4.054153     4B3g    4.127305     4B2g    4.127305  
       9Ag     4.629772     8B1u    4.757626     2B1g    4.934414  
      10Ag     4.934414     5B2u    5.147096     5B3u    5.147096  
       6B2u    5.207130     6B3u    5.207130     5B2g    5.663376  
       5B3g    5.663376    11Ag     5.915955     9B1u    6.143614  
      10B1u    6.196397     3B1g    6.489150    12Ag     6.489150  
      11B1u    6.490437     2Au     6.490437    12B1u    6.745606  
       3Au     6.745606     6B3g    6.758688     6B2g    6.758688  
       7B2u    7.104799     7B3u    7.104799    13Ag     8.255031  
       7B3g    8.280988     7B2g    8.280988    13B1u   10.563284  
       8B3u   25.804117     8B2u   25.804117     8B3g   26.111344  
       8B2g   26.111344    14B1u   26.693303    14Ag    26.844820  
      15Ag    28.480459    15B1u   29.264886     4B1g   43.653236  
      16Ag    43.653236    17Ag    43.667021     9B2u   43.696920  
       9B3u   43.696920     4Au    43.713001    16B1u   43.713001  
       9B3g   43.891605     9B2g   43.891605    17B1u   45.126952  
      10B2u  138.046258    10B3u  138.046258    10B3g  138.273431  
      10B2g  138.273431    18B1u  138.923484    18Ag   138.997772  
      19Ag   148.312478    19B1u  149.957793  

    Beta Occupied:                                                        

       1Ag   -20.668520     1B1u  -20.666223     2Ag    -1.749125  
       2B1u   -0.941842     3Ag    -0.735793     1B3u   -0.658607  
       1B2u   -0.658607  

    Beta Virtual:                                                         

       1B3g    0.179248     1B2g    0.179248     3B1u    0.486962  
       4Ag     0.700525     2B3u    0.714166     2B2u    0.714166  
       5Ag     0.761262     2B3g    0.898322     2B2g    0.898322  
       4B1u    1.004004     5B1u    1.336539     1B1g    1.460834  
       6Ag     1.460834     3B3u    1.712865     3B2u    1.712865  
       6B1u    2.025454     1Au     2.025454     7Ag     2.385724  
       7B1u    2.496188     3B3g    2.586066     3B2g    2.586066  
       4B2u    3.870683     4B3u    3.870683     8Ag     4.079587  
       4B3g    4.229786     4B2g    4.229786     9Ag     4.673500  
       8B1u    4.803585     2B1g    4.969376    10Ag     4.969376  
       5B3u    5.184033     5B2u    5.184033     6B3u    5.266404  
       6B2u    5.266404     5B2g    5.733192     5B3g    5.733192  
      11Ag     5.986382     9B1u    6.177330    10B1u    6.235652  
      11B1u    6.563732     2Au     6.563732     3B1g    6.616303  
      12Ag     6.616303     6B3g    6.823096     6B2g    6.823096  
      12B1u    6.846637     3Au     6.846637     7B3u    7.163785  
       7B2u    7.163785    13Ag     8.277347     7B2g    8.320332  
       7B3g    8.320332    13B1u   10.609186     8B3u   25.859160  
       8B2u   25.859160     8B3g   26.165829     8B2g   26.165829  
      14B1u   26.712254    14Ag    26.867372    15Ag    28.510788  
      15B1u   29.293521    16Ag    43.689739     4B1g   43.705286  
      17Ag    43.705286     9B2u   43.726805     9B3u   43.726805  
       4Au    43.764904    16B1u   43.764904     9B3g   43.921398  
       9B2g   43.921398    17B1u   45.149393    10B2u  138.059683  
      10B3u  138.059683    10B3g  138.286808    10B2g  138.286808  
      18B1u  138.928984    18Ag   139.003355    19Ag   148.323082  
      19B1u  149.967937  

    Final Occupation by Irrep:
             Ag   B1g   B2g   B3g    Au   B1u   B2u   B3u 
    DOCC [     3,    0,    0,    0,    0,    2,    1,    1 ]
    SOCC [     0,    0,    1,    1,    0,    0,    0,    0 ]

  Energy converged.

  @UHF Final Energy:  -149.65367728294771

   => Energetics <=

    Nuclear Repulsion Energy =             32.0000000000000000
    One-Electron Energy =                -269.2037835000791688
    Two-Electron Energy =                  87.5501062171314572
    DFT Exchange-Correlation Energy =       0.0000000000000000
    Empirical Dispersion Energy =           0.0000000000000000
    PCM Polarization Energy =               0.0000000000000000
    EFP Energy =                            0.0000000000000000
    Total Energy =                       -149.6536772829477115


  UHF NO Occupations:
  HONO-2 :    1B2u 1.9945325
  HONO-1 :    1B2g 1.0000000
  HONO-0 :    1B3g 1.0000000
  LUNO+0 :    2B3u 0.0054675
  LUNO+1 :    2B2u 0.0054675
  LUNO+2 :    3B1u 0.0029640
  LUNO+3 :    4 Ag 0.0010074



Properties will be evaluated at   0.000000,   0.000000,   0.000000 Bohr

Properties computed using the SCF density matrix

  Nuclear Dipole Moment: (a.u.)
     X:     0.0000      Y:     0.0000      Z:     0.0000

  Electronic Dipole Moment: (a.u.)
     X:     0.0000      Y:     0.0000      Z:     0.0000

  Dipole Moment: (a.u.)
     X:     0.0000      Y:     0.0000      Z:     0.0000     Total:     0.0000

  Dipole Moment: (Debye)
     X:     0.0000      Y:     0.0000      Z:     0.0000     Total:     0.0000


*** tstop() called on psinet at Mon May 15 15:35:25 2017
Module time:
	user time   =       1.57 seconds =       0.03 minutes
	system time =       0.05 seconds =       0.00 minutes
	total time  =          2 seconds =       0.03 minutes
Total time:
	user time   =       1.57 seconds =       0.03 minutes
	system time =       0.05 seconds =       0.00 minutes
	total time  =          2 seconds =       0.03 minutes
 MINTS: Wrapper to libmints.
   by Justin Turney

   Calculation information:
      Number of threads:                 1
      Number of atoms:                   2
      Number of AO shells:              30
      Number of SO shells:              15
      Number of primitives:             62
      Number of atomic orbitals:        98
      Number of basis functions:        86

      Number of irreps:                  8
      Integral cutoff                 0.00e+00
      Number of functions per irrep: [  19    4   10   10    4   19   10   10 ]

 OEINTS: Overlap, kinetic, potential, dipole, and quadrupole integrals
         stored in file 35.

      Computing two-electron integrals...done
      Computed 907639 non-zero two-electron integrals.
        Stored in file 33.


*** tstart() called on psinet
*** at Mon May 15 15:35:26 2017



	***********************************************************************************
	*                        Density Cumulant Functional Theory                       *
	*                by Alexander Sokolov, Andy Simmonett, and Xiao Wang              *
	***********************************************************************************


	Transforming two-electron integrals (transformation type: unrestricted)...
	Computing MP2 amplitude guess...

	*Total Hartree-Fock energy        = -149.653677282947712
	 Alpha - Alpha MP2 energy         =   -0.068673352579451
	 Alpha - Beta  MP2 energy         =   -0.389193273762648
	 Beta  - Beta  MP2 energy         =   -0.061625703312497
	 Total MP2 correlation energy     =   -0.519492329654596
	*Total MP2 energy                 = -150.173169612602294

	DCFT Functional:    		 DC-06
	DCFT Type:          		 CONV
	Algorithm:          		 TWOSTEP
	AO-Basis Integrals: 		 NONE

	*=================================================================================*
	* Cycle  RMS [F, Kappa]   RMS Lambda Error   delta E        Total Energy     DIIS *
	*---------------------------------------------------------------------------------*
	                          *** Macro Iteration 1 ***
	Cumulant Iterations
	* 1        3.151e-13         9.540e-04     -5.502e-01   -150.723358775500316  S   *
	* 2        3.151e-13         1.709e-04     -2.487e-02   -150.748225019444590  S   *
	* 3        3.151e-13         6.367e-05     -7.382e-03   -150.755606845026023  S/E *
	* 4        3.151e-13         1.614e-05     -1.430e-03   -150.757036526890374  S/E *
	* 5        3.151e-13         4.148e-06     -2.610e-04   -150.757297507036725  S/E *
	* 6        3.151e-13         9.711e-07     -1.374e-05   -150.757311248733657  S/E *
	* 7        3.151e-13         2.227e-07     -9.394e-07   -150.757312188104578  S/E *
	* 8        3.151e-13         5.826e-08      3.122e-08   -150.757312156880658  S/E *
	* 9        3.151e-13         1.660e-08      8.939e-08   -150.757312067490233  S/E *
	* 10       3.151e-13         5.867e-09     -2.608e-08   -150.757312093568402  S/E *
	* 11       3.151e-13         1.620e-09     -1.347e-10   -150.757312093703064  S/E *
	* 12       3.151e-13         4.960e-10     -2.656e-09   -150.757312096359129  S/E *
	* 13       3.151e-13         1.620e-10     -6.931e-09   -150.757312103290189  S/E *
	* 14       3.151e-13         5.936e-11     -3.719e-09   -150.757312107008715  S/E *
	* 15       3.151e-13         2.143e-11     -1.283e-09   -150.757312108291927  S/E *
	* 16       3.151e-13         6.780e-12     -7.597e-11   -150.757312108367898  S/E *
	* 17       3.151e-13         2.041e-12      1.268e-11   -150.757312108355222  S/E *
	* 18       3.151e-13         6.394e-13      1.336e-11   -150.757312108341864  S/E *
	Orbital Updates
	* 1        2.653e-04         6.394e-13      5.675e-01   -150.189831096322592  S   *
	* 2        8.405e-05         6.394e-13     -3.183e-05   -150.189862929266468  S   *
	* 3        2.928e-05         6.394e-13     -3.525e-06   -150.189866454749819  S   *
	* 4        1.194e-05         6.394e-13     -5.361e-07   -150.189866990873639  S/E *
	* 5        2.258e-06         6.394e-13     -1.212e-07   -150.189867112023791  S/E *
	* 6        3.912e-07         6.394e-13     -5.907e-09   -150.189867117930334  S/E *
	* 7        7.459e-08         6.394e-13     -1.448e-10   -150.189867118075142  S/E *
	* 8        2.097e-08         6.394e-13     -4.889e-12   -150.189867118080031  S/E *
	* 9        2.108e-09         6.394e-13     -3.979e-13   -150.189867118080429  S/E *
	* 10       3.538e-10         6.394e-13     -2.842e-14   -150.189867118080457  S/E *
	* 11       7.793e-11         6.394e-13     -2.842e-14   -150.189867118080485  S/E *
	* 12       2.447e-11         6.394e-13     -1.705e-13   -150.189867118080656  S/E *
	* 13       5.838e-12         6.394e-13      8.527e-14   -150.189867118080571  S/E *
	* 14       1.542e-12         6.394e-13      2.842e-14   -150.189867118080542  S/E *
	* 15       4.078e-13         6.394e-13      5.684e-14   -150.189867118080485  S/E *
	                          *** Macro Iteration 2 ***
	Cumulant Iterations
	* 1        4.078e-13         4.903e-05     -7.875e-04   -150.190654632342074  S   *
	* 2        4.078e-13         6.388e-06     -2.040e-05   -150.190675037231557  S   *
	* 3        4.078e-13         1.573e-06     -1.533e-05   -150.190690365393436  S/E *
	* 4        4.078e-13         2.259e-07     -7.601e-06   -150.190697966200275  S/E *
	* 5        4.078e-13         5.721e-08     -3.127e-06   -150.190701093503861  S/E *
	* 6        4.078e-13         1.582e-08     -1.030e-06   -150.190702123750583  S/E *
	* 7        4.078e-13         4.177e-09     -2.114e-07   -150.190702335131050  S/E *
	* 8        4.078e-13         1.203e-09     -2.361e-08   -150.190702358744886  S/E *
	* 9        4.078e-13         3.521e-10     -4.017e-09   -150.190702362761499  S/E *
	* 10       4.078e-13         9.063e-11     -1.588e-09   -150.190702364349107  S/E *
	* 11       4.078e-13         2.579e-11     -8.624e-10   -150.190702365211507  S/E *
	* 12       4.078e-13         7.728e-12     -3.512e-10   -150.190702365562743  S/E *
	* 13       4.078e-13         2.344e-12     -1.239e-10   -150.190702365686633  S/E *
	* 14       4.078e-13         7.713e-13     -4.212e-11   -150.190702365728754  S/E *
	Orbital Updates
	* 1        2.169e-06         7.713e-13      4.223e-04   -150.190280020141387  S   *
	* 2        8.464e-07         7.713e-13     -3.029e-09   -150.190280023170658  S   *
	* 3        3.632e-07         7.713e-13     -5.153e-10   -150.190280023685943  S   *
	* 4        1.640e-07         7.713e-13     -1.026e-10   -150.190280023788574  S/E *
	* 5        9.382e-09         7.713e-13     -2.899e-11   -150.190280023817564  S/E *
	* 6        2.222e-09         7.713e-13     -1.990e-13   -150.190280023817763  S/E *
	* 7        3.658e-10         7.713e-13      5.684e-14   -150.190280023817706  S/E *
	* 8        3.546e-11         7.713e-13      0.000e+00   -150.190280023817706  S/E *
	* 9        7.708e-12         7.713e-13      8.527e-14   -150.190280023817621  S/E *
	* 10       1.691e-12         7.713e-13     -2.842e-14   -150.190280023817650  S/E *
	* 11       3.562e-13         7.713e-13     -8.527e-14   -150.190280023817735  S/E *
	                          *** Macro Iteration 3 ***
	Cumulant Iterations
	* 1        3.562e-13         2.232e-07      1.163e-05   -150.190268395644921  S   *
	* 2        3.562e-13         2.510e-08     -1.349e-08   -150.190268409135314  S   *
	* 3        3.562e-13         6.211e-09      3.957e-07   -150.190268013447792  S/E *
	* 4        3.562e-13         1.549e-09      7.741e-08   -150.190267936037884  S/E *
	* 5        3.562e-13         5.072e-10      3.935e-08   -150.190267896691381  S/E *
	* 6        3.562e-13         1.306e-10      6.395e-09   -150.190267890296838  S/E *
	* 7        3.562e-13         3.308e-11      9.029e-10   -150.190267889393908  S/E *
	* 8        3.562e-13         8.221e-12     -2.785e-12   -150.190267889396694  S/E *
	* 9        3.562e-13         2.298e-12     -4.590e-11   -150.190267889442595  S/E *
	* 10       3.562e-13         6.773e-13     -9.607e-12   -150.190267889452201  S/E *
	Orbital Updates
	* 1        2.818e-08         6.773e-13     -6.026e-06   -150.190273915106985  S   *
	* 2        1.297e-08         6.773e-13     -6.253e-13   -150.190273915107610  S   *
	* 3        6.149e-09         6.773e-13     -1.421e-13   -150.190273915107753  S   *
	* 4        2.955e-09         6.773e-13     -2.274e-13   -150.190273915107980  S/E *
	* 5        1.656e-10         6.773e-13      5.684e-14   -150.190273915107923  S/E *
	* 6        3.488e-11         6.773e-13      2.842e-14   -150.190273915107895  S/E *
	* 7        8.625e-12         6.773e-13      1.137e-13   -150.190273915107781  S/E *
	* 8        1.146e-12         6.773e-13     -1.990e-13   -150.190273915107980  S/E *
	* 9        1.253e-13         6.773e-13      5.684e-14   -150.190273915107923  S/E *
	                          *** Macro Iteration 4 ***
	Cumulant Iterations
	* 1        1.253e-13         3.672e-09     -1.683e-07   -150.190274083415460  S   *
	* 2        1.253e-13         4.576e-10      3.465e-10   -150.190274083068971  S   *
	* 3        1.253e-13         1.118e-10     -6.183e-09   -150.190274089251972  S/E *
	* 4        1.253e-13         2.524e-11     -1.062e-09   -150.190274090313864  S/E *
	* 5        1.253e-13         8.179e-12     -6.691e-10   -150.190274090982967  S/E *
	* 6        1.253e-13         2.192e-12     -1.205e-10   -150.190274091103419  S/E *
	* 7        1.253e-13         5.732e-13     -2.279e-11   -150.190274091126213  S/E *
	Orbital Updates
	* 1        5.016e-10         5.732e-13      8.704e-08   -150.190274004086717  S   *
	* 2        2.403e-10         5.732e-13     -1.137e-13   -150.190274004086831  S   *
	* 3        1.174e-10         5.732e-13      5.684e-14   -150.190274004086774  S   *
	* 4        5.759e-11         5.732e-13     -5.684e-14   -150.190274004086831  S/E *
	* 5        3.165e-12         5.732e-13      2.842e-14   -150.190274004086803  S/E *
	* 6        9.622e-13         5.732e-13      5.684e-14   -150.190274004086746  S/E *
	* 7        1.987e-13         5.732e-13     -2.842e-14   -150.190274004086774  S/E *
	                          *** Macro Iteration 5 ***
	Cumulant Iterations
	* 1        1.987e-13         6.808e-11      2.867e-09   -150.190274001219791  S   *
	* 2        1.987e-13         8.708e-12      2.814e-12   -150.190274001216977  S   *
	* 3        1.987e-13         2.154e-12      1.071e-10   -150.190274001109856  S/E *
	* 4        1.987e-13         4.415e-13      1.685e-11   -150.190274001093002  S/E *
	Orbital Updates
	* 1        9.978e-12         4.415e-13     -1.467e-09   -150.190274002560358  S   *
	* 2        4.779e-12         4.415e-13      2.842e-14   -150.190274002560329  S   *
	* 3        2.351e-12         4.415e-13      8.527e-14   -150.190274002560244  S   *
	* 4        1.164e-12         4.415e-13      0.000e+00   -150.190274002560244  S/E *
	* 5        1.062e-13         4.415e-13     -5.684e-14   -150.190274002560301  S/E *
	                          *** Macro Iteration 6 ***
	Cumulant Iterations
	* 1        1.062e-13         1.371e-12     -4.385e-11   -150.190274002604156  S   *
	* 2        1.062e-13         1.902e-13      1.677e-12   -150.190274002602479  S   *
	Orbital Updates
	* 1        2.102e-13         1.902e-13      1.890e-11   -150.190274002583578  S   *
	*=================================================================================*

	*   DC-06 SCF Energy                                 =    -149.085815890839996
	*   DC-06 Lambda Energy                              =      -1.104458111743570
	*   DC-06 Total Energy                               =    -150.190274002583578

	Orbital occupations:
		Alpha occupied orbitals
		   1Ag       0.9995     1B1u      0.9995     2Ag       0.9939     2B1u      0.9907  
		   1B3u      0.9882     1B2u      0.9882     1B3g      0.9840     1B2g      0.9840  
		   3Ag       0.9809  

		Beta occupied orbitals
		   1Ag       0.9995     1B1u      0.9994     2Ag       0.9906     2B1u      0.9833  
		   3Ag       0.9813     1B2u      0.9688     1B3u      0.9688  

		Alpha virtual orbitals
		   3B1u      0.0161     2B2u      0.0077     2B3u      0.0077     4Ag       0.0059  
		   2B2g      0.0059     2B3g      0.0059     4B1u      0.0044     1B1g      0.0040  
		   5Ag       0.0040     3B2u      0.0036     3B3u      0.0036     6Ag       0.0033  
		   1Au       0.0032     5B1u      0.0032     6B1u      0.0014     3B2g      0.0012  
		   3B3g      0.0012     7Ag       0.0010     4B3u      0.0005     4B2u      0.0005  
		   4B2g      0.0004     4B3g      0.0004     2B1g      0.0003     8Ag       0.0003  
		   9Ag       0.0003     7B1u      0.0003     5B2u      0.0003     5B3u      0.0003  
		   6B2u      0.0002     6B3u      0.0002    10Ag       0.0002     5B3g      0.0002  
		   5B2g      0.0002     8B1u      0.0002    11Ag       0.0002     2Au       0.0002  
		   9B1u      0.0002     3B1g      0.0002    12Ag       0.0002     7B3u      0.0002  
		   7B2u      0.0002    10B1u      0.0001     6B2g      0.0001     6B3g      0.0001  
		  11B1u      0.0001     3Au       0.0001    12B1u      0.0001     8B3u      0.0001  
		   8B2u      0.0001     7B2g      0.0001     7B3g      0.0001    13Ag       0.0001  
		  13B1u      0.0001    14Ag       0.0001     8B2g      0.0000     8B3g      0.0000  
		  15Ag       0.0000    14B1u      0.0000     4B1g      0.0000    16Ag       0.0000  
		  15B1u      0.0000     4Au       0.0000    16B1u      0.0000     9B2u      0.0000  
		   9B3u      0.0000     9B2g      0.0000     9B3g      0.0000    17Ag       0.0000  
		  17B1u      0.0000    10B3u      0.0000    10B2u      0.0000    10B3g      0.0000  
		  10B2g      0.0000    18Ag       0.0000    19Ag       0.0000    18B1u      0.0000  
		  19B1u      0.0000  

		Beta virtual orbitals
		   1B2g      0.0251     1B3g      0.0251     3B1u      0.0125     4Ag       0.0059  
		   4B1u      0.0044     2B2u      0.0042     2B3u      0.0042     5Ag       0.0035  
		   6Ag       0.0029     1B1g      0.0029     3B3u      0.0025     3B2u      0.0025  
		   2B3g      0.0012     2B2g      0.0012     5B1u      0.0012     6B1u      0.0010  
		   1Au       0.0010     7Ag       0.0008     3B3g      0.0005     3B2g      0.0005  
		   8Ag       0.0003     4B3u      0.0003     4B2u      0.0003     9Ag       0.0002  
		   7B1u      0.0002     5B2u      0.0002     5B3u      0.0002     2B1g      0.0002  
		  10Ag       0.0002    11Ag       0.0002     6B2u      0.0002     6B3u      0.0002  
		   8B1u      0.0002     4B2g      0.0002     4B3g      0.0002     3B1g      0.0001  
		  12Ag       0.0001     9B1u      0.0001     5B3g      0.0001     5B2g      0.0001  
		  10B1u      0.0001     2Au       0.0001     7B2u      0.0001     7B3u      0.0001  
		   6B2g      0.0001     6B3g      0.0001    11B1u      0.0001    13Ag       0.0001  
		   3Au       0.0001    12B1u      0.0001     8B2u      0.0001     8B3u      0.0001  
		  13B1u      0.0001    14Ag       0.0001     7B2g      0.0000     7B3g      0.0000  
		  15Ag       0.0000     8B3g      0.0000     8B2g      0.0000    14B1u      0.0000  
		  15B1u      0.0000     9B3u      0.0000     9B2u      0.0000    16Ag       0.0000  
		   9B2g      0.0000     9B3g      0.0000     4B1g      0.0000    17Ag       0.0000  
		   4Au       0.0000    16B1u      0.0000    17B1u      0.0000    10B2u      0.0000  
		  10B3u      0.0000    18Ag       0.0000    10B2g      0.0000    10B3g      0.0000  
		  19Ag       0.0000    18B1u      0.0000    19B1u      0.0000  


*** tstop() called on psinet at Mon May 15 15:35:49 2017
Module time:
	user time   =      17.01 seconds =       0.28 minutes
	system time =       6.57 seconds =       0.11 minutes
	total time  =         23 seconds =       0.38 minutes
Total time:
	user time   =      19.13 seconds =       0.32 minutes
	system time =       6.64 seconds =       0.11 minutes
	total time  =         26 seconds =       0.43 minutes
	SCF Energy........................................................PASSED
	MP2 Energy........................................................PASSED
	DC-06 SCF Energy (two-step, ao_basis=none)........................PASSED
	DC-06 Energy (two-step, ao_basis=none)............................PASSED

*** tstart() called on psinet
*** at Mon May 15 15:35:50 2017

   => Loading Basis Set <=

    Name: CC-PCVTZ
    Role: ORBITAL
    Keyword: BASIS
    atoms 1-2 entry O          line   317 file /home/psilocaluser/gits/hrw-direct/objdir4/stage/usr/local/psi4/share/psi4/basis/cc-pcvtz.gbs 


         ---------------------------------------------------------
                                   SCF
            by Justin Turney, Rob Parrish, and Andy Simmonett
                              UHF Reference
                        1 Threads,    500 MiB Core
         ---------------------------------------------------------

  ==> Geometry <==

    Molecular point group: d2h
    Full point group: D_inf_h

    Geometry (in Bohr), charge = 0, multiplicity = 3:

       Center              X                  Y                   Z               Mass       
    ------------   -----------------  -----------------  -----------------  -----------------
           O          0.000000000000     0.000000000000    -1.000000000000    15.994914619560
           O          0.000000000000     0.000000000000     1.000000000000    15.994914619560

  Running in d2h symmetry.

  Rotational constants: A = ************  B =      1.88184  C =      1.88184 [cm^-1]
  Rotational constants: A = ************  B =  56416.09372  C =  56416.09372 [MHz]
  Nuclear repulsion =   32.000000000000000

  Charge       = 0
  Multiplicity = 3
  Electrons    = 16
  Nalpha       = 9
  Nbeta        = 7

  ==> Algorithm <==

  SCF Algorithm Type is PK.
  DIIS enabled.
  MOM disabled.
  Fractional occupation disabled.
  Guess Type is GWH.
  Energy threshold   = 1.00e-08
  Density threshold  = 1.00e-12
  Integral threshold = 0.00e+00

  ==> Primary Basis <==

  Basis Set: CC-PCVTZ
    Blend: CC-PCVTZ
    Number of shells: 30
    Number of basis function: 86
    Number of Cartesian functions: 98
    Spherical Harmonics?: true
    Max angular momentum: 3

  ==> Pre-Iterations <==

   -------------------------------------------------------
    Irrep   Nso     Nmo     Nalpha   Nbeta   Ndocc  Nsocc
   -------------------------------------------------------
     Ag        19      19       0       0       0       0
     B1g        4       4       0       0       0       0
     B2g       10      10       0       0       0       0
     B3g       10      10       0       0       0       0
     Au         4       4       0       0       0       0
     B1u       19      19       0       0       0       0
     B2u       10      10       0       0       0       0
     B3u       10      10       0       0       0       0
   -------------------------------------------------------
    Total      86      86       9       7       7       2
   -------------------------------------------------------

  ==> Integral Setup <==

  Using in-core PK algorithm.
   Calculation information:
      Number of atoms:                   2
      Number of AO shells:              30
      Number of primitives:             62
      Number of atomic orbitals:        98
      Number of basis functions:        86

      Integral cutoff                 1.00e-12
      Number of threads:                 1

  Performing in-core PK
  Using 13998822 doubles for integral storage.
  We computed 101732 shell quartets total.
  Whereas there are 108345 unique shell quartets.
  ==> DiskJK: Disk-Based J/K Matrices <==

    J tasked:                  Yes
    K tasked:                  Yes
    wK tasked:                  No
    Memory (MB):               375
    Schwarz Cutoff:          1E-12

    OpenMP threads:              1
  Minimum eigenvalue in the overlap matrix is 1.6797415199E-03.
  Using Symmetric Orthogonalization.

  SCF Guess: Generalized Wolfsberg-Helmholtz.

  ==> Iterations <==

                        Total Energy        Delta E     RMS |[F,P]|

    Occupation by irrep:
             Ag   B1g   B2g   B3g    Au   B1u   B2u   B3u 
    DOCC [     3,    0,    0,    0,    0,    2,    1,    1 ]
    SOCC [     0,    0,    1,    1,    0,    0,    0,    0 ]

   @UHF iter   1:   479.40928935514637    4.79409e+02   5.49346e+00 
   @UHF iter   2:  -130.64070679031448   -6.10050e+02   2.23712e-01 DIIS
   @UHF iter   3:  -145.58185406389194   -1.49411e+01   1.21999e-01 DIIS
   @UHF iter   4:  -149.61908602143887   -4.03723e+00   1.06408e-02 DIIS
   @UHF iter   5:  -149.65062843036847   -3.15424e-02   2.90029e-03 DIIS
   @UHF iter   6:  -149.65354025102772   -2.91182e-03   4.78943e-04 DIIS
   @UHF iter   7:  -149.65367189546225   -1.31644e-04   1.13220e-04 DIIS
   @UHF iter   8:  -149.65367707675657   -5.18129e-06   1.51798e-05 DIIS
   @UHF iter   9:  -149.65367726558998   -1.88833e-07   4.09014e-06 DIIS
   @UHF iter  10:  -149.65367728244530   -1.68553e-08   6.37779e-07 DIIS
   @UHF iter  11:  -149.65367728292699   -4.81691e-10   1.37380e-07 DIIS
   @UHF iter  12:  -149.65367728294709   -2.00941e-11   2.45685e-08 DIIS
   @UHF iter  13:  -149.65367728294763   -5.40012e-13   4.28805e-09 DIIS
   @UHF iter  14:  -149.65367728294774   -1.13687e-13   5.38526e-10 DIIS
   @UHF iter  15:  -149.65367728294763    1.13687e-13   8.12690e-11 DIIS
   @UHF iter  16:  -149.65367728294751    1.13687e-13   9.14953e-12 DIIS
   @UHF iter  17:  -149.65367728294768   -1.70530e-13   9.79076e-13 DIIS

  ==> Post-Iterations <==

   @Spin Contamination Metric:   2.987006734E-02
   @S^2 Expected:                2.000000000E+00
   @S^2 Observed:                2.029870067E+00
   @S   Expected:                1.000000000E+00
   @S   Observed:                1.000000000E+00

    Orbital Energies (a.u.)
    -----------------------

    Alpha Occupied:                                                       

       1Ag   -20.720693     1B1u  -20.719199     2Ag    -1.857588  
       2B1u   -1.147190     1B3u   -0.903173     1B2u   -0.903173  
       3Ag    -0.812143     1B2g   -0.480847     1B3g   -0.480847  

    Alpha Virtual:                                                        

       3B1u    0.456848     2B3u    0.661966     2B2u    0.661966  
       4Ag     0.700746     5Ag     0.736877     2B3g    0.798297  
       2B2g    0.798297     4B1u    0.934468     5B1u    1.294683  
       1B1g    1.410878     6Ag     1.410878     3B2u    1.642980  
       3B3u    1.642980     6B1u    1.926335     1Au     1.926335  
       7Ag     2.350885     7B1u    2.473959     3B3g    2.533963  
       3B2g    2.533963     4B2u    3.758443     4B3u    3.758443  
       8Ag     4.054153     4B3g    4.127305     4B2g    4.127305  
       9Ag     4.629772     8B1u    4.757626     2B1g    4.934414  
      10Ag     4.934414     5B3u    5.147096     5B2u    5.147096  
       6B2u    5.207130     6B3u    5.207130     5B2g    5.663376  
       5B3g    5.663376    11Ag     5.915955     9B1u    6.143614  
      10B1u    6.196397     3B1g    6.489150    12Ag     6.489150  
      11B1u    6.490437     2Au     6.490437    12B1u    6.745606  
       3Au     6.745606     6B2g    6.758688     6B3g    6.758688  
       7B2u    7.104799     7B3u    7.104799    13Ag     8.255031  
       7B2g    8.280988     7B3g    8.280988    13B1u   10.563284  
       8B2u   25.804117     8B3u   25.804117     8B2g   26.111344  
       8B3g   26.111344    14B1u   26.693303    14Ag    26.844820  
      15Ag    28.480459    15B1u   29.264886     4B1g   43.653236  
      16Ag    43.653236    17Ag    43.667021     9B2u   43.696920  
       9B3u   43.696920    16B1u   43.713001     4Au    43.713001  
       9B3g   43.891605     9B2g   43.891605    17B1u   45.126952  
      10B2u  138.046258    10B3u  138.046258    10B3g  138.273431  
      10B2g  138.273431    18B1u  138.923484    18Ag   138.997772  
      19Ag   148.312478    19B1u  149.957793  

    Beta Occupied:                                                        

       1Ag   -20.668520     1B1u  -20.666223     2Ag    -1.749125  
       2B1u   -0.941842     3Ag    -0.735793     1B3u   -0.658607  
       1B2u   -0.658607  

    Beta Virtual:                                                         

       1B3g    0.179248     1B2g    0.179248     3B1u    0.486962  
       4Ag     0.700525     2B2u    0.714166     2B3u    0.714166  
       5Ag     0.761262     2B3g    0.898322     2B2g    0.898322  
       4B1u    1.004004     5B1u    1.336539     1B1g    1.460834  
       6Ag     1.460834     3B2u    1.712865     3B3u    1.712865  
       6B1u    2.025454     1Au     2.025454     7Ag     2.385724  
       7B1u    2.496188     3B3g    2.586066     3B2g    2.586066  
       4B2u    3.870683     4B3u    3.870683     8Ag     4.079587  
       4B3g    4.229786     4B2g    4.229786     9Ag     4.673500  
       8B1u    4.803585     2B1g    4.969376    10Ag     4.969376  
       5B2u    5.184033     5B3u    5.184033     6B3u    5.266404  
       6B2u    5.266404     5B2g    5.733192     5B3g    5.733192  
      11Ag     5.986382     9B1u    6.177330    10B1u    6.235652  
      11B1u    6.563732     2Au     6.563732     3B1g    6.616303  
      12Ag     6.616303     6B2g    6.823096     6B3g    6.823096  
       3Au     6.846637    12B1u    6.846637     7B3u    7.163785  
       7B2u    7.163785    13Ag     8.277347     7B3g    8.320332  
       7B2g    8.320332    13B1u   10.609186     8B2u   25.859160  
       8B3u   25.859160     8B3g   26.165829     8B2g   26.165829  
      14B1u   26.712254    14Ag    26.867372    15Ag    28.510788  
      15B1u   29.293521    16Ag    43.689739     4B1g   43.705286  
      17Ag    43.705286     9B2u   43.726805     9B3u   43.726805  
      16B1u   43.764904     4Au    43.764904     9B3g   43.921398  
       9B2g   43.921398    17B1u   45.149393    10B2u  138.059683  
      10B3u  138.059683    10B3g  138.286808    10B2g  138.286808  
      18B1u  138.928984    18Ag   139.003355    19Ag   148.323082  
      19B1u  149.967937  

    Final Occupation by Irrep:
             Ag   B1g   B2g   B3g    Au   B1u   B2u   B3u 
    DOCC [     3,    0,    0,    0,    0,    2,    1,    1 ]
    SOCC [     0,    0,    1,    1,    0,    0,    0,    0 ]

  Energy converged.

  @UHF Final Energy:  -149.65367728294768

   => Energetics <=

    Nuclear Repulsion Energy =             32.0000000000000000
    One-Electron Energy =                -269.2037835000791119
    Two-Electron Energy =                  87.5501062171314288
    DFT Exchange-Correlation Energy =       0.0000000000000000
    Empirical Dispersion Energy =           0.0000000000000000
    PCM Polarization Energy =               0.0000000000000000
    EFP Energy =                            0.0000000000000000
    Total Energy =                       -149.6536772829476831


  UHF NO Occupations:
  HONO-2 :    1B2u 1.9945325
  HONO-1 :    1B3g 1.0000000
  HONO-0 :    1B2g 1.0000000
  LUNO+0 :    2B3u 0.0054675
  LUNO+1 :    2B2u 0.0054675
  LUNO+2 :    3B1u 0.0029640
  LUNO+3 :    4 Ag 0.0010074



Properties will be evaluated at   0.000000,   0.000000,   0.000000 Bohr

Properties computed using the SCF density matrix

  Nuclear Dipole Moment: (a.u.)
     X:     0.0000      Y:     0.0000      Z:     0.0000

  Electronic Dipole Moment: (a.u.)
     X:     0.0000      Y:     0.0000      Z:     0.0000

  Dipole Moment: (a.u.)
     X:     0.0000      Y:     0.0000      Z:     0.0000     Total:     0.0000

  Dipole Moment: (Debye)
     X:     0.0000      Y:     0.0000      Z:     0.0000     Total:     0.0000


*** tstop() called on psinet at Mon May 15 15:35:51 2017
Module time:
	user time   =       1.35 seconds =       0.02 minutes
	system time =       0.05 seconds =       0.00 minutes
	total time  =          1 seconds =       0.02 minutes
Total time:
	user time   =      20.49 seconds =       0.34 minutes
	system time =       6.69 seconds =       0.11 minutes
	total time  =         28 seconds =       0.47 minutes
 MINTS: Wrapper to libmints.
   by Justin Turney

   Calculation information:
      Number of threads:                 1
      Number of atoms:                   2
      Number of AO shells:              30
      Number of SO shells:              15
      Number of primitives:             62
      Number of atomic orbitals:        98
      Number of basis functions:        86

      Number of irreps:                  8
      Integral cutoff                 0.00e+00
      Number of functions per irrep: [  19    4   10   10    4   19   10   10 ]

 OEINTS: Overlap, kinetic, potential, dipole, and quadrupole integrals
         stored in file 35.

      Computing two-electron integrals...done
      Computed 907639 non-zero two-electron integrals.
        Stored in file 33.


*** tstart() called on psinet
*** at Mon May 15 15:35:51 2017



	***********************************************************************************
	*                        Density Cumulant Functional Theory                       *
	*                by Alexander Sokolov, Andy Simmonett, and Xiao Wang              *
	***********************************************************************************


	Transforming two-electron integrals (transformation type: unrestricted)...
	Computing MP2 amplitude guess...

	*Total Hartree-Fock energy        = -149.653677282947683
	 Alpha - Alpha MP2 energy         =   -0.067987065399395
	 Alpha - Beta  MP2 energy         =   -0.384514154438681
	 Beta  - Beta  MP2 energy         =   -0.060015283041888
	 Total MP2 correlation energy     =   -0.512516502879964
	*Total MP2 energy                 = -150.166193785827659

	DCFT Functional:    		 DC-12
	DCFT Type:          		 CONV
	Algorithm:          		 TWOSTEP
	AO-Basis Integrals: 		 NONE

	*=================================================================================*
	* Cycle  RMS [F, Kappa]   RMS Lambda Error   delta E        Total Energy     DIIS *
	*---------------------------------------------------------------------------------*
	                          *** Macro Iteration 1 ***
	Cumulant Iterations
	* 1        3.147e-13         9.455e-04     -5.418e-01   -150.708016120070738  S   *
	* 2        3.147e-13         1.635e-04     -2.358e-02   -150.731600831625514  S   *
	* 3        3.147e-13         5.624e-05     -4.916e-03   -150.736516644767022  S/E *
	* 4        3.147e-13         1.385e-05     -1.031e-03   -150.737547750341093  S/E *
	* 5        3.147e-13         3.244e-06     -1.857e-04   -150.737733454803532  S/E *
	* 6        3.147e-13         6.964e-07      1.160e-06   -150.737732294780756  S/E *
	* 7        3.147e-13         1.465e-07     -2.918e-06   -150.737735212323031  S/E *
	* 8        3.147e-13         3.325e-08      3.745e-08   -150.737735174877287  S/E *
	* 9        3.147e-13         6.813e-09     -6.156e-08   -150.737735236433679  S/E *
	* 10       3.147e-13         1.820e-09      1.325e-08   -150.737735223187315  S/E *
	* 11       3.147e-13         4.991e-10     -6.663e-09   -150.737735229850529  S/E *
	* 12       3.147e-13         1.476e-10     -5.077e-09   -150.737735234927129  S/E *
	* 13       3.147e-13         4.675e-11     -6.984e-10   -150.737735235625536  S/E *
	* 14       3.147e-13         1.423e-11     -8.112e-10   -150.737735236436691  S/E *
	* 15       3.147e-13         4.694e-12     -3.826e-11   -150.737735236474947  S/E *
	* 16       3.147e-13         1.294e-12     -7.628e-11   -150.737735236551231  S/E *
	* 17       3.147e-13         3.254e-13      3.411e-12   -150.737735236547820  S/E *
	Orbital Updates
	* 1        2.448e-04         3.254e-13      5.523e-01   -150.185447745431475  S   *
	* 2        7.651e-05         3.254e-13     -2.703e-05   -150.185474778960753  S   *
	* 3        2.678e-05         3.254e-13     -3.007e-06   -150.185477785888565  S   *
	* 4        1.097e-05         3.254e-13     -4.609e-07   -150.185478246742122  S/E *
	* 5        2.060e-06         3.254e-13     -1.053e-07   -150.185478352011046  S/E *
	* 6        3.644e-07         3.254e-13     -4.832e-09   -150.185478356842737  S/E *
	* 7        7.073e-08         3.254e-13     -1.256e-10   -150.185478356968332  S/E *
	* 8        1.956e-08         3.254e-13     -4.718e-12   -150.185478356973050  S/E *
	* 9        2.039e-09         3.254e-13     -1.137e-13   -150.185478356973164  S/E *
	* 10       3.323e-10         3.254e-13      2.842e-14   -150.185478356973135  S/E *
	* 11       7.594e-11         3.254e-13     -5.684e-14   -150.185478356973192  S/E *
	* 12       2.454e-11         3.254e-13      0.000e+00   -150.185478356973192  S/E *
	* 13       6.156e-12         3.254e-13     -5.684e-14   -150.185478356973249  S/E *
	* 14       1.691e-12         3.254e-13      5.684e-14   -150.185478356973192  S/E *
	* 15       4.289e-13         3.254e-13     -8.527e-14   -150.185478356973277  S/E *
	                          *** Macro Iteration 2 ***
	Cumulant Iterations
	* 1        4.289e-13         4.662e-05     -7.173e-04   -150.186195672219924  S   *
	* 2        4.289e-13         5.818e-06     -5.846e-06   -150.186201517757098  S   *
	* 3        4.289e-13         1.373e-06     -8.270e-06   -150.186209787503572  S/E *
	* 4        4.289e-13         1.922e-07     -3.930e-06   -150.186213717983435  S/E *
	* 5        4.289e-13         4.595e-08     -1.919e-06   -150.186215636532495  S/E *
	* 6        4.289e-13         1.200e-08     -4.734e-07   -150.186216109968683  S/E *
	* 7        4.289e-13         2.985e-09     -1.237e-07   -150.186216233710951  S/E *
	* 8        4.289e-13         7.995e-10      2.714e-09   -150.186216230997104  S/E *
	* 9        4.289e-13         2.218e-10     -2.141e-09   -150.186216233137827  S/E *
	* 10       4.289e-13         5.465e-11      2.736e-10   -150.186216232864240  S/E *
	* 11       4.289e-13         1.443e-11     -3.390e-10   -150.186216233203226  S/E *
	* 12       4.289e-13         3.860e-12     -1.124e-10   -150.186216233315633  S/E *
	* 13       4.289e-13         9.802e-13     -3.683e-11   -150.186216233352468  S/E *
	Orbital Updates
	* 1        1.961e-06         9.802e-13      3.519e-04   -150.185864337324915  S   *
	* 2        7.723e-07         9.802e-13     -2.528e-09   -150.185864339853083  S   *
	* 3        3.320e-07         9.802e-13     -4.323e-10   -150.185864340285349  S   *
	* 4        1.503e-07         9.802e-13     -8.657e-11   -150.185864340371921  S/E *
	* 5        8.257e-09         9.802e-13     -2.450e-11   -150.185864340396421  S/E *
	* 6        1.997e-09         9.802e-13     -1.137e-13   -150.185864340396535  S/E *
	* 7        2.930e-10         9.802e-13      5.684e-14   -150.185864340396478  S/E *
	* 8        3.061e-11         9.802e-13      5.684e-14   -150.185864340396421  S/E *
	* 9        6.719e-12         9.802e-13     -5.684e-14   -150.185864340396478  S/E *
	* 10       1.301e-12         9.802e-13      0.000e+00   -150.185864340396478  S/E *
	* 11       2.983e-13         9.802e-13      0.000e+00   -150.185864340396478  S/E *
	                          *** Macro Iteration 3 ***
	Cumulant Iterations
	* 1        2.983e-13         2.039e-07      1.038e-05   -150.185853961768970  S   *
	* 2        2.983e-13         2.232e-08     -4.007e-07   -150.185854362470423  S   *
	* 3        2.983e-13         4.958e-09      2.779e-07   -150.185854084575169  S/E *
	* 4        2.983e-13         1.134e-09      1.928e-08   -150.185854065298457  S/E *
	* 5        2.983e-13         3.119e-10      1.807e-08   -150.185854047232965  S/E *
	* 6        2.983e-13         7.739e-11      3.157e-09   -150.185854044075512  S/E *
	* 7        2.983e-13         1.816e-11      7.057e-10   -150.185854043369829  S/E *
	* 8        2.983e-13         4.081e-12      7.594e-11   -150.185854043293887  S/E *
	* 9        2.983e-13         1.008e-12     -1.563e-12   -150.185854043295450  S/E *
	* 10       2.983e-13         2.377e-13      1.705e-13   -150.185854043295279  S/E *
	Orbital Updates
	* 1        2.485e-08         2.377e-13     -4.895e-06   -150.185858938763118  S   *
	* 2        1.141e-08         2.377e-13     -4.547e-13   -150.185858938763573  S   *
	* 3        5.402e-09         2.377e-13     -8.527e-14   -150.185858938763658  S   *
	* 4        2.593e-09         2.377e-13      2.842e-14   -150.185858938763630  S/E *
	* 5        1.380e-10         2.377e-13     -8.527e-14   -150.185858938763715  S/E *
	* 6        2.764e-11         2.377e-13     -2.842e-14   -150.185858938763744  S/E *
	* 7        6.740e-12         2.377e-13      5.684e-14   -150.185858938763687  S/E *
	* 8        8.253e-13         2.377e-13      0.000e+00   -150.185858938763687  S/E *
	                          *** Macro Iteration 4 ***
	Cumulant Iterations
	* 1        8.253e-13         3.175e-09     -1.452e-07   -150.185859083922651  S   *
	* 2        8.253e-13         3.827e-10      5.715e-09   -150.185859078207983  S   *
	* 3        8.253e-13         8.630e-11     -4.323e-09   -150.185859082531380  S/E *
	* 4        8.253e-13         1.813e-11     -1.644e-10   -150.185859082695828  S/E *
	* 5        8.253e-13         5.019e-12     -2.937e-10   -150.185859082989481  S/E *
	* 6        8.253e-13         1.241e-12     -5.068e-11   -150.185859083040157  S/E *
	* 7        8.253e-13         2.941e-13     -1.290e-11   -150.185859083053060  S/E *
	Orbital Updates
	* 1        4.174e-10         2.941e-13      6.826e-08   -150.185859014790566  S   *
	* 2        2.004e-10         2.941e-13      2.274e-13   -150.185859014790339  S   *
	* 3        9.790e-11         2.941e-13     -8.527e-14   -150.185859014790424  S   *
	* 4        4.800e-11         2.941e-13      5.684e-14   -150.185859014790367  S/E *
	* 5        2.521e-12         2.941e-13     -1.705e-13   -150.185859014790537  S/E *
	* 6        7.747e-13         2.941e-13      0.000e+00   -150.185859014790537  S/E *
	                          *** Macro Iteration 5 ***
	Cumulant Iterations
	* 1        7.747e-13         5.627e-11      2.355e-09   -150.185859012435714  S   *
	* 2        7.747e-13         6.973e-12     -8.362e-11   -150.185859012519330  S   *
	* 3        7.747e-13         1.613e-12      7.228e-11   -150.185859012447054  S/E *
	* 4        7.747e-13         3.140e-13      1.307e-12   -150.185859012445746  S/E *
	Orbital Updates
	* 1        7.804e-12         3.140e-13     -1.100e-09   -150.185859013546235  S   *
	* 2        3.760e-12         3.140e-13      5.684e-14   -150.185859013546178  S   *
	* 3        1.852e-12         3.140e-13      0.000e+00   -150.185859013546178  S   *
	* 4        9.170e-13         3.140e-13      5.684e-14   -150.185859013546121  S/E *
	* 5        7.857e-14         3.140e-13      2.842e-14   -150.185859013546093  S/E *
	                          *** Macro Iteration 6 ***
	Cumulant Iterations
	* 1        7.857e-14         1.063e-12     -3.632e-11   -150.185859013582416  S   *
	* 2        7.857e-14         1.383e-13      1.904e-12   -150.185859013580512  S   *
	Orbital Updates
	* 1        1.588e-13         1.383e-13      1.501e-11   -150.185859013565505  S   *
	*=================================================================================*

	*   DC-12 SCF Energy                                 =    -149.101073338708375
	*   DC-12 Lambda Energy                              =      -1.084785674857122
	*   DC-12 Total Energy                               =    -150.185859013565505

	Orbital occupations:
		Alpha occupied orbitals
		   1Ag       0.9995     1B1u      0.9995     2Ag       0.9941     2B1u      0.9910  
		   1B3u      0.9886     1B2u      0.9886     1B3g      0.9845     1B2g      0.9845  
		   3Ag       0.9815  

		Beta occupied orbitals
		   1Ag       0.9995     1B1u      0.9994     2Ag       0.9909     2B1u      0.9839  
		   3Ag       0.9819     1B3u      0.9708     1B2u      0.9708  

		Alpha virtual orbitals
		   3B1u      0.0153     2B2u      0.0073     2B3u      0.0073     2B2g      0.0057  
		   2B3g      0.0057     4Ag       0.0057     4B1u      0.0042     1B1g      0.0039  
		   5Ag       0.0039     3B2u      0.0035     3B3u      0.0035     6Ag       0.0032  
		   1Au       0.0031     5B1u      0.0031     6B1u      0.0014     3B3g      0.0012  
		   3B2g      0.0012     7Ag       0.0010     4B3u      0.0005     4B2u      0.0005  
		   4B3g      0.0004     4B2g      0.0004     8Ag       0.0003     2B1g      0.0003  
		   9Ag       0.0003     7B1u      0.0003     5B3u      0.0003     5B2u      0.0003  
		   6B3u      0.0002     6B2u      0.0002    10Ag       0.0002     5B2g      0.0002  
		   5B3g      0.0002     8B1u      0.0002    11Ag       0.0002     9B1u      0.0002  
		   2Au       0.0002     3B1g      0.0002    12Ag       0.0002     7B3u      0.0002  
		   7B2u      0.0002    10B1u      0.0001     6B2g      0.0001     6B3g      0.0001  
		   3Au       0.0001    11B1u      0.0001    12B1u      0.0001     8B2u      0.0001  
		   8B3u      0.0001     7B2g      0.0001     7B3g      0.0001    13Ag       0.0001  
		  13B1u      0.0001    14Ag       0.0001     8B2g      0.0000     8B3g      0.0000  
		  15Ag       0.0000    14B1u      0.0000     4B1g      0.0000    16Ag       0.0000  
		   4Au       0.0000    15B1u      0.0000    16B1u      0.0000     9B2u      0.0000  
		   9B3u      0.0000     9B3g      0.0000     9B2g      0.0000    17Ag       0.0000  
		  17B1u      0.0000    10B2u      0.0000    10B3u      0.0000    10B2g      0.0000  
		  10B3g      0.0000    18Ag       0.0000    19Ag       0.0000    18B1u      0.0000  
		  19B1u      0.0000  

		Beta virtual orbitals
		   1B3g      0.0230     1B2g      0.0230     3B1u      0.0119     4Ag       0.0057  
		   4B1u      0.0042     2B3u      0.0040     2B2u      0.0040     5Ag       0.0034  
		   6Ag       0.0028     1B1g      0.0028     3B3u      0.0025     3B2u      0.0025  
		   2B2g      0.0012     2B3g      0.0012     5B1u      0.0011     1Au       0.0010  
		   6B1u      0.0010     7Ag       0.0007     3B2g      0.0005     3B3g      0.0005  
		   8Ag       0.0003     4B3u      0.0003     4B2u      0.0003     9Ag       0.0002  
		   7B1u      0.0002     5B2u      0.0002     5B3u      0.0002    10Ag       0.0002  
		   2B1g      0.0002    11Ag       0.0002     6B3u      0.0002     6B2u      0.0002  
		   8B1u      0.0002     4B3g      0.0001     4B2g      0.0001     3B1g      0.0001  
		  12Ag       0.0001     9B1u      0.0001     5B3g      0.0001     5B2g      0.0001  
		   2Au       0.0001    10B1u      0.0001     7B3u      0.0001     7B2u      0.0001  
		   6B3g      0.0001     6B2g      0.0001    11B1u      0.0001    13Ag       0.0001  
		   3Au       0.0001    12B1u      0.0001     8B2u      0.0001     8B3u      0.0001  
		  13B1u      0.0001    14Ag       0.0001     7B3g      0.0000     7B2g      0.0000  
		  15Ag       0.0000     8B2g      0.0000     8B3g      0.0000    14B1u      0.0000  
		   9B2u      0.0000     9B3u      0.0000    15B1u      0.0000    16Ag       0.0000  
		   9B2g      0.0000     9B3g      0.0000    17Ag       0.0000     4B1g      0.0000  
		   4Au       0.0000    16B1u      0.0000    17B1u      0.0000    10B2u      0.0000  
		  10B3u      0.0000    18Ag       0.0000    10B3g      0.0000    10B2g      0.0000  
		  19Ag       0.0000    18B1u      0.0000    19B1u      0.0000  


*** tstop() called on psinet at Mon May 15 15:36:16 2017
Module time:
	user time   =      16.54 seconds =       0.28 minutes
	system time =       6.41 seconds =       0.11 minutes
	total time  =         25 seconds =       0.42 minutes
Total time:
	user time   =      37.59 seconds =       0.63 minutes
	system time =      13.12 seconds =       0.22 minutes
	total time  =         53 seconds =       0.88 minutes
	DC-12 SCF Energy (two-step, ao_basis=none)........................PASSED
	DC-12 Energy (two-step, ao_basis=none)............................PASSED

*** tstart() called on psinet
*** at Mon May 15 15:36:16 2017

   => Loading Basis Set <=

    Name: CC-PCVTZ
    Role: ORBITAL
    Keyword: BASIS
    atoms 1-2 entry O          line   317 file /home/psilocaluser/gits/hrw-direct/objdir4/stage/usr/local/psi4/share/psi4/basis/cc-pcvtz.gbs 


         ---------------------------------------------------------
                                   SCF
            by Justin Turney, Rob Parrish, and Andy Simmonett
                              UHF Reference
                        1 Threads,    500 MiB Core
         ---------------------------------------------------------

  ==> Geometry <==

    Molecular point group: d2h
    Full point group: D_inf_h

    Geometry (in Bohr), charge = 0, multiplicity = 3:

       Center              X                  Y                   Z               Mass       
    ------------   -----------------  -----------------  -----------------  -----------------
           O          0.000000000000     0.000000000000    -1.000000000000    15.994914619560
           O          0.000000000000     0.000000000000     1.000000000000    15.994914619560

  Running in d2h symmetry.

  Rotational constants: A = ************  B =      1.88184  C =      1.88184 [cm^-1]
  Rotational constants: A = ************  B =  56416.09372  C =  56416.09372 [MHz]
  Nuclear repulsion =   32.000000000000000

  Charge       = 0
  Multiplicity = 3
  Electrons    = 16
  Nalpha       = 9
  Nbeta        = 7

  ==> Algorithm <==

  SCF Algorithm Type is PK.
  DIIS enabled.
  MOM disabled.
  Fractional occupation disabled.
  Guess Type is GWH.
  Energy threshold   = 1.00e-08
  Density threshold  = 1.00e-12
  Integral threshold = 0.00e+00

  ==> Primary Basis <==

  Basis Set: CC-PCVTZ
    Blend: CC-PCVTZ
    Number of shells: 30
    Number of basis function: 86
    Number of Cartesian functions: 98
    Spherical Harmonics?: true
    Max angular momentum: 3

  ==> Pre-Iterations <==

   -------------------------------------------------------
    Irrep   Nso     Nmo     Nalpha   Nbeta   Ndocc  Nsocc
   -------------------------------------------------------
     Ag        19      19       0       0       0       0
     B1g        4       4       0       0       0       0
     B2g       10      10       0       0       0       0
     B3g       10      10       0       0       0       0
     Au         4       4       0       0       0       0
     B1u       19      19       0       0       0       0
     B2u       10      10       0       0       0       0
     B3u       10      10       0       0       0       0
   -------------------------------------------------------
    Total      86      86       9       7       7       2
   -------------------------------------------------------

  ==> Integral Setup <==

  Using in-core PK algorithm.
   Calculation information:
      Number of atoms:                   2
      Number of AO shells:              30
      Number of primitives:             62
      Number of atomic orbitals:        98
      Number of basis functions:        86

      Integral cutoff                 1.00e-12
      Number of threads:                 1

  Performing in-core PK
  Using 13998822 doubles for integral storage.
  We computed 101732 shell quartets total.
  Whereas there are 108345 unique shell quartets.
  ==> DiskJK: Disk-Based J/K Matrices <==

    J tasked:                  Yes
    K tasked:                  Yes
    wK tasked:                  No
    Memory (MB):               375
    Schwarz Cutoff:          1E-12

    OpenMP threads:              1
  Minimum eigenvalue in the overlap matrix is 1.6797415199E-03.
  Using Symmetric Orthogonalization.

  SCF Guess: Generalized Wolfsberg-Helmholtz.

  ==> Iterations <==

                        Total Energy        Delta E     RMS |[F,P]|

    Occupation by irrep:
             Ag   B1g   B2g   B3g    Au   B1u   B2u   B3u 
    DOCC [     3,    0,    0,    0,    0,    2,    1,    1 ]
    SOCC [     0,    0,    1,    1,    0,    0,    0,    0 ]

   @UHF iter   1:   479.40928935514637    4.79409e+02   5.49346e+00 
   @UHF iter   2:  -130.64070679031437   -6.10050e+02   2.23712e-01 DIIS
   @UHF iter   3:  -145.58185406389197   -1.49411e+01   1.21999e-01 DIIS
   @UHF iter   4:  -149.61908602143879   -4.03723e+00   1.06408e-02 DIIS
   @UHF iter   5:  -149.65062843036858   -3.15424e-02   2.90029e-03 DIIS
   @UHF iter   6:  -149.65354025102795   -2.91182e-03   4.78943e-04 DIIS
   @UHF iter   7:  -149.65367189546225   -1.31644e-04   1.13220e-04 DIIS
   @UHF iter   8:  -149.65367707675659   -5.18129e-06   1.51798e-05 DIIS
   @UHF iter   9:  -149.65367726558998   -1.88833e-07   4.09014e-06 DIIS
   @UHF iter  10:  -149.65367728244536   -1.68554e-08   6.37779e-07 DIIS
   @UHF iter  11:  -149.65367728292711   -4.81748e-10   1.37380e-07 DIIS
   @UHF iter  12:  -149.65367728294700   -1.98952e-11   2.45685e-08 DIIS
   @UHF iter  13:  -149.65367728294763   -6.25278e-13   4.28805e-09 DIIS
   @UHF iter  14:  -149.65367728294765   -2.84217e-14   5.38526e-10 DIIS
   @UHF iter  15:  -149.65367728294774   -8.52651e-14   8.12690e-11 DIIS
   @UHF iter  16:  -149.65367728294768    5.68434e-14   9.14933e-12 DIIS
   @UHF iter  17:  -149.65367728294771   -2.84217e-14   9.79570e-13 DIIS

  ==> Post-Iterations <==

   @Spin Contamination Metric:   2.987006734E-02
   @S^2 Expected:                2.000000000E+00
   @S^2 Observed:                2.029870067E+00
   @S   Expected:                1.000000000E+00
   @S   Observed:                1.000000000E+00

    Orbital Energies (a.u.)
    -----------------------

    Alpha Occupied:                                                       

       1Ag   -20.720693     1B1u  -20.719199     2Ag    -1.857588  
       2B1u   -1.147190     1B2u   -0.903173     1B3u   -0.903173  
       3Ag    -0.812143     1B3g   -0.480847     1B2g   -0.480847  

    Alpha Virtual:                                                        

       3B1u    0.456848     2B2u    0.661966     2B3u    0.661966  
       4Ag     0.700746     5Ag     0.736877     2B3g    0.798297  
       2B2g    0.798297     4B1u    0.934468     5B1u    1.294683  
       1B1g    1.410878     6Ag     1.410878     3B2u    1.642980  
       3B3u    1.642980     6B1u    1.926335     1Au     1.926335  
       7Ag     2.350885     7B1u    2.473959     3B3g    2.533963  
       3B2g    2.533963     4B2u    3.758443     4B3u    3.758443  
       8Ag     4.054153     4B3g    4.127305     4B2g    4.127305  
       9Ag     4.629772     8B1u    4.757626     2B1g    4.934414  
      10Ag     4.934414     5B2u    5.147096     5B3u    5.147096  
       6B3u    5.207130     6B2u    5.207130     5B2g    5.663376  
       5B3g    5.663376    11Ag     5.915955     9B1u    6.143614  
      10B1u    6.196397    12Ag     6.489150     3B1g    6.489150  
       2Au     6.490437    11B1u    6.490437    12B1u    6.745606  
       3Au     6.745606     6B3g    6.758688     6B2g    6.758688  
       7B3u    7.104799     7B2u    7.104799    13Ag     8.255031  
       7B2g    8.280988     7B3g    8.280988    13B1u   10.563284  
       8B3u   25.804117     8B2u   25.804117     8B3g   26.111344  
       8B2g   26.111344    14B1u   26.693303    14Ag    26.844820  
      15Ag    28.480459    15B1u   29.264886     4B1g   43.653236  
      16Ag    43.653236    17Ag    43.667021     9B2u   43.696920  
       9B3u   43.696920     4Au    43.713001    16B1u   43.713001  
       9B3g   43.891605     9B2g   43.891605    17B1u   45.126952  
      10B3u  138.046258    10B2u  138.046258    10B3g  138.273431  
      10B2g  138.273431    18B1u  138.923484    18Ag   138.997772  
      19Ag   148.312478    19B1u  149.957793  

    Beta Occupied:                                                        

       1Ag   -20.668520     1B1u  -20.666223     2Ag    -1.749125  
       2B1u   -0.941842     3Ag    -0.735793     1B2u   -0.658607  
       1B3u   -0.658607  

    Beta Virtual:                                                         

       1B2g    0.179248     1B3g    0.179248     3B1u    0.486962  
       4Ag     0.700525     2B2u    0.714166     2B3u    0.714166  
       5Ag     0.761262     2B3g    0.898322     2B2g    0.898322  
       4B1u    1.004004     5B1u    1.336539     1B1g    1.460834  
       6Ag     1.460834     3B2u    1.712865     3B3u    1.712865  
       1Au     2.025454     6B1u    2.025454     7Ag     2.385724  
       7B1u    2.496188     3B3g    2.586066     3B2g    2.586066  
       4B2u    3.870683     4B3u    3.870683     8Ag     4.079587  
       4B3g    4.229786     4B2g    4.229786     9Ag     4.673500  
       8B1u    4.803585     2B1g    4.969376    10Ag     4.969376  
       5B3u    5.184033     5B2u    5.184033     6B3u    5.266404  
       6B2u    5.266404     5B2g    5.733192     5B3g    5.733192  
      11Ag     5.986382     9B1u    6.177330    10B1u    6.235652  
      11B1u    6.563732     2Au     6.563732     3B1g    6.616303  
      12Ag     6.616303     6B2g    6.823096     6B3g    6.823096  
      12B1u    6.846637     3Au     6.846637     7B3u    7.163785  
       7B2u    7.163785    13Ag     8.277347     7B2g    8.320332  
       7B3g    8.320332    13B1u   10.609186     8B3u   25.859160  
       8B2u   25.859160     8B2g   26.165829     8B3g   26.165829  
      14B1u   26.712254    14Ag    26.867372    15Ag    28.510788  
      15B1u   29.293521    16Ag    43.689739     4B1g   43.705286  
      17Ag    43.705286     9B3u   43.726805     9B2u   43.726805  
       4Au    43.764904    16B1u   43.764904     9B3g   43.921398  
       9B2g   43.921398    17B1u   45.149393    10B2u  138.059683  
      10B3u  138.059683    10B3g  138.286808    10B2g  138.286808  
      18B1u  138.928984    18Ag   139.003355    19Ag   148.323082  
      19B1u  149.967937  

    Final Occupation by Irrep:
             Ag   B1g   B2g   B3g    Au   B1u   B2u   B3u 
    DOCC [     3,    0,    0,    0,    0,    2,    1,    1 ]
    SOCC [     0,    0,    1,    1,    0,    0,    0,    0 ]

  Energy converged.

  @UHF Final Energy:  -149.65367728294771

   => Energetics <=

    Nuclear Repulsion Energy =             32.0000000000000000
    One-Electron Energy =                -269.2037835000791119
    Two-Electron Energy =                  87.5501062171314004
    DFT Exchange-Correlation Energy =       0.0000000000000000
    Empirical Dispersion Energy =           0.0000000000000000
    PCM Polarization Energy =               0.0000000000000000
    EFP Energy =                            0.0000000000000000
    Total Energy =                       -149.6536772829477115


  UHF NO Occupations:
  HONO-2 :    1B2u 1.9945325
  HONO-1 :    1B3g 1.0000000
  HONO-0 :    1B2g 1.0000000
  LUNO+0 :    2B2u 0.0054675
  LUNO+1 :    2B3u 0.0054675
  LUNO+2 :    3B1u 0.0029640
  LUNO+3 :    4 Ag 0.0010074



Properties will be evaluated at   0.000000,   0.000000,   0.000000 Bohr

Properties computed using the SCF density matrix

  Nuclear Dipole Moment: (a.u.)
     X:     0.0000      Y:     0.0000      Z:     0.0000

  Electronic Dipole Moment: (a.u.)
     X:     0.0000      Y:     0.0000      Z:     0.0000

  Dipole Moment: (a.u.)
     X:     0.0000      Y:     0.0000      Z:     0.0000     Total:     0.0000

  Dipole Moment: (Debye)
     X:     0.0000      Y:     0.0000      Z:     0.0000     Total:     0.0000


*** tstop() called on psinet at Mon May 15 15:36:18 2017
Module time:
	user time   =       1.38 seconds =       0.02 minutes
	system time =       0.04 seconds =       0.00 minutes
	total time  =          2 seconds =       0.03 minutes
Total time:
	user time   =      38.97 seconds =       0.65 minutes
	system time =      13.16 seconds =       0.22 minutes
	total time  =         55 seconds =       0.92 minutes
 MINTS: Wrapper to libmints.
   by Justin Turney

   Calculation information:
      Number of threads:                 1
      Number of atoms:                   2
      Number of AO shells:              30
      Number of SO shells:              15
      Number of primitives:             62
      Number of atomic orbitals:        98
      Number of basis functions:        86

      Number of irreps:                  8
      Integral cutoff                 0.00e+00
      Number of functions per irrep: [  19    4   10   10    4   19   10   10 ]

 OEINTS: Overlap, kinetic, potential, dipole, and quadrupole integrals
         stored in file 35.

      Computing two-electron integrals...done
      Computed 907639 non-zero two-electron integrals.
        Stored in file 33.


*** tstart() called on psinet
*** at Mon May 15 15:36:18 2017



	***********************************************************************************
	*                        Density Cumulant Functional Theory                       *
	*                by Alexander Sokolov, Andy Simmonett, and Xiao Wang              *
	***********************************************************************************


	Transforming two-electron integrals (transformation type: unrestricted)...
	Computing MP2 amplitude guess...

	*Total Hartree-Fock energy        = -149.653677282947712
	 Alpha - Alpha MP2 energy         =   -0.068673352579451
	 Alpha - Beta  MP2 energy         =   -0.389193273762648
	 Beta  - Beta  MP2 energy         =   -0.061625703312496
	 Total MP2 correlation energy     =   -0.519492329654595
	*Total MP2 energy                 = -150.173169612602294

	DCFT Functional:    		 CEPA0
	DCFT Type:          		 CONV
	Algorithm:          		 TWOSTEP
	AO-Basis Integrals: 		 NONE

	*=================================================================================*
	* Cycle  RMS [F, Kappa]   RMS Lambda Error   delta E        Total Energy     DIIS *
	*---------------------------------------------------------------------------------*
	                          *** Macro Iteration 1 ***
	Cumulant Iterations
	* 1        3.138e-13         9.535e-04     -6.044e-03   -150.179213393503090  S   *
	* 2        3.138e-13         1.659e-04     -7.353e-03   -150.186566820414328  S   *
	* 3        3.138e-13         5.923e-05     -1.750e-03   -150.188316896872948  S/E *
	* 4        3.138e-13         1.460e-05      8.896e-05   -150.188227937164726  S/E *
	* 5        3.138e-13         3.526e-06     -2.939e-05   -150.188257331046998  S/E *
	* 6        3.138e-13         7.905e-07      3.049e-06   -150.188254281854967  S/E *
	* 7        3.138e-13         1.761e-07     -1.167e-07   -150.188254398549958  S/E *
	* 8        3.138e-13         4.143e-08     -1.614e-08   -150.188254414687407  S/E *
	* 9        3.138e-13         9.888e-09     -2.119e-08   -150.188254435881731  S/E *
	* 10       3.138e-13         3.018e-09     -4.737e-09   -150.188254440619062  S/E *
	* 11       3.138e-13         9.063e-10     -2.842e-09   -150.188254443461375  S/E *
	* 12       3.138e-13         3.025e-10     -1.234e-09   -150.188254444695588  S/E *
	* 13       3.138e-13         1.015e-10     -5.846e-10   -150.188254445280165  S/E *
	* 14       3.138e-13         3.418e-11     -2.119e-10   -150.188254445492106  S/E *
	* 15       3.138e-13         1.187e-11     -6.523e-11   -150.188254445557334  S/E *
	* 16       3.138e-13         3.594e-12      5.485e-12   -150.188254445551848  S/E *
	* 17       3.138e-13         1.008e-12      1.108e-12   -150.188254445550740  S/E *
	* 18       3.138e-13         2.776e-13      1.108e-12   -150.188254445549632  S/E *
	*=================================================================================*

	*   CEPA0 SCF Energy                                 =    -149.653677282947712
	*   CEPA0 Lambda Energy                              =      -0.534577162601912
	*   CEPA0 Total Energy                               =    -150.188254445549632

	Orbital occupations:
		Alpha occupied orbitals
		   1B3u      1.0000     1B2u      1.0000     1B1u      1.0000     2B1u      1.0000  
		   1B3g      1.0000     1B2g      1.0000     1Ag       1.0000     2Ag       1.0000  
		   3Ag       1.0000  

		Beta occupied orbitals
		   1B3u      1.0000     1B2u      1.0000     1B1u      1.0000     2B1u      1.0000  
		   1Ag       1.0000     2Ag       1.0000     3Ag       1.0000  

		Alpha virtual orbitals
		   2B3u      0.0000     3B3u      0.0000     4B3u      0.0000     5B3u      0.0000  
		   6B3u      0.0000     7B3u      0.0000     8B3u      0.0000     9B3u      0.0000  
		  10B3u      0.0000     2B2u      0.0000     3B2u      0.0000     4B2u      0.0000  
		   5B2u      0.0000     6B2u      0.0000     7B2u      0.0000     8B2u      0.0000  
		   9B2u      0.0000    10B2u      0.0000     3B1u      0.0000     4B1u      0.0000  
		   5B1u      0.0000     6B1u      0.0000     7B1u      0.0000     8B1u      0.0000  
		   9B1u      0.0000    10B1u      0.0000    11B1u      0.0000    12B1u      0.0000  
		  13B1u      0.0000    14B1u      0.0000    15B1u      0.0000    16B1u      0.0000  
		  17B1u      0.0000    18B1u      0.0000    19B1u      0.0000     1Au       0.0000  
		   2Au       0.0000     3Au       0.0000     4Au       0.0000     2B3g      0.0000  
		   3B3g      0.0000     4B3g      0.0000     5B3g      0.0000     6B3g      0.0000  
		   7B3g      0.0000     8B3g      0.0000     9B3g      0.0000    10B3g      0.0000  
		   2B2g      0.0000     3B2g      0.0000     4B2g      0.0000     5B2g      0.0000  
		   6B2g      0.0000     7B2g      0.0000     8B2g      0.0000     9B2g      0.0000  
		  10B2g      0.0000     1B1g      0.0000     2B1g      0.0000     3B1g      0.0000  
		   4B1g      0.0000     4Ag       0.0000     5Ag       0.0000     6Ag       0.0000  
		   7Ag       0.0000     8Ag       0.0000     9Ag       0.0000    10Ag       0.0000  
		  11Ag       0.0000    12Ag       0.0000    13Ag       0.0000    14Ag       0.0000  
		  15Ag       0.0000    16Ag       0.0000    17Ag       0.0000    18Ag       0.0000  
		  19Ag       0.0000  

		Beta virtual orbitals
		   2B3u      0.0000     3B3u      0.0000     4B3u      0.0000     5B3u      0.0000  
		   6B3u      0.0000     7B3u      0.0000     8B3u      0.0000     9B3u      0.0000  
		  10B3u      0.0000     2B2u      0.0000     3B2u      0.0000     4B2u      0.0000  
		   5B2u      0.0000     6B2u      0.0000     7B2u      0.0000     8B2u      0.0000  
		   9B2u      0.0000    10B2u      0.0000     3B1u      0.0000     4B1u      0.0000  
		   5B1u      0.0000     6B1u      0.0000     7B1u      0.0000     8B1u      0.0000  
		   9B1u      0.0000    10B1u      0.0000    11B1u      0.0000    12B1u      0.0000  
		  13B1u      0.0000    14B1u      0.0000    15B1u      0.0000    16B1u      0.0000  
		  17B1u      0.0000    18B1u      0.0000    19B1u      0.0000     1Au       0.0000  
		   2Au       0.0000     3Au       0.0000     4Au       0.0000     1B3g      0.0000  
		   2B3g      0.0000     3B3g      0.0000     4B3g      0.0000     5B3g      0.0000  
		   6B3g      0.0000     7B3g      0.0000     8B3g      0.0000     9B3g      0.0000  
		  10B3g      0.0000     1B2g      0.0000     2B2g      0.0000     3B2g      0.0000  
		   4B2g      0.0000     5B2g      0.0000     6B2g      0.0000     7B2g      0.0000  
		   8B2g      0.0000     9B2g      0.0000    10B2g      0.0000     1B1g      0.0000  
		   2B1g      0.0000     3B1g      0.0000     4B1g      0.0000     4Ag       0.0000  
		   5Ag       0.0000     6Ag       0.0000     7Ag       0.0000     8Ag       0.0000  
		   9Ag       0.0000    10Ag       0.0000    11Ag       0.0000    12Ag       0.0000  
		  13Ag       0.0000    14Ag       0.0000    15Ag       0.0000    16Ag       0.0000  
		  17Ag       0.0000    18Ag       0.0000    19Ag       0.0000  

	 OPDM trace: 	 16.000000		Deviation: 	0.0000e+00
	 TPDM trace: 	239.611763		Deviation: 	3.8824e-01

*** tstop() called on psinet at Mon May 15 15:36:22 2017
Module time:
	user time   =       2.23 seconds =       0.04 minutes
	system time =       1.34 seconds =       0.02 minutes
	total time  =          4 seconds =       0.07 minutes
Total time:
	user time   =      41.76 seconds =       0.70 minutes
	system time =      14.52 seconds =       0.24 minutes
	total time  =         59 seconds =       0.98 minutes
	CEPA0 Energy (two-step, ao_basis=none)............................PASSED

*** Psi4 exiting successfully. Buy a developer a beer!
