    -----------------------------------------------------------------------
          Psi4: An Open-Source Ab Initio Electronic Structure Package
                              Psi4 0.5 Driver

                          Git: Rev {master} dbe9080

    J. M. Turney, A. C. Simmonett, R. M. Parrish, E. G. Hohenstein,
    F. A. Evangelista, J. T. Fermann, B. J. Mintz, L. A. Burns, J. J. Wilke,
    M. L. Abrams, N. J. Russ, M. L. Leininger, C. L. Janssen, E. T. Seidl,
    W. D. Allen, H. F. Schaefer, R. A. King, E. F. Valeev, C. D. Sherrill,
    and T. D. Crawford, WIREs Comput. Mol. Sci. 2, 556-565 (2012)
    (doi: 10.1002/wcms.93)

                         Additional Contributions by
    A. E. DePrince, M. Saitow, U. Bozkaya, A. Yu. Sokolov
    -----------------------------------------------------------------------


    Psi4 started on: Mon Mar 14 15:21:36 2016

    Process ID:  11567
    PSI4DATADIR: /home/dsmith/Gits/dgas_psi/share
    Memory level set to 256.000 MB

  ==> Input File <==

--------------------------------------------------------------------------
#! DC-06 calculation for the He dimer. This performs a
#! two-step update of the orbitals and cumulant, using DIIS extrapolation.
#! Four-virtual integrals are handled in the MO Basis.

memory 250 mb

refnuc      =  0.66147151073750 #TEST
refscf      = -5.71032245823742 #TEST
refmp2      = -5.76128209224125 #TEST
refdcftscf  = -5.62714230598082 #TEST
refdcft     = -5.77531659914793 #TEST

molecule he2 {
    He
    He 1 3.2
}

set globals {
    r_convergence 11
    e_convergence 11
    ao_basis    none
    algorithm   twostep
    basis       6-31G**
    df_scf_guess false
    reference   uhf
}

set dcft_functional dc-06
energy('dcft')

compare_values(refnuc, he2.nuclear_repulsion_energy(), 10, "Nuclear Repulsion Energy"); #TEST
compare_values(refscf, get_variable("SCF TOTAL ENERGY"), 10, "SCF Energy");            #TEST
compare_values(refmp2, get_variable("MP2 TOTAL ENERGY"), 8, "MP2 Energy");                   #TEST
compare_values(refdcft, get_variable("DCFT TOTAL ENERGY"), 8, "DC-06 Energy");                #TEST
compare_values(refdcftscf, get_variable("DCFT SCF ENERGY"), 8, "DC-06 SCF Energy");     #TEST
--------------------------------------------------------------------------

  Memory set to 250.000 MiB by Python script.
    There are an even number of electrons - assuming singlet.
    Specify the multiplicity in the molecule input block.


*** tstart() called on ds1.sherrill.chemistry.gatech.edu
*** at Mon Mar 14 15:21:36 2016


         ---------------------------------------------------------
                                   SCF
            by Justin Turney, Rob Parrish, and Andy Simmonett
                              UHF Reference
                        1 Threads,    250 MiB Core
         ---------------------------------------------------------

  ==> Geometry <==

    Molecular point group: d2h
    Full point group: D_inf_h

    Geometry (in Angstrom), charge = 0, multiplicity = 1:

       Center              X                  Y                   Z               Mass       
    ------------   -----------------  -----------------  -----------------  -----------------
          HE          0.000000000000     0.000000000000    -1.600000000000     4.002603254150
          HE          0.000000000000     0.000000000000     1.600000000000     4.002603254150

  Running in d2h symmetry.

  Rotational constants: A = ************  B =      0.82259  C =      0.82259 [cm^-1]
  Rotational constants: A = ************  B =  24660.65974  C =  24660.65974 [MHz]
  Nuclear repulsion =    0.661471510737500

  Charge       = 0
  Multiplicity = 1
  Electrons    = 4
  Nalpha       = 2
  Nbeta        = 2

  ==> Algorithm <==

  SCF Algorithm Type is PK.
  DIIS enabled.
  MOM disabled.
  Fractional occupation disabled.
  Guess Type is CORE.
  Energy threshold   = 1.00e-11
  Density threshold  = 1.00e-08
  Integral threshold = 0.00e+00

  ==> Primary Basis <==

  Basis Set: 6-31G**
    Number of shells: 6
    Number of basis function: 10
    Number of Cartesian functions: 10
    Spherical Harmonics?: false
    Max angular momentum: 1

  ==> Pre-Iterations <==

   -------------------------------------------------------
    Irrep   Nso     Nmo     Nalpha   Nbeta   Ndocc  Nsocc
   -------------------------------------------------------
     Ag         3       3       0       0       0       0
     B1g        0       0       0       0       0       0
     B2g        1       1       0       0       0       0
     B3g        1       1       0       0       0       0
     Au         0       0       0       0       0       0
     B1u        3       3       0       0       0       0
     B2u        1       1       0       0       0       0
     B3u        1       1       0       0       0       0
   -------------------------------------------------------
    Total      10      10       2       2       2       0
   -------------------------------------------------------

  ==> Integral Setup <==

	Batch   1 pq = [       0,      16] index = [             0,136]
  ==> DiskJK: Disk-Based J/K Matrices <==

    J tasked:                  Yes
    K tasked:                  Yes
    wK tasked:                  No
    Memory (MB):               178
    Schwarz Cutoff:          1E-12

  Minimum eigenvalue in the overlap matrix is 3.6378333196E-01.
  Using Symmetric Orthogonalization.
  SCF Guess: Core (One-Electron) Hamiltonian.

  ==> Iterations <==

                        Total Energy        Delta E     RMS |[F,P]|

   @UHF iter   1:    -5.48297430054139   -5.48297e+00   1.44248e-01 
   @UHF iter   2:    -5.70880666076290   -2.25832e-01   1.21504e-02 DIIS
   @UHF iter   3:    -5.71032234126941   -1.51568e-03   1.12298e-04 DIIS
   @UHF iter   4:    -5.71032245696616   -1.15697e-07   1.11445e-05 DIIS
   @UHF iter   5:    -5.71032245823739   -1.27124e-09   4.77732e-08 DIIS
   @UHF iter   6:    -5.71032245823742   -2.57572e-14   3.05964e-09 DIIS

  ==> Post-Iterations <==

   @Spin Contamination Metric:   1.776356839E-15
   @S^2 Expected:                0.000000000E+00
   @S^2 Observed:                1.776356839E-15
   @S   Expected:                0.000000000E+00
   @S   Observed:                0.000000000E+00

    Orbital Energies (a.u.)
    -----------------------

    Alpha Occupied:                                                       

       1Ag    -0.915192     1B1u   -0.913062  

    Alpha Virtual:                                                        

       2Ag     1.385550     2B1u    1.414364     3Ag     2.181995  
       1B2u    2.182002     1B3u    2.182002     1B2g    2.182002  
       1B3g    2.182002     3B1u    2.182025  

    Beta Occupied:                                                        

       1Ag    -0.915192     1B1u   -0.913062  

    Beta Virtual:                                                         

       2Ag     1.385550     2B1u    1.414364     3Ag     2.181995  
       1B2u    2.182002     1B3u    2.182002     1B2g    2.182002  
       1B3g    2.182002     3B1u    2.182025  

    Final Occupation by Irrep:
             Ag   B1g   B2g   B3g    Au   B1u   B2u   B3u 
    DOCC [     1,    0,    0,    0,    0,    1,    0,    0 ]
    SOCC [     0,    0,    0,    0,    0,    0,    0,    0 ]

  Energy converged.

  @UHF Final Energy:    -5.71032245823742

   => Energetics <=

    Nuclear Repulsion Energy =              0.6614715107375000
    One-Electron Energy =                  -9.0870793194823367
    Two-Electron Energy =                   2.7152853505074175
    DFT Exchange-Correlation Energy =       0.0000000000000000
    Empirical Dispersion Energy =           0.0000000000000000
    PCM Polarization Energy =               0.0000000000000000
    EFP Energy =                            0.0000000000000000
    Total Energy =                         -5.7103224582374184

    Alert: EFP and PCM quantities not currently incorporated into SCF psivars.

Properties will be evaluated at   0.000000,   0.000000,   0.000000 Bohr
  ==> Properties <==


Properties computed using the SCF density matrix

  Nuclear Dipole Moment: (a.u.)
     X:     0.0000      Y:     0.0000      Z:     0.0000

  Electronic Dipole Moment: (a.u.)
     X:     0.0000      Y:     0.0000      Z:     0.0000

  Dipole Moment: (a.u.)
     X:     0.0000      Y:     0.0000      Z:     0.0000     Total:     0.0000

  Dipole Moment: (Debye)
     X:     0.0000      Y:     0.0000      Z:     0.0000     Total:     0.0000


  Saving occupied orbitals to File 180.

  UHF NO Occupations:
  HONO-1 :    1 Ag 2.0000000
  HONO-0 :    1B1u 2.0000000
  LUNO+0 :    2B1u 0.0000000
  LUNO+1 :    2 Ag 0.0000000
  LUNO+2 :    1B3u 0.0000000
  LUNO+3 :    1B2u 0.0000000


*** tstop() called on ds1.sherrill.chemistry.gatech.edu at Mon Mar 14 15:21:36 2016
Module time:
	user time   =       0.03 seconds =       0.00 minutes
	system time =       0.01 seconds =       0.00 minutes
	total time  =          0 seconds =       0.00 minutes
Total time:
	user time   =       0.03 seconds =       0.00 minutes
	system time =       0.01 seconds =       0.00 minutes
	total time  =          0 seconds =       0.00 minutes

*** tstart() called on ds1.sherrill.chemistry.gatech.edu
*** at Mon Mar 14 15:21:36 2016



	***********************************************************************************
	*                        Density Cumulant Functional Theory                       *
	*                by Alexander Sokolov, Andy Simmonett, and Xiao Wang              *
	***********************************************************************************


	Transforming two-electron integrals (transformation type: unrestricted)...
	Computing MP2 amplitude guess...

	*Total Hartree-Fock energy        =   -5.710322458237419
	 Alpha - Alpha MP2 energy         =   -0.000001349511459
	 Alpha - Beta  MP2 energy         =   -0.050956934980186
	 Beta  - Beta  MP2 energy         =   -0.000001349511459
	 Total MP2 correlation energy     =   -0.050959634003104
	*Total MP2 energy                 =   -5.761282092240523

	DCFT Functional:    		 DC-06
	DCFT Type:          		 CONV
	Algorithm:          		 TWOSTEP
	AO-Basis Integrals: 		 NONE

	*=================================================================================*
	* Cycle  RMS [F, Kappa]   RMS Lambda Error   delta E        Total Energy     DIIS *
	*---------------------------------------------------------------------------------*
	                          *** Macro Iteration 1 ***
	Cumulant Iterations
	* 1        2.646e-10         1.456e-02     -8.619e-02     -5.847469623620796      *
	* 2        2.646e-10         3.259e-03     -8.462e-03     -5.855931416845075      *
	* 3        2.646e-10         7.622e-04     -1.962e-03     -5.857893732786390  S   *
	* 4        2.646e-10         1.849e-04     -4.587e-04     -5.858352439218694  S   *
	* 5        2.646e-10         4.613e-05     -1.314e-04     -5.858483814634411  S/E *
	* 6        2.646e-10         8.848e-09     -1.243e-05     -5.858496248054510  S/E *
	* 7        2.646e-10         1.684e-09      7.467e-10     -5.858496247307782  S/E *
	* 8        2.646e-10         3.484e-10     -8.802e-13     -5.858496247308662  S/E *
	* 9        2.646e-10         4.229e-11     -1.839e-12     -5.858496247310501  S/E *
	* 10       2.646e-10         3.174e-12      1.273e-12     -5.858496247309228  S/E *
	Orbital Updates
	* 1        7.925e-06         3.174e-12      8.318e-02     -5.775316393161113  S   *
	* 2        5.934e-07         3.174e-12     -6.464e-10     -5.775316393807527  S   *
	* 3        4.448e-08         3.174e-12     -3.623e-12     -5.775316393811150  S   *
	* 4        3.338e-09         3.174e-12     -2.220e-14     -5.775316393811172  S/E *
	* 5        1.436e-12         3.174e-12      8.882e-16     -5.775316393811171  S/E *
	                          *** Macro Iteration 2 ***
	Cumulant Iterations
	* 1        1.436e-12         7.769e-07     -3.966e-07     -5.775316790370588  S   *
	* 2        1.436e-12         1.177e-07     -7.946e-08     -5.775316869834101  S   *
	* 3        1.436e-12         2.089e-08     -2.541e-08     -5.775316895245625  S/E *
	* 4        1.436e-12         5.984e-10     -3.089e-09     -5.775316898334879  S/E *
	* 5        1.436e-12         1.350e-10     -1.439e-10     -5.775316898478798  S/E *
	* 6        1.436e-12         3.394e-11     -3.137e-11     -5.775316898510166  S/E *
	* 7        1.436e-12         5.052e-12     -2.252e-12     -5.775316898512418  S/E *
	Orbital Updates
	* 1        8.785e-09         5.052e-12      2.991e-07     -5.775316599366471  S   *
	* 2        6.606e-10         5.052e-12     -8.882e-16     -5.775316599366472  S   *
	* 3        4.973e-11         5.052e-12     -8.882e-16     -5.775316599366473  S   *
	* 4        3.746e-12         5.052e-12      0.000e+00     -5.775316599366473  S/E *
	                          *** Macro Iteration 3 ***
	Cumulant Iterations
	* 1        3.746e-12         5.257e-10      4.676e-10     -5.775316598898861  S   *
	* 2        3.746e-12         9.566e-11      9.380e-11     -5.775316598805060  S   *
	* 3        3.746e-12         1.993e-11      2.793e-11     -5.775316598777127  S/E *
	* 4        3.746e-12         1.991e-12      4.942e-12     -5.775316598772185  S/E *
	Orbital Updates
	* 1        9.925e-12         1.991e-12     -3.524e-10     -5.775316599124585  S   *
	* 2        7.482e-13         1.991e-12      0.000e+00     -5.775316599124585  S   *
	                          *** Macro Iteration 4 ***
	Cumulant Iterations
	* 1        7.482e-13         6.256e-13      1.865e-13     -5.775316599124398  S   *
	Orbital Updates
	* 1        4.715e-14         6.256e-13     -1.776e-13     -5.775316599124576  S   *
	*=================================================================================*

	*   DC-06 SCF Energy                                 =      -5.627142305945995
	*   DC-06 Lambda Energy                              =      -0.148174293178581
	*   DC-06 Total Energy                               =      -5.775316599124576

	Orbital occupations:
		Alpha occupied orbitals
		   1Ag       0.9922     1B1u      0.9922  

		Beta occupied orbitals
		   1Ag       0.9922     1B1u      0.9922  

		Alpha virtual orbitals
		   2Ag       0.0043     2B1u      0.0043     3Ag       0.0012     3B1u      0.0012  
		   1B3g      0.0012     1B2g      0.0012     1B2u      0.0012     1B3u      0.0012  
		

		Beta virtual orbitals
		   2Ag       0.0043     2B1u      0.0043     3Ag       0.0012     3B1u      0.0012  
		   1B3g      0.0012     1B2g      0.0012     1B3u      0.0012     1B2u      0.0012  
		


*** tstop() called on ds1.sherrill.chemistry.gatech.edu at Mon Mar 14 15:21:36 2016
Module time:
	user time   =       0.07 seconds =       0.00 minutes
	system time =       0.10 seconds =       0.00 minutes
	total time  =          0 seconds =       0.00 minutes
Total time:
	user time   =       0.10 seconds =       0.00 minutes
	system time =       0.11 seconds =       0.00 minutes
	total time  =          0 seconds =       0.00 minutes
	Nuclear Repulsion Energy..........................................PASSED
	SCF Energy........................................................PASSED
	MP2 Energy........................................................PASSED
	DC-06 Energy......................................................PASSED
	DC-06 SCF Energy..................................................PASSED

*** PSI4 exiting successfully. Buy a developer a beer!
