    -----------------------------------------------------------------------
          Psi4: An Open-Source Ab Initio Electronic Structure Package
                              Psi4 0.5 Driver

                          Git: Rev {master} dbe9080

    J. M. Turney, A. C. Simmonett, R. M. Parrish, E. G. Hohenstein,
    F. A. Evangelista, J. T. Fermann, B. J. Mintz, L. A. Burns, J. J. Wilke,
    M. L. Abrams, N. J. Russ, M. L. Leininger, C. L. Janssen, E. T. Seidl,
    W. D. Allen, H. F. Schaefer, R. A. King, E. F. Valeev, C. D. Sherrill,
    and T. D. Crawford, WIREs Comput. Mol. Sci. 2, 556-565 (2012)
    (doi: 10.1002/wcms.93)

                         Additional Contributions by
    A. E. DePrince, M. Saitow, U. Bozkaya, A. Yu. Sokolov
    -----------------------------------------------------------------------


    Psi4 started on: Mon Mar 14 15:14:02 2016

    Process ID:   9185
    PSI4DATADIR: /home/dsmith/Gits/dgas_psi/share
    Memory level set to 256.000 MB

  ==> Input File <==

--------------------------------------------------------------------------
#! OMP2 cc-pVDZ energy for the H2O molecule.

refnuc      =  9.18738642147759 #TEST
refscf      = -76.02676109559437 #TEST
refomp2     = -76.23167598916250 #TEST
refscsomp2  = -76.22777681779829 #TEST
refsosomp2  = -76.21044382379418 #TEST

memory 250 mb

molecule h2o {
0 1
o
h 1 0.958
h 1 0.958 2 104.4776 
}

set {
  basis cc-pvdz
  mp2_type conv
}

energy('omp2')

compare_values(refnuc, get_variable("NUCLEAR REPULSION ENERGY"), 6, "Nuclear Repulsion Energy (a.u.)");  #TEST
compare_values(refscf, get_variable("SCF TOTAL ENERGY"), 6, "SCF Energy (a.u.)");                        #TEST
compare_values(refomp2, get_variable("OMP2 TOTAL ENERGY"), 6, "OMP2 Total Energy (a.u.)");               #TEST
compare_values(refscsomp2, get_variable("SCS-OMP2 TOTAL ENERGY"), 6, "SCS-OMP2 Total Energy (a.u.)");    #TEST
compare_values(refsosomp2, get_variable("SOS-OMP2 TOTAL ENERGY"), 6, "SOS-OMP2 Total Energy (a.u.)");    #TEST

--------------------------------------------------------------------------

  Memory set to 250.000 MiB by Python script.

*** tstart() called on ds1.sherrill.chemistry.gatech.edu
*** at Mon Mar 14 15:14:02 2016


         ---------------------------------------------------------
                                   SCF
            by Justin Turney, Rob Parrish, and Andy Simmonett
                              RHF Reference
                        1 Threads,    250 MiB Core
         ---------------------------------------------------------

  ==> Geometry <==

    Molecular point group: c2v
    Full point group: C2v

    Geometry (in Angstrom), charge = 0, multiplicity = 1:

       Center              X                  Y                   Z               Mass       
    ------------   -----------------  -----------------  -----------------  -----------------
           O          0.000000000000     0.000000000000    -0.065655108074    15.994914619560
           H          0.000000000000    -0.757365949175     0.520997104936     1.007825032070
           H          0.000000000000     0.757365949175     0.520997104936     1.007825032070

  Running in c2v symmetry.

  Rotational constants: A =     27.36310  B =     14.58041  C =      9.51197 [cm^-1]
  Rotational constants: A = 820325.16776  B = 437109.76453  C = 285161.58706 [MHz]
  Nuclear repulsion =    9.187386421477592

  Charge       = 0
  Multiplicity = 1
  Electrons    = 10
  Nalpha       = 5
  Nbeta        = 5

  ==> Algorithm <==

  SCF Algorithm Type is PK.
  DIIS enabled.
  MOM disabled.
  Fractional occupation disabled.
  Guess Type is CORE.
  Energy threshold   = 1.00e-08
  Density threshold  = 1.00e-08
  Integral threshold = 0.00e+00

  ==> Primary Basis <==

  Basis Set: CC-PVDZ
    Number of shells: 12
    Number of basis function: 24
    Number of Cartesian functions: 25
    Spherical Harmonics?: true
    Max angular momentum: 2

  ==> Pre-Iterations <==

   -------------------------------------------------------
    Irrep   Nso     Nmo     Nalpha   Nbeta   Ndocc  Nsocc
   -------------------------------------------------------
     A1        11      11       0       0       0       0
     A2         2       2       0       0       0       0
     B1         4       4       0       0       0       0
     B2         7       7       0       0       0       0
   -------------------------------------------------------
    Total      24      24       5       5       5       0
   -------------------------------------------------------

  ==> Integral Setup <==

	Batch   1 pq = [       0,     107] index = [             0,5778]
  ==> DiskJK: Disk-Based J/K Matrices <==

    J tasked:                  Yes
    K tasked:                  Yes
    wK tasked:                  No
    Memory (MB):               178
    Schwarz Cutoff:          1E-12

  Minimum eigenvalue in the overlap matrix is 3.4230868664E-02.
  Using Symmetric Orthogonalization.
  SCF Guess: Core (One-Electron) Hamiltonian.

  ==> Iterations <==

                        Total Energy        Delta E     RMS |[F,P]|

    Occupation by irrep:
             A1    A2    B1    B2 
    DOCC [     3,    0,    0,    2 ]

   @RHF iter   1:   -68.87414405851878   -6.88741e+01   2.25267e-01 
    Occupation by irrep:
             A1    A2    B1    B2 
    DOCC [     3,    0,    1,    1 ]

   @RHF iter   2:   -69.94961388024056   -1.07547e+00   1.83937e-01 DIIS
   @RHF iter   3:   -75.73691793435380   -5.78730e+00   6.33065e-02 DIIS
   @RHF iter   4:   -76.00165601705392   -2.64738e-01   1.71675e-02 DIIS
   @RHF iter   5:   -76.02647588165972   -2.48199e-02   1.54305e-03 DIIS
   @RHF iter   6:   -76.02671906756545   -2.43186e-04   6.80188e-04 DIIS
   @RHF iter   7:   -76.02675940507515   -4.03375e-05   9.53593e-05 DIIS
   @RHF iter   8:   -76.02676100593206   -1.60086e-06   3.20127e-05 DIIS
   @RHF iter   9:   -76.02676109481268   -8.88806e-08   1.84393e-06 DIIS
   @RHF iter  10:   -76.02676109554518   -7.32499e-10   6.60581e-07 DIIS
   @RHF iter  11:   -76.02676109559285   -4.76632e-11   1.18001e-07 DIIS
   @RHF iter  12:   -76.02676109559422   -1.37845e-12   8.37834e-09 DIIS

  ==> Post-Iterations <==

    Orbital Energies (a.u.)
    -----------------------

    Doubly Occupied:                                                      

       1A1   -20.550579     2A1    -1.336336     1B2    -0.698827  
       3A1    -0.566506     1B1    -0.493105  

    Virtual:                                                              

       4A1     0.185436     2B2     0.256147     3B2     0.788656  
       5A1     0.853784     6A1     1.163587     2B1     1.200369  
       4B2     1.253383     7A1     1.444392     1A2     1.476182  
       3B1     1.674338     8A1     1.867382     5B2     1.934293  
       6B2     2.451040     9A1     2.488585     4B1     3.285193  
       2A2     3.338052    10A1     3.509722    11A1     3.864815  
       7B2     4.146867  

    Final Occupation by Irrep:
             A1    A2    B1    B2 
    DOCC [     3,    0,    1,    1 ]

  Energy converged.

  @RHF Final Energy:   -76.02676109559422

   => Energetics <=

    Nuclear Repulsion Energy =              9.1873864214775924
    One-Electron Energy =                -123.1375895810750478
    Two-Electron Energy =                  37.9234420640031971
    DFT Exchange-Correlation Energy =       0.0000000000000000
    Empirical Dispersion Energy =           0.0000000000000000
    PCM Polarization Energy =               0.0000000000000000
    EFP Energy =                            0.0000000000000000
    Total Energy =                        -76.0267610955942530

    Alert: EFP and PCM quantities not currently incorporated into SCF psivars.

Properties will be evaluated at   0.000000,   0.000000,   0.000000 Bohr
  ==> Properties <==


Properties computed using the SCF density matrix

  Nuclear Dipole Moment: (a.u.)
     X:     0.0000      Y:     0.0000      Z:     0.9765

  Electronic Dipole Moment: (a.u.)
     X:     0.0000      Y:     0.0000      Z:    -0.1670

  Dipole Moment: (a.u.)
     X:     0.0000      Y:     0.0000      Z:     0.8095     Total:     0.8095

  Dipole Moment: (Debye)
     X:     0.0000      Y:     0.0000      Z:     2.0576     Total:     2.0576


  Saving occupied orbitals to File 180.

*** tstop() called on ds1.sherrill.chemistry.gatech.edu at Mon Mar 14 15:14:02 2016
Module time:
	user time   =       0.03 seconds =       0.00 minutes
	system time =       0.01 seconds =       0.00 minutes
	total time  =          0 seconds =       0.00 minutes
Total time:
	user time   =       0.03 seconds =       0.00 minutes
	system time =       0.01 seconds =       0.00 minutes
	total time  =          0 seconds =       0.00 minutes

*** tstart() called on ds1.sherrill.chemistry.gatech.edu
*** at Mon Mar 14 15:14:02 2016


 ============================================================================== 
 ============================================================================== 
 ============================================================================== 

                       OMP2 (OO-MP2)   
              Program Written by Ugur Bozkaya,
              Latest Revision June 25, 2014.

 ============================================================================== 
 ============================================================================== 
 ============================================================================== 

	RMS orbital gradient is changed to :     1.00e-05
	MAX orbital gradient is changed to :     3.16e-04
	MO spaces per irreps... 

	IRREP   FC    OCC   VIR  FV 
	==============================
	  A1     0     3     8    0
	  A2     0     0     2    0
	  B1     0     1     3    0
	  B2     0     1     6    0
	==============================

	Memory is    250 MB 
	Cost of iabc is      0 MB 
	Cost of abcd is      0 MB 
	Switching to the incore algoritm for iabc..
	Switching to the incore algoritm for abcd..

	Computing MP2 energy using SCF MOs (Canonical MP2)... 
	============================================================================== 
	Nuclear Repulsion Energy (a.u.)    :     9.18738642147759
	SCF Energy (a.u.)                  :   -76.02676109559422
	REF Energy (a.u.)                  :   -76.02676109559418
	Alpha-Alpha Contribution (a.u.)    :    -0.02576501619699
	Alpha-Beta Contribution (a.u.)     :    -0.15248920663634
	Beta-Beta Contribution (a.u.)      :    -0.02576501619699
	Scaled_SS Correlation Energy (a.u.):    -0.01717667746466
	Scaled_OS Correlation Energy (a.u.):    -0.18298704796361
	SCS-MP2 Total Energy (a.u.)        :   -76.22692482102244
	SOS-MP2 Total Energy (a.u.)        :   -76.22499706422143
	SCSN-MP2 Total Energy (a.u.)       :   -76.11745395260759
	SCS-MP2-VDW Total Energy (a.u.)    :   -76.24771229628570
	SOS-PI-MP2 Total Energy (a.u.)     :   -76.24024598488506
	MP2 Correlation Energy (a.u.)      :    -0.20401923903032
	MP2 Total Energy (a.u.)            :   -76.23078033462450
	============================================================================== 

	Number of independent-pairs:  33

 ============================================================================== 
 ================ Performing OMP2 iterations... =============================== 
 ============================================================================== 
	            Minimizing MP2-L Functional 
	            --------------------------- 
 Iter       E_total           DE           RMS MO Grad      MAX MO Grad      RMS T2    
 ----    ---------------    ----------     -----------      -----------     ---------- 
   1     -76.2316744142     -8.94e-04       5.84e-05         7.17e-04        6.08e-05 
   2     -76.2316759792     -1.57e-06       4.60e-06         6.26e-05        4.13e-06 

 ============================================================================== 
 ======================== OMP2 ITERATIONS ARE CONVERGED ======================= 
 ============================================================================== 

	Orbitals are optimized now.
	Switching to the standard MP2 computation after semicanonicalization of the MOs... 

	Computing MP2 energy using optimized MOs... 
	============================================================================== 
	Nuclear Repulsion Energy (a.u.)    :     9.18738642147759
	SCF Energy (a.u.)                  :   -76.02676109559422
	REF Energy (a.u.)                  :   -76.02584595333741
	Alpha-Alpha Contribution (a.u.)    :    -0.02599893800901
	Alpha-Beta Contribution (a.u.)     :    -0.15383214987144
	Beta-Beta Contribution (a.u.)      :    -0.02599893800901
	Scaled_SS Correlation Energy (a.u.):    -0.01733262533934
	Scaled_OS Correlation Energy (a.u.):    -0.18459857984573
	SCS-MP2 Total Energy (a.u.)        :   -76.22777715852249
	SOS-MP2 Total Energy (a.u.)        :   -76.21044453318314
	SCSN-MP2 Total Energy (a.u.)       :   -76.11736221512913
	SCS-MP2-VDW Total Energy (a.u.)    :   -76.24875004318187
	SOS-PI-MP2 Total Energy (a.u.)     :   -76.24121096315743
	MP2 Correlation Energy (a.u.)      :    -0.20583002588947
	MP2 Total Energy (a.u.)            :   -76.23167597922688
	============================================================================== 

	============================================================================== 
	================ OMP2 FINAL RESULTS ========================================== 
	============================================================================== 
	Nuclear Repulsion Energy (a.u.)    :     9.18738642147759
	SCF Energy (a.u.)                  :   -76.02676109559422
	REF Energy (a.u.)                  :   -76.02584595333741
	SCS-OMP2 Total Energy (a.u.)       :   -76.22777715852249
	SOS-OMP2 Total Energy (a.u.)       :   -76.21044453318314
	SCSN-OMP2 Total Energy (a.u.)      :   -76.11736221512913
	SCS-OMP2-VDW Total Energy (a.u.)   :   -76.24875004318187
	SOS-PI-OMP2 Total Energy (a.u.)    :   -76.24121096315743
	OMP2 Correlation Energy (a.u.)     :    -0.20491488363265
	Eomp2 - Eref (a.u.)                :    -0.20583002588947
	OMP2 Total Energy (a.u.)           :   -76.23167597922688
	============================================================================== 


*** tstop() called on ds1.sherrill.chemistry.gatech.edu at Mon Mar 14 15:14:03 2016
Module time:
	user time   =       0.02 seconds =       0.00 minutes
	system time =       0.02 seconds =       0.00 minutes
	total time  =          1 seconds =       0.02 minutes
Total time:
	user time   =       0.05 seconds =       0.00 minutes
	system time =       0.03 seconds =       0.00 minutes
	total time  =          1 seconds =       0.02 minutes
	Nuclear Repulsion Energy (a.u.)...................................PASSED
	SCF Energy (a.u.).................................................PASSED
	OMP2 Total Energy (a.u.)..........................................PASSED
	SCS-OMP2 Total Energy (a.u.)......................................PASSED
	SOS-OMP2 Total Energy (a.u.)......................................PASSED

*** PSI4 exiting successfully. Buy a developer a beer!
