
    -----------------------------------------------------------------------
          Psi4: An Open-Source Ab Initio Electronic Structure Package
                               Psi4 1.1rc3.dev5 

                         Git: Rev {master} 3fbd859 


    R. M. Parrish, L. A. Burns, D. G. A. Smith, A. C. Simmonett,
    A. E. DePrince III, E. G. Hohenstein, U. Bozkaya, A. Yu. Sokolov,
    R. Di Remigio, R. M. Richard, J. F. Gonthier, A. M. James,
    H. R. McAlexander, A. Kumar, M. Saitow, X. Wang, B. P. Pritchard,
    P. Verma, H. F. Schaefer III, K. Patkowski, R. A. King, E. F. Valeev,
    F. A. Evangelista, J. M. Turney, T. D. Crawford, and C. D. Sherrill,
    J. Chem. Theory Comput. in press (2017).
    (doi: 10.1021/acs.jctc.7b00174)

    -----------------------------------------------------------------------


    Psi4 started on: Monday, 15 May 2017 03:34PM

    Process ID:  12803
    PSIDATADIR: /home/psilocaluser/gits/hrw-direct/objdir4/stage/usr/local/psi4/share/psi4
    Memory:     500.0 MiB
    Threads:    1
    
  ==> Input File <==

--------------------------------------------------------------------------
#! CC2(RHF)/cc-pVDZ energy of H2O.

# H2O Re geom from Olsen et al., JCP 104, 8007 (1996)
molecule h2o {
  0 1
  O 0.0  0.00000000 -0.00900000
  H 0.0 -1.51526300 -1.05889800
  H 0.0  1.51526300 -1.05889800
  units bohr
}

set {
  basis "cc-pVDZ"
}

energy('cc2')
--------------------------------------------------------------------------

*** tstart() called on psinet
*** at Mon May 15 15:34:38 2017

   => Loading Basis Set <=

    Name: CC-PVDZ
    Role: ORBITAL
    Keyword: BASIS
    atoms 1   entry O          line   190 file /home/psilocaluser/gits/hrw-direct/objdir4/stage/usr/local/psi4/share/psi4/basis/cc-pvdz.gbs 
    atoms 2-3 entry H          line    20 file /home/psilocaluser/gits/hrw-direct/objdir4/stage/usr/local/psi4/share/psi4/basis/cc-pvdz.gbs 


         ---------------------------------------------------------
                                   SCF
            by Justin Turney, Rob Parrish, and Andy Simmonett
                              RHF Reference
                        1 Threads,    500 MiB Core
         ---------------------------------------------------------

  ==> Geometry <==

    Molecular point group: c2v
    Full point group: C2v

    Geometry (in Bohr), charge = 0, multiplicity = 1:

       Center              X                  Y                   Z               Mass       
    ------------   -----------------  -----------------  -----------------  -----------------
           O          0.000000000000     0.000000000000     0.117499201619    15.994914619560
           H          0.000000000000    -1.515263000000    -0.932398798381     1.007825032070
           H         -0.000000000000     1.515263000000    -0.932398798381     1.007825032070

  Running in c2v symmetry.

  Rotational constants: A =     30.50916  B =     13.00778  C =      9.11958 [cm^-1]
  Rotational constants: A = 914641.67040  B = 389963.32063  C = 273398.23581 [MHz]
  Nuclear repulsion =    9.009354229662666

  Charge       = 0
  Multiplicity = 1
  Electrons    = 10
  Nalpha       = 5
  Nbeta        = 5

  ==> Algorithm <==

  SCF Algorithm Type is PK.
  DIIS enabled.
  MOM disabled.
  Fractional occupation disabled.
  Guess Type is SAD.
  Energy threshold   = 1.00e-08
  Density threshold  = 1.00e-08
  Integral threshold = 0.00e+00

  ==> Primary Basis <==

  Basis Set: CC-PVDZ
    Blend: CC-PVDZ
    Number of shells: 12
    Number of basis function: 24
    Number of Cartesian functions: 25
    Spherical Harmonics?: true
    Max angular momentum: 2

  ==> Pre-Iterations <==

   -------------------------------------------------------
    Irrep   Nso     Nmo     Nalpha   Nbeta   Ndocc  Nsocc
   -------------------------------------------------------
     A1        11      11       0       0       0       0
     A2         2       2       0       0       0       0
     B1         4       4       0       0       0       0
     B2         7       7       0       0       0       0
   -------------------------------------------------------
    Total      24      24       5       5       5       0
   -------------------------------------------------------

  ==> Integral Setup <==

  Using in-core PK algorithm.
   Calculation information:
      Number of atoms:                   3
      Number of AO shells:              12
      Number of primitives:             32
      Number of atomic orbitals:        25
      Number of basis functions:        24

      Integral cutoff                 1.00e-12
      Number of threads:                 1

  Performing in-core PK
  Using 90300 doubles for integral storage.
  We computed 3081 shell quartets total.
  Whereas there are 3081 unique shell quartets.
  ==> DiskJK: Disk-Based J/K Matrices <==

    J tasked:                  Yes
    K tasked:                  Yes
    wK tasked:                  No
    Memory (MB):               375
    Schwarz Cutoff:          1E-12

    OpenMP threads:              1
  Minimum eigenvalue in the overlap matrix is 3.6636430474E-02.
  Using Symmetric Orthogonalization.

  SCF Guess: Superposition of Atomic Densities via on-the-fly atomic UHF.

  ==> Iterations <==

                        Total Energy        Delta E     RMS |[F,P]|

   @RHF iter   0:   -75.96481693085128   -7.59648e+01   1.17112e-01 
   @RHF iter   1:   -75.98846953043378   -2.36526e-02   2.03294e-02 
   @RHF iter   2:   -76.01612072821780   -2.76512e-02   1.03196e-02 DIIS
   @RHF iter   3:   -76.02339909851237   -7.27837e-03   1.76119e-03 DIIS
   @RHF iter   4:   -76.02397201744562   -5.72919e-04   5.18764e-04 DIIS
   @RHF iter   5:   -76.02403491860942   -6.29012e-05   1.08027e-04 DIIS
   @RHF iter   6:   -76.02403842681726   -3.50821e-06   1.67139e-05 DIIS
   @RHF iter   7:   -76.02403851053356   -8.37163e-08   2.10103e-06 DIIS
   @RHF iter   8:   -76.02403851148739   -9.53833e-10   3.64606e-07 DIIS
   @RHF iter   9:   -76.02403851151291   -2.55227e-11   3.38706e-08 DIIS
   @RHF iter  10:   -76.02403851151308   -1.70530e-13   4.82115e-09 DIIS

  ==> Post-Iterations <==

    Orbital Energies (a.u.)
    -----------------------

    Doubly Occupied:                                                      

       1A1   -20.549977     2A1    -1.322974     1B2    -0.700162  
       3A1    -0.550962     1B1    -0.489509  

    Virtual:                                                              

       4A1     0.183200     2B2     0.252970     3B2     0.798319  
       5A1     0.809777     6A1     1.162582     2B1     1.201770  
       4B2     1.247938     1A2     1.453909     7A1     1.498062  
       3B1     1.702166     5B2     1.882574     8A1     1.885220  
       6B2     2.429776     9A1     2.436671     4B1     3.238117  
       2A2     3.343815    10A1     3.442925    11A1     3.904617  
       7B2     4.089524  

    Final Occupation by Irrep:
             A1    A2    B1    B2 
    DOCC [     3,    0,    1,    1 ]

  Energy converged.

  @RHF Final Energy:   -76.02403851151308

   => Energetics <=

    Nuclear Repulsion Energy =              9.0093542296626659
    One-Electron Energy =                -122.8396184640541975
    Two-Electron Energy =                  37.8062257228784446
    DFT Exchange-Correlation Energy =       0.0000000000000000
    Empirical Dispersion Energy =           0.0000000000000000
    PCM Polarization Energy =               0.0000000000000000
    EFP Energy =                            0.0000000000000000
    Total Energy =                        -76.0240385115130834



Properties will be evaluated at   0.000000,   0.000000,   0.000000 Bohr

Properties computed using the SCF density matrix

  Nuclear Dipole Moment: (a.u.)
     X:     0.0000      Y:     0.0000      Z:    -0.9248

  Electronic Dipole Moment: (a.u.)
     X:     0.0000      Y:     0.0000      Z:     0.1472

  Dipole Moment: (a.u.)
     X:     0.0000      Y:     0.0000      Z:    -0.7776     Total:     0.7776

  Dipole Moment: (Debye)
     X:     0.0000      Y:     0.0000      Z:    -1.9765     Total:     1.9765


*** tstop() called on psinet at Mon May 15 15:34:38 2017
Module time:
	user time   =       0.37 seconds =       0.01 minutes
	system time =       0.02 seconds =       0.00 minutes
	total time  =          0 seconds =       0.00 minutes
Total time:
	user time   =       0.37 seconds =       0.01 minutes
	system time =       0.02 seconds =       0.00 minutes
	total time  =          0 seconds =       0.00 minutes
 MINTS: Wrapper to libmints.
   by Justin Turney

   Calculation information:
      Number of threads:                 1
      Number of atoms:                   3
      Number of AO shells:              12
      Number of SO shells:               9
      Number of primitives:             32
      Number of atomic orbitals:        25
      Number of basis functions:        24

      Number of irreps:                  4
      Integral cutoff                 0.00e+00
      Number of functions per irrep: [  11    2    4    7 ]

 OEINTS: Overlap, kinetic, potential, dipole, and quadrupole integrals
         stored in file 35.

      Computing two-electron integrals...done
      Computed 11669 non-zero two-electron integrals.
        Stored in file 33.


*** tstart() called on psinet
*** at Mon May 15 15:34:38 2017


	Wfn Parameters:
	--------------------
	Wavefunction         = CC2
	Number of irreps     = 4
	Number of MOs        = 24
	Number of active MOs = 24
	AO-Basis             = NONE
	Semicanonical        = false
	Reference            = RHF
	Print Level          = 1

	IRREP	# MOs	# FZDC	# DOCC	# SOCC	# VIRT	# FZVR
	-----	-----	------	------	------	------	------
	 A1	   11	    0	    3	    0	    8	    0
	 A2	   2	    0	    0	    0	    2	    0
	 B1	   4	    0	    1	    0	    3	    0
	 B2	   7	    0	    1	    0	    6	    0
	Transforming integrals...
	IWL integrals will be deleted.
	(OO|OO)...
	Presorting SO-basis two-electron integrals.
	Sorting File: SO Ints (nn|nn) nbuckets = 1
	Transforming the one-electron integrals and constructing Fock matrices
	Starting first half-transformation.
	Sorting half-transformed integrals.
	First half integral transformation complete.
	Starting second half-transformation.
	Two-electron integral transformation complete.
	(OO|OV)...
	Starting second half-transformation.
	Two-electron integral transformation complete.
	(OO|VV)...
	Starting second half-transformation.
	Two-electron integral transformation complete.
	(OV|OO)...
	Starting first half-transformation.
	Sorting half-transformed integrals.
	First half integral transformation complete.
	Starting second half-transformation.
	Two-electron integral transformation complete.
	(OV|OV)...
	Starting second half-transformation.
	Two-electron integral transformation complete.
	(OV|VV)...
	Starting second half-transformation.
	Two-electron integral transformation complete.
	(VV|OO)...
	Starting first half-transformation.
	Sorting half-transformed integrals.
	First half integral transformation complete.
	Starting second half-transformation.
	Two-electron integral transformation complete.
	(VV|OV)...
	Starting second half-transformation.
	Two-electron integral transformation complete.
	(VV|VV)...
	Starting second half-transformation.
	Two-electron integral transformation complete.
	Frozen core energy     =      0.00000000000000

	Size of irrep 0 of <ab|cd> integrals:      0.013 (MW) /      0.102 (MB)
	Size of irrep 1 of <ab|cd> integrals:      0.005 (MW) /      0.037 (MB)
	Size of irrep 2 of <ab|cd> integrals:      0.005 (MW) /      0.041 (MB)
	Size of irrep 3 of <ab|cd> integrals:      0.012 (MW) /      0.093 (MB)
	Total:                                     0.034 (MW) /      0.274 (MB)

	Size of irrep 0 of <ia|bc> integrals:      0.004 (MW) /      0.030 (MB)
	Size of irrep 1 of <ia|bc> integrals:      0.001 (MW) /      0.008 (MB)
	Size of irrep 2 of <ia|bc> integrals:      0.001 (MW) /      0.011 (MB)
	Size of irrep 3 of <ia|bc> integrals:      0.003 (MW) /      0.024 (MB)
	Total:                                     0.009 (MW) /      0.073 (MB)

	Size of irrep 0 of tijab amplitudes:       0.001 (MW) /      0.010 (MB)
	Size of irrep 1 of tijab amplitudes:       0.000 (MW) /      0.001 (MB)
	Size of irrep 2 of tijab amplitudes:       0.000 (MW) /      0.003 (MB)
	Size of irrep 3 of tijab amplitudes:       0.001 (MW) /      0.005 (MB)
	Total:                                     0.002 (MW) /      0.020 (MB)

	Nuclear Rep. energy          =      9.00935422966267
	SCF energy                   =    -76.02403851151308
	One-electron energy          =   -122.83961835558476
	Two-electron energy          =     37.80622561440902
	Reference energy             =    -76.02403851151307

*** tstop() called on psinet at Mon May 15 15:34:38 2017
Module time:
	user time   =       0.02 seconds =       0.00 minutes
	system time =       0.03 seconds =       0.00 minutes
	total time  =          0 seconds =       0.00 minutes
Total time:
	user time   =       0.42 seconds =       0.01 minutes
	system time =       0.05 seconds =       0.00 minutes
	total time  =          0 seconds =       0.00 minutes

*** tstart() called on psinet
*** at Mon May 15 15:34:38 2017

            **************************
            *                        *
            *        CCENERGY        *
            *                        *
            **************************

    Nuclear Rep. energy (wfn)     =    9.009354229662666
    SCF energy          (wfn)     =  -76.024038511513083
    Reference energy    (file100) =  -76.024038511513069

    Input parameters:
    -----------------
    Wave function   =     CC2
    Reference wfn   =     RHF
    Brueckner       =     No
    Memory (Mbytes) =     524.3
    Maxiter         =     50
    R_Convergence   =     1.0e-07
    E_Convergence   =     1.0e-06
    Restart         =     Yes
    DIIS            =     Yes
    AO Basis        =     NONE
    ABCD            =     NEW
    Cache Level     =     2
    Cache Type      =     LOW
    Print Level     =     1
    Num. of threads =     1
    # Amps to Print =     10
    Print MP2 Amps? =     No
    Analyze T2 Amps =     No
    Print Pair Ener =     No
    Local CC        =     No
    SCS-MP2         =     False
    SCSN-MP2        =     False
    SCS-CCSD        =     False

MP2 correlation energy -0.2046900056774967
                Solving CC Amplitude Equations
                ------------------------------
  Iter             Energy              RMS        T1Diag      D1Diag    New D1Diag    D2Diag
  ----     ---------------------    ---------   ----------  ----------  ----------   --------
     0        -0.204690005677496    0.000e+00    0.000000    0.000000    0.000000    0.110581
     1        -0.204682498803763    1.296e-02    0.004097    0.008642    0.008642    0.110581
     2        -0.205493344383818    3.455e-03    0.004956    0.010294    0.010294    0.111542
     3        -0.205580695383035    1.234e-03    0.005350    0.011148    0.011148    0.111640
     4        -0.205565233165356    4.154e-04    0.005428    0.011556    0.011556    0.111628
     5        -0.205566618351388    1.359e-04    0.005463    0.011732    0.011732    0.111629
     6        -0.205567276183463    1.878e-05    0.005463    0.011739    0.011739    0.111629
     7        -0.205567277169338    3.378e-06    0.005463    0.011740    0.011740    0.111629
     8        -0.205567278488660    6.837e-07    0.005463    0.011740    0.011740    0.111629
     9        -0.205567280045702    1.343e-07    0.005463    0.011740    0.011740    0.111629
    10        -0.205567280541746    2.703e-08    0.005463    0.011740    0.011740    0.111629

    Iterations converged.


    Largest TIA Amplitudes:
              2   0         0.0089629814
              4  17         0.0074420145
              4  13        -0.0059592753
              2   5         0.0050496347
              4  15         0.0047108540
              1   2        -0.0041382117
              3  10        -0.0035794542
              3  11         0.0032944671
              1   0        -0.0032147076
              2   3        -0.0028168819

    Largest TIjAb Amplitudes:
      3   3  10  10        -0.0473652111
      2   2   2   2        -0.0350775970
      2   3   2  10        -0.0306163633
      3   2  10   2        -0.0306163633
      4   4  14  14        -0.0302856573
      4   4  13  13        -0.0276354780
      4   4   1   1        -0.0258309018
      3   4  10  13        -0.0236598400
      4   3  13  10        -0.0236598400
      3   4  10  15        -0.0225643752

    SCF energy       (wfn)                    =  -76.024038511513083
    Reference energy (file100)                =  -76.024038511513069

    Opposite-spin MP2 correlation energy      =   -0.153102750701990
    Same-spin MP2 correlation energy          =   -0.051587254975507
    MP2 correlation energy                    =   -0.204690005677497
      * MP2 total energy                      =  -76.228728517190561
    CC2 correlation energy                    =   -0.205567280541746
      * CC2 total energy                      =  -76.229605792054812


*** tstop() called on psinet at Mon May 15 15:34:39 2017
Module time:
	user time   =       0.07 seconds =       0.00 minutes
	system time =       0.18 seconds =       0.00 minutes
	total time  =          1 seconds =       0.02 minutes
Total time:
	user time   =       0.49 seconds =       0.01 minutes
	system time =       0.23 seconds =       0.00 minutes
	total time  =          1 seconds =       0.02 minutes

*** Psi4 exiting successfully. Buy a developer a beer!
