
    -----------------------------------------------------------------------
          Psi4: An Open-Source Ab Initio Electronic Structure Package
                               Psi4 1.1rc3.dev5 

                         Git: Rev {master} 3fbd859 


    R. M. Parrish, L. A. Burns, D. G. A. Smith, A. C. Simmonett,
    A. E. DePrince III, E. G. Hohenstein, U. Bozkaya, A. Yu. Sokolov,
    R. Di Remigio, R. M. Richard, J. F. Gonthier, A. M. James,
    H. R. McAlexander, A. Kumar, M. Saitow, X. Wang, B. P. Pritchard,
    P. Verma, H. F. Schaefer III, K. Patkowski, R. A. King, E. F. Valeev,
    F. A. Evangelista, J. M. Turney, T. D. Crawford, and C. D. Sherrill,
    J. Chem. Theory Comput. in press (2017).
    (doi: 10.1021/acs.jctc.7b00174)

    -----------------------------------------------------------------------


    Psi4 started on: Monday, 15 May 2017 03:35PM

    Process ID:  13902
    PSIDATADIR: /home/psilocaluser/gits/hrw-direct/objdir4/stage/usr/local/psi4/share/psi4
    Memory:     500.0 MiB
    Threads:    1
    
  ==> Input File <==

--------------------------------------------------------------------------
#! DF-OMP3 cc-pVDZ energy for the H2O+ cation

refnuc      =  9.18738642147759 #TEST
refscf      = -75.63188585987055 #TEST
refomp3     = -75.79775248833599 #TEST

molecule h2o {
1 2
o
h 1 0.958
h 1 0.958 2 104.4776 
}

set {
  basis cc-pvdz
  df_basis_scf cc-pvdz-jkfit
  df_basis_cc cc-pvdz-ri
  scf_type df
  guess gwh
  freeze_core true
  reference uhf
  mp_type df
}
energy('omp3')

compare_values(refnuc, get_variable("NUCLEAR REPULSION ENERGY"), 6, "Nuclear Repulsion Energy");  #TEST
compare_values(refscf, get_variable("SCF TOTAL ENERGY"), 6, "DF-HF Energy");                        #TEST
compare_values(refomp3, get_variable("OMP3 TOTAL ENERGY"), 6, "DF-OMP3 Total Energy");               #TEST


--------------------------------------------------------------------------

*** tstart() called on psinet
*** at Mon May 15 15:35:47 2017

  A requested method does not make use of molecular symmetry: further calculations in C1 point group.
   => Loading Basis Set <=

    Name: CC-PVDZ
    Role: ORBITAL
    Keyword: BASIS
    atoms 1   entry O          line   190 file /home/psilocaluser/gits/hrw-direct/objdir4/stage/usr/local/psi4/share/psi4/basis/cc-pvdz.gbs 
    atoms 2-3 entry H          line    20 file /home/psilocaluser/gits/hrw-direct/objdir4/stage/usr/local/psi4/share/psi4/basis/cc-pvdz.gbs 


         ---------------------------------------------------------
                                   SCF
            by Justin Turney, Rob Parrish, and Andy Simmonett
                              UHF Reference
                        1 Threads,    500 MiB Core
         ---------------------------------------------------------

  ==> Geometry <==

    Molecular point group: c1
    Full point group: C2v

    Geometry (in Angstrom), charge = 1, multiplicity = 2:

       Center              X                  Y                   Z               Mass       
    ------------   -----------------  -----------------  -----------------  -----------------
           O          0.000000000000     0.000000000000    -0.065655108074    15.994914619560
           H          0.000000000000    -0.757365949175     0.520997104936     1.007825032070
           H          0.000000000000     0.757365949175     0.520997104936     1.007825032070

  Running in c1 symmetry.

  Rotational constants: A =     27.36310  B =     14.58041  C =      9.51197 [cm^-1]
  Rotational constants: A = 820325.16776  B = 437109.76453  C = 285161.58706 [MHz]
  Nuclear repulsion =    9.187386421477591

  Charge       = 1
  Multiplicity = 2
  Electrons    = 9
  Nalpha       = 5
  Nbeta        = 4

  ==> Algorithm <==

  SCF Algorithm Type is DF.
  DIIS enabled.
  MOM disabled.
  Fractional occupation disabled.
  Guess Type is GWH.
  Energy threshold   = 1.00e-08
  Density threshold  = 1.00e-08
  Integral threshold = 0.00e+00

  ==> Primary Basis <==

  Basis Set: CC-PVDZ
    Blend: CC-PVDZ
    Number of shells: 12
    Number of basis function: 24
    Number of Cartesian functions: 25
    Spherical Harmonics?: true
    Max angular momentum: 2

   => Loading Basis Set <=

    Name: CC-PVDZ-JKFIT
    Role: JKFIT
    Keyword: DF_BASIS_SCF
    atoms 1   entry O          line   220 file /home/psilocaluser/gits/hrw-direct/objdir4/stage/usr/local/psi4/share/psi4/basis/cc-pvdz-jkfit.gbs 
    atoms 2-3 entry H          line    50 file /home/psilocaluser/gits/hrw-direct/objdir4/stage/usr/local/psi4/share/psi4/basis/cc-pvdz-jkfit.gbs 

  ==> Pre-Iterations <==

   -------------------------------------------------------
    Irrep   Nso     Nmo     Nalpha   Nbeta   Ndocc  Nsocc
   -------------------------------------------------------
     A         24      24       0       0       0       0
   -------------------------------------------------------
    Total      24      24       5       4       4       1
   -------------------------------------------------------

  ==> Integral Setup <==

  ==> DFJK: Density-Fitted J/K Matrices <==

    J tasked:                  Yes
    K tasked:                  Yes
    wK tasked:                  No
    OpenMP threads:              1
    Integrals threads:           1
    Memory (MB):               375
    Algorithm:                Core
    Integral Cache:           SAVE
    Schwarz Cutoff:          1E-12
    Fitting Condition:       1E-12

   => Auxiliary Basis Set <=

  Basis Set: CC-PVDZ-JKFIT
    Blend: CC-PVDZ-JKFIT
    Number of shells: 42
    Number of basis function: 116
    Number of Cartesian functions: 131
    Spherical Harmonics?: true
    Max angular momentum: 3

  Minimum eigenvalue in the overlap matrix is 3.4230868664E-02.
  Using Symmetric Orthogonalization.

  SCF Guess: Generalized Wolfsberg-Helmholtz.

  ==> Iterations <==

                           Total Energy        Delta E     RMS |[F,P]|

   @DF-UHF iter   1:   -74.82646240386205   -7.48265e+01   6.91189e-02 
   @DF-UHF iter   2:   -75.52518829212201   -6.98726e-01   2.26875e-02 DIIS
   @DF-UHF iter   3:   -75.62908429295911   -1.03896e-01   2.84888e-03 DIIS
   @DF-UHF iter   4:   -75.63165948805849   -2.57520e-03   6.39296e-04 DIIS
   @DF-UHF iter   5:   -75.63186288024863   -2.03392e-04   1.62214e-04 DIIS
   @DF-UHF iter   6:   -75.63188161353332   -1.87333e-05   6.61175e-05 DIIS
   @DF-UHF iter   7:   -75.63188558205658   -3.96852e-06   1.70326e-05 DIIS
   @DF-UHF iter   8:   -75.63188585489564   -2.72839e-07   2.72862e-06 DIIS
   @DF-UHF iter   9:   -75.63188585979034   -4.89470e-09   3.71072e-07 DIIS
   @DF-UHF iter  10:   -75.63188585986590   -7.55591e-11   7.99324e-08 DIIS
   @DF-UHF iter  11:   -75.63188585986934   -3.43903e-12   1.56722e-08 DIIS
   @DF-UHF iter  12:   -75.63188585986950   -1.56319e-13   3.00840e-09 DIIS

  ==> Post-Iterations <==

   @Spin Contamination Metric:   6.088363476E-03
   @S^2 Expected:                7.500000000E-01
   @S^2 Observed:                7.560883635E-01
   @S   Expected:                5.000000000E-01
   @S   Observed:                5.000000000E-01

    Orbital Energies (a.u.)
    -----------------------

    Alpha Occupied:                                                       

       1A    -21.140108     2A     -1.913839     3A     -1.218286  
       4A     -1.130138     5A     -1.097758  

    Alpha Virtual:                                                        

       6A     -0.141754     7A     -0.058330     8A      0.392754  
       9A      0.447072    10A      0.672562    11A      0.714891  
      12A      0.827259    13A      1.025012    14A      1.040096  
      15A      1.239280    16A      1.385358    17A      1.532256  
      18A      1.995814    19A      2.004215    20A      2.723224  
      21A      2.773946    22A      3.001104    23A      3.326569  
      24A      3.653004  

    Beta Occupied:                                                        

       1A    -21.095033     2A     -1.757776     3A     -1.180066  
       4A     -1.045873  

    Beta Virtual:                                                         

       5A     -0.313549     6A     -0.127690     7A     -0.050138  
       8A      0.391559     9A      0.463536    10A      0.736210  
      11A      0.844622    12A      0.870089    13A      1.035726  
      14A      1.070442    15A      1.269228    16A      1.437900  
      17A      1.528744    18A      2.007304    19A      2.059863  
      20A      2.827003    21A      2.878444    22A      3.032858  
      23A      3.405026    24A      3.670625  

    Final Occupation by Irrep:
              A 
    DOCC [     4 ]
    SOCC [     1 ]

  Energy converged.

  @DF-UHF Final Energy:   -75.63188585986950

   => Energetics <=

    Nuclear Repulsion Energy =              9.1873864214775907
    One-Electron Energy =                -118.0596668277854633
    Two-Electron Energy =                  33.2403945464383881
    DFT Exchange-Correlation Energy =       0.0000000000000000
    Empirical Dispersion Energy =           0.0000000000000000
    PCM Polarization Energy =               0.0000000000000000
    EFP Energy =                            0.0000000000000000
    Total Energy =                        -75.6318858598694987


  UHF NO Occupations:
  HONO-2 :    3  A 1.9991846
  HONO-1 :    4  A 1.9980708
  HONO-0 :    5  A 1.0000000
  LUNO+0 :    6  A 0.0019292
  LUNO+1 :    7  A 0.0008154
  LUNO+2 :    8  A 0.0003016
  LUNO+3 :    9  A 0.0000003



Properties will be evaluated at   0.000000,   0.000000,   0.000000 Bohr

Properties computed using the SCF density matrix

  Nuclear Dipole Moment: (a.u.)
     X:     0.0000      Y:     0.0000      Z:     0.9765

  Electronic Dipole Moment: (a.u.)
     X:    -0.0000      Y:    -0.0000      Z:     0.0133

  Dipole Moment: (a.u.)
     X:    -0.0000      Y:    -0.0000      Z:     0.9898     Total:     0.9898

  Dipole Moment: (Debye)
     X:    -0.0000      Y:    -0.0000      Z:     2.5158     Total:     2.5158


*** tstop() called on psinet at Mon May 15 15:35:47 2017
Module time:
	user time   =       0.24 seconds =       0.00 minutes
	system time =       0.02 seconds =       0.00 minutes
	total time  =          0 seconds =       0.00 minutes
Total time:
	user time   =       0.24 seconds =       0.00 minutes
	system time =       0.02 seconds =       0.00 minutes
	total time  =          0 seconds =       0.00 minutes
   => Loading Basis Set <=

    Name: CC-PVDZ-JKFIT
    Role: JKFIT
    Keyword: DF_BASIS_SCF
    atoms 1   entry O          line   220 file /home/psilocaluser/gits/hrw-direct/objdir4/stage/usr/local/psi4/share/psi4/basis/cc-pvdz-jkfit.gbs 
    atoms 2-3 entry H          line    50 file /home/psilocaluser/gits/hrw-direct/objdir4/stage/usr/local/psi4/share/psi4/basis/cc-pvdz-jkfit.gbs 

   => Loading Basis Set <=

    Name: CC-PVDZ-RI
    Role: RIFIT
    Keyword: DF_BASIS_CC
    atoms 1   entry O          line   234 file /home/psilocaluser/gits/hrw-direct/objdir4/stage/usr/local/psi4/share/psi4/basis/cc-pvdz-ri.gbs 
    atoms 2-3 entry H          line    18 file /home/psilocaluser/gits/hrw-direct/objdir4/stage/usr/local/psi4/share/psi4/basis/cc-pvdz-ri.gbs 


*** tstart() called on psinet
*** at Mon May 15 15:35:47 2017



  Options:
  ----------------------------------------------------------------------------
  ACTIVE                      => [  ]             
  BASIS_RELATIVISTIC          => (empty)          
  BENCH                       => 0                
  CC_DIIS_MAX_VECS            => 6                
  CC_DIIS_MIN_VECS            => 2                
  CC_LAMBDA                   => FALSE            
  CC_MAXITER                  => 50               
  CC_TYPE                     => CONV             
  CHOLESKY                    => FALSE           !
  CHOLESKY_TOLERANCE          => 0.0001           
  CI_TYPE                     => CONV             
  COMPUT_S2                   => FALSE            
  CUBEPROP_BASIS_FUNCTIONS    => [  ]             
  CUBEPROP_FILEPATH           => .                
  CUBEPROP_ORBITALS           => [  ]             
  CUBEPROP_TASKS              => [  ]             
  CUBIC_BASIS_TOLERANCE       => 1e-12            
  CUBIC_BLOCK_MAX_POINTS      => 1000             
  CUBIC_GRID_OVERAGE          => [  ]             
  CUBIC_GRID_SPACING          => [  ]             
  CUTOFF                      => 8                
  DEBUG                       => 0                
  DERTYPE                     => NONE             
  DF_BASIS_CC                 => CC-PVDZ-RI      !
  DIE_IF_NOT_CONVERGED        => TRUE             
  DKH_ORDER                   => 2                
  DOCC                        => [  ]             
  DO_DIIS                     => TRUE             
  DO_LEVEL_SHIFT              => TRUE             
  DO_SCS                      => FALSE           !
  DO_SOS                      => FALSE           !
  E3_SCALE                    => 0.25             
  EKT_IP                      => FALSE            
  EXTERNAL_POTENTIAL_SYMMETRY => FALSE            
  E_CONVERGENCE               => 1e-06           !
  FREEZE_CORE                 => TRUE            !
  FROZEN_DOCC                 => [  ]             
  FROZEN_UOCC                 => [  ]             
  HESS_TYPE                   => HF               
  INTEGRAL_CUTOFF             => 9                
  INTEGRAL_PACKAGE            => LIBINT           
  LEVEL_SHIFT                 => 0.02             
  LINEQ_SOLVER                => CDGESV           
  LITERAL_CFOUR               => (empty)          
  MAT_NUM_COLUMN_PRINT        => 5                
  MAX_MOGRAD_CONVERGENCE      => 0.001            
  MOLDEN_WITH_VIRTUAL         => TRUE             
  MOLDEN_WRITE                => FALSE            
  MO_DIIS_NUM_VECS            => 6                
  MO_MAXITER                  => 50               
  MO_STEP_MAX                 => 0.5              
  MP2_AMP_TYPE                => DIRECT           
  MP2_OS_SCALE                => 1.2              
  MP2_SOS_SCALE               => 1.3              
  MP2_SOS_SCALE2              => 1.2              
  MP2_SS_SCALE                => 0.333333         
  MP2_TYPE                    => DF               
  MP_TYPE                     => DF              !
  NAT_ORBS                    => FALSE            
  NUM_FROZEN_DOCC             => 0                
  NUM_FROZEN_UOCC             => 0                
  OCC_ORBS_PRINT              => FALSE            
  OEPROP                      => FALSE            
  OO_SCALE                    => 0.01             
  OPT_METHOD                  => QNR              
  ORB_OPT                     => TRUE            !
  ORB_RESP_SOLVER             => PCG              
  ORTH_TYPE                   => MGS              
  PCG_BETA_TYPE               => FLETCHER_REEVES  
  PCG_CONVERGENCE             => 1e-06            
  PCG_MAXITER                 => 50               
  PCM                         => FALSE            
  PCM_CC_TYPE                 => PTE              
  PCM_SCF_TYPE                => TOTAL            
  PPL_TYPE                    => AUTO             
  PRINT                       => 1                
  PRINT_NOONS                 => 3                
  PROPERTIES                  => [  ]             
  PROPERTIES_ORIGIN           => [  ]             
  PUREAM                      => TRUE             
  QCHF                        => FALSE            
  QC_MODULE                   => (empty)          
  RAS1                        => [  ]             
  RAS2                        => [  ]             
  RAS3                        => [  ]             
  RAS4                        => [  ]             
  READ_SCF_3INDEX             => TRUE             
  REGULARIZATION              => FALSE            
  REG_PARAM                   => 0.4              
  RELATIVISTIC                => NO               
  RESTRICTED_DOCC             => [  ]             
  RESTRICTED_UOCC             => [  ]             
  RMS_MOGRAD_CONVERGENCE      => 1e-06            
  R_CONVERGENCE               => 1e-05            
  SCS_TYPE                    => SCS              
  SOCC                        => [  ]             
  SOS_TYPE                    => SOS              
  TRIPLES_IABC_TYPE           => DISK             
  UNITS                       => ANGSTROMS        
  WFN                         => SCF              
  WFN_TYPE                    => DF-OMP3         !
  WRITER_FILE_LABEL           => (empty)          


 ============================================================================== 
 ============================================================================== 
 ============================================================================== 

                     DF-OMP3 (DF-OO-MP3)   
              Program Written by Ugur Bozkaya
              Latest Revision April 17, 2016

 ============================================================================== 
 ============================================================================== 
 ============================================================================== 

	RMS orbital gradient is changed to :     1.00e-04
	MAX orbital gradient is changed to :     1.00e-03
	MO Hessian type is changed to 'APPROX_DIAG'
	MO spaces... 

	 FC   AOCC   BOCC  AVIR   BVIR   FV 
	------------------------------------------
	  1     4     3    19     20     0
	Reading DF integrals from disk ...
	Number of basis functions in the DF-HF basis: 116
	Number of basis functions in the DF-CC basis:  84

	Available memory                      :    500.00 MB 
	Memory requirement for 3-index ints   :      0.58 MB 
	Memory requirement for DF-CC int trans:      0.89 MB 
	Memory requirement for CC contractions:      0.28 MB 
	Total memory requirement for DF+CC int:      0.57 MB 
	Memory requirement for Wabef term     :      0.56 MB 

	Computing DF-MP2 energy using SCF MOs (Canonical DF-MP2)... 
	======================================================================= 
	Nuclear Repulsion Energy (a.u.)    :     9.18738642147759
	DF-HF Energy (a.u.)                :   -75.63188585986950
	REF Energy (a.u.)                  :   -75.63188585986950
	Alpha-Alpha Contribution (a.u.)    :    -0.02406248686865
	Alpha-Beta Contribution (a.u.)     :    -0.11584755188563
	Beta-Beta Contribution (a.u.)      :    -0.01111175575401
	Scaled_SS Correlation Energy (a.u.):    -0.01172474754089
	Scaled_OS Correlation Energy (a.u.):    -0.13901706226275
	DF-SCS-MP2 Total Energy (a.u.)     :   -75.78262766967313
	DF-SOS-MP2 Total Energy (a.u.)     :   -75.78248767732082
	DF-SCSN-MP2 Total Energy (a.u.)    :   -75.69379252688537
	DF-MP2 Correlation Energy (a.u.)   :    -0.15102179450828
	DF-MP2 Total Energy (a.u.)         :   -75.78290765437778
	======================================================================= 

	Computing DF-MP3 energy using SCF MOs (Canonical DF-MP3)... 
	======================================================================= 
	Nuclear Repulsion Energy (a.u.)    :     9.18738642147759
	SCF Energy (a.u.)                  :   -75.63188585986950
	REF Energy (a.u.)                  :   -75.63188585986950
	Alpha-Alpha Contribution (a.u.)    :    -0.02402468739257
	Alpha-Beta Contribution (a.u.)     :    -0.13008849096863
	Beta-Beta Contribution (a.u.)      :    -0.01089488136115
	3rd Order Energy (a.u.)            :    -0.01398626521407
	DF-MP2.5 Correlation Energy (a.u.) :    -0.15801492711532
	DF-MP2.5 Total Energy (a.u.)       :   -75.78990078698482
	DF-MP3 Correlation Energy (a.u.)   :    -0.16500805972235
	DF-MP3 Total Energy (a.u.)         :   -75.79689391959185
	======================================================================= 

	Number of alpha independent-pairs: 99
	Number of beta independent-pairs : 83

 ============================================================================== 
 ================ Performing DF-OMP3 iterations... ============================ 
 ============================================================================== 
	            Minimizing DF-MP3-L Functional 
	            ------------------------------ 
 Iter       E_total           DE           RMS MO Grad      MAX MO Grad      RMS T2    
 ----    ---------------    ----------     -----------      -----------     ---------- 
   1     -75.7976471499     -7.53e-04       1.90e-03         7.70e-03        5.87e-06 
   2     -75.7977192280     -7.21e-05       6.96e-04         3.17e-03        1.28e-06 
   3     -75.7977381071     -1.89e-05       4.22e-04         2.27e-03        6.06e-07 
   4     -75.7977450065     -6.90e-06       2.53e-04         1.83e-03        2.92e-07 
   5     -75.7977481741     -3.17e-06       1.52e-04         1.47e-03        1.72e-07 
   6     -75.7977520248     -3.85e-06       1.12e-04         4.49e-04        2.78e-07 
   7     -75.7977524883     -4.64e-07       2.39e-05         1.89e-04        8.61e-08 

 ============================================================================== 
 ======================== DF-OMP3 ITERATIONS ARE CONVERGED ==================== 
 ============================================================================== 

	Computing DF-MP3 energy using optimized MOs... 
	======================================================================= 
	Nuclear Repulsion Energy (a.u.)    :     9.18738642147759
	SCF Energy (a.u.)                  :   -75.63188585986950
	REF Energy (a.u.)                  :   -75.63119837994230
	Alpha-Alpha Contribution (a.u.)    :    -0.02409175049320
	Alpha-Beta Contribution (a.u.)     :    -0.13151640129476
	Beta-Beta Contribution (a.u.)      :    -0.01094595897739
	3rd Order Energy (a.u.)            :    -0.01484483632989
	DF-MP2.5 Correlation Energy (a.u.) :    -0.15844421267322
	DF-MP2.5 Total Energy (a.u.)       :   -75.79033007254273
	DF-MP3 Correlation Energy (a.u.)   :    -0.16655411076535
	DF-MP3 Total Energy (a.u.)         :   -75.79775249070767
	======================================================================= 

	======================================================================= 
	================ DF-OMP3 FINAL RESULTS ================================ 
	======================================================================= 
	Nuclear Repulsion Energy (a.u.)    :     9.18738642147759
	DF-HF Energy (a.u.)                :   -75.63188585986950
	REF Energy (a.u.)                  :   -75.63119837994230
	DF-OMP3 Correlation Energy (a.u.)  :    -0.16586662846539
	Edfomp3 - Eref (a.u.)              :    -0.16655410839259
	DF-OMP3 Total Energy (a.u.)        :   -75.79775248833489
	======================================================================= 


*** tstop() called on psinet at Mon May 15 15:35:49 2017
Module time:
	user time   =       0.64 seconds =       0.01 minutes
	system time =       0.65 seconds =       0.01 minutes
	total time  =          2 seconds =       0.03 minutes
Total time:
	user time   =       0.96 seconds =       0.02 minutes
	system time =       0.67 seconds =       0.01 minutes
	total time  =          2 seconds =       0.03 minutes
	Nuclear Repulsion Energy..........................................PASSED
	DF-HF Energy......................................................PASSED
	DF-OMP3 Total Energy..............................................PASSED

*** Psi4 exiting successfully. Buy a developer a beer!
