
    -----------------------------------------------------------------------
          Psi4: An Open-Source Ab Initio Electronic Structure Package
                               Psi4 1.4a1.dev189 

                         Git: Rev {HEAD} d6ce54b dirty


    R. M. Parrish, L. A. Burns, D. G. A. Smith, A. C. Simmonett,
    A. E. DePrince III, E. G. Hohenstein, U. Bozkaya, A. Yu. Sokolov,
    R. Di Remigio, R. M. Richard, J. F. Gonthier, A. M. James,
    H. R. McAlexander, A. Kumar, M. Saitow, X. Wang, B. P. Pritchard,
    P. Verma, H. F. Schaefer III, K. Patkowski, R. A. King, E. F. Valeev,
    F. A. Evangelista, J. M. Turney, T. D. Crawford, and C. D. Sherrill,
    J. Chem. Theory Comput. 13(7) pp 3185--3197 (2017).
    (doi: 10.1021/acs.jctc.7b00174)


                         Additional Contributions by
    P. Kraus, H. Kruse, M. H. Lechner, M. C. Schieber, R. A. Shaw,
    A. Alenaizan, R. Galvelis, Z. L. Glick, S. Lehtola, and J. P. Misiewicz

    -----------------------------------------------------------------------


    Psi4 started on: Monday, 20 May 2019 10:13PM

    Process ID: 29563
    Host:       hokru
    PSIDATADIR: /usr/qc/psi4fork.bin/share/psi4
    Memory:     500.0 MiB
    Threads:    6
    
  ==> Input File <==

--------------------------------------------------------------------------
#! pcm

nucenergy   =  12.0367196636183458 # TEST
polenergy   =  -0.0060921680888660 # TEST
totalenergy = -56.5572470712400914 # TEST

molecule NH3 {
symmetry c1
N     -0.0000000001    -0.1040380466      0.0000000000
H     -0.9015844116     0.4818470201     -1.5615900098
H     -0.9015844116     0.4818470201      1.5615900098
H      1.8031688251     0.4818470204      0.0000000000
units bohr
no_reorient
no_com
}

set {
  basis cc-pVDZ
  scf_type pk
  pcm true
  pcm_scf_type total
}

pcm = {
   Units = Angstrom
   Medium {
   SolverType = IEFPCM
   Solvent = Water
   }

   Cavity {
   RadiiSet = UFF
   Type = GePol
   Scaling = False
   Area = 0.3
   Mode = Implicit
   }
}

print('RKS-PCM B3LYP, total algorithm')
energy_scf1 = energy('b3lyp')
compare_values(nucenergy, NH3.nuclear_repulsion_energy(), 10, "Nuclear repulsion energy (PCM, total algorithm)") #TEST
compare_values(totalenergy, energy_scf1, 9, "Total energy (PCM, total algorithm)") #TEST
compare_values(polenergy, psi4.variable("PCM POLARIZATION ENERGY"), 6, "Polarization energy (PCM, total algorithm)") #TEST

set pcm_scf_type separate
print('RKS-PCM B3LYP, separate algorithm')
energy_scf2 = energy('b3lyp')
compare_values(totalenergy, energy_scf2, 9, "Total energy (PCM, separate algorithm)") #TEST
compare_values(polenergy, psi4.variable("PCM POLARIZATION ENERGY"), 6, "Polarization energy (PCM, separate algorithm)")  #TEST

# Now force use of UKS on NH3 to check sanity of the algorithm with PCM
set pcm_scf_type total
set reference uks
print('UKS-PCM B3LYP, total algorithm')
energy_scf3 = energy('b3lyp')
compare_values(totalenergy, energy_scf3, 9, "Total energy (PCM, separate algorithm)") #TEST
compare_values(polenergy, psi4.variable("PCM POLARIZATION ENERGY"), 6, "Polarization energy (PCM, separate algorithm)")  #TEST
--------------------------------------------------------------------------

*** tstart() called on hokru
*** at Mon May 20 22:13:41 2019

   => Loading Basis Set <=

    Name: CC-PVDZ
    Role: ORBITAL
    Keyword: BASIS
    atoms 1   entry N          line   168 file /usr/qc/psi4fork.bin/share/psi4/basis/cc-pvdz.gbs 
    atoms 2-4 entry H          line    22 file /usr/qc/psi4fork.bin/share/psi4/basis/cc-pvdz.gbs 


         ---------------------------------------------------------
                                   SCF
               by Justin Turney, Rob Parrish, Andy Simmonett
                          and Daniel G. A. Smith
                              RKS Reference
                        6 Threads,    500 MiB Core
         ---------------------------------------------------------

  ==> Geometry <==

    Molecular point group: c1
    Full point group: C3v

    Geometry (in Bohr), charge = 0, multiplicity = 1:

       Center              X                  Y                   Z               Mass       
    ------------   -----------------  -----------------  -----------------  -----------------
         N           -0.000000000100    -0.104038046600     0.000000000000    14.003074004430
         H           -0.901584411600     0.481847020100    -1.561590009800     1.007825032230
         H           -0.901584411600     0.481847020100     1.561590009800     1.007825032230
         H            1.803168825100     0.481847020400     0.000000000000     1.007825032230

  Running in c1 symmetry.

  Rotational constants: A =     10.43532  B =     10.43532  C =      6.12372 [cm^-1]
  Rotational constants: A = 312843.08034  B = 312843.08017  C = 183584.39287 [MHz]
  Nuclear repulsion =   12.036719663618346

  Charge       = 0
  Multiplicity = 1
  Electrons    = 10
  Nalpha       = 5
  Nbeta        = 5

  ==> Algorithm <==

  SCF Algorithm Type is PK.
  DIIS enabled.
  MOM disabled.
  Fractional occupation disabled.
  Guess Type is SAD.
  Energy threshold   = 1.00e-06
  Density threshold  = 1.00e-06
  Integral threshold = 0.00e+00

  ==> Primary Basis <==

  Basis Set: CC-PVDZ
    Blend: CC-PVDZ
    Number of shells: 15
    Number of basis function: 29
    Number of Cartesian functions: 30
    Spherical Harmonics?: true
    Max angular momentum: 2

  ==> DFT Potential <==

   => Composite Functional: B3LYP <= 

    B3LYP Hyb-GGA Exchange-Correlation Functional

    P. J. Stephens, F. J. Devlin, C. F. Chabalowski, and M. J. Frisch, J. Phys. Chem. 98, 11623 (1994)

    Deriv               =              1
    GGA                 =           TRUE
    Meta                =          FALSE

    Exchange Hybrid     =           TRUE
    MP2 Hybrid          =          FALSE

   => Exchange Functionals <=

    0.0800   Slater exchange
    0.7200         Becke 88

   => Exact (HF) Exchange <=

    0.2000               HF 

   => Correlation Functionals <=

    0.1900   Vosko, Wilk & Nusair (VWN5_RPA)
    0.8100   Lee, Yang & Parr

   => Molecular Quadrature <=

    Radial Scheme          =       TREUTLER
    Pruning Type           =       FUNCTION
    Pruning Scheme         =           FLAT
    Nuclear Scheme         =       TREUTLER

    BS radius alpha        =              1
    Pruning alpha          =              1
    Radial Points          =             75
    Spherical Points       =            302
    Total Points           =          89957
    Total Blocks           =            731
    Max Points             =            256
    Max Functions          =             29

  **PSI4:PCMSOLVER Interface Active**

-----------------------------------------------------------------------
   PCMSolver: An Open Source API for the Polarizable Continuum Model
                   PCMSolver 1.2.1+fa7c826

           Git: Branch {HEAD}, Revision {fa7c826}

 R. Di Remigio, A. H. Steindal, K. Mozgawa, V. Weijo, H. Cao, and
 L. Frediani, Int. J. Quantum Chem., to be submitted

 Source repository: https://github.com/PCMSolver/pcmsolver
 Documentation: https://pcmsolver.readthedocs.io/
 PCMSolver initialized on: Monday, 20 May 2019 10:13 PM
-----------------------------------------------------------------------

~~~~~~~~~~ PCMSolver ~~~~~~~~~~
Using CODATA 2010 set of constants.
Input parsing done API-side
========== Cavity 
Atomic radii set: 
Cavity type: GePol
Average tesserae area = 0.3 Ang^2
Solvent probe radius = 1.385 Ang
Number of spheres = 4 [initial = 4; added = 0]
Number of finite elements = 214
Number of irreducible finite elements = 214
============ Spheres list (in Angstrom)
 Sphere   on   Radius   Alpha       X            Y            Z     
-------- ---- -------- ------- -----------  -----------  -----------
   1      N    1.8300   1.00     -0.000000     -0.055055     0.000000
   2      H    1.4430   1.00     -0.477098     0.254982     -0.826358
   3      H    1.4430   1.00     -0.477098     0.254982     0.826358
   4      H    1.4430   1.00     0.954196     0.254982     0.000000
========== Static solver 
Solver Type: IEFPCM, isotropic
PCM matrix hermitivitized
============ Medium 
Medium initialized from solvent built-in data.
Solvent name:          Water
Static  permittivity = 78.39
Optical permittivity = 1.78
Solvent radius =       1.39 Ang
.... Inside 
Green's function type: vacuum
.... Outside 
Green's function type: uniform dielectric
Permittivity = 78.39

  PCM does not make use of molecular symmetry: further calculations in C1 point group.
  ==> Pre-Iterations <==

   -------------------------------------------------------
    Irrep   Nso     Nmo     Nalpha   Nbeta   Ndocc  Nsocc
   -------------------------------------------------------
     A         29      29       0       0       0       0
   -------------------------------------------------------
    Total      29      29       5       5       5       0
   -------------------------------------------------------

  ==> Integral Setup <==

  Using in-core PK algorithm.
   Calculation information:
      Number of atoms:                   4
      Number of AO shells:              15
      Number of primitives:             37
      Number of atomic orbitals:        30
      Number of basis functions:        29

      Integral cutoff                 1.00e-12
      Number of threads:                 6

  Performing in-core PK
  Using 189660 doubles for integral storage.
  We computed 11777 shell quartets total.
  Whereas there are 7260 unique shell quartets.
    62.22 percent of shell quartets recomputed by reordering.

  ==> DiskJK: Disk-Based J/K Matrices <==

    J tasked:                  Yes
    K tasked:                  Yes
    wK tasked:                  No
    Memory [MiB]:              297
    Schwarz Cutoff:          1E-12

    OpenMP threads:              6

  Cached 100.0% of DFT collocation blocks in 0.076 [GiB].

  Minimum eigenvalue in the overlap matrix is 3.0354300265E-02.
  Using Symmetric Orthogonalization.

  SCF Guess: Superposition of Atomic Densities via on-the-fly atomic UHF.

  ==> Iterations <==

                        Total Energy        Delta E     RMS |[F,P]|

   @RKS iter SAD:   -56.20255275894355   -5.62026e+01   0.00000e+00 
   @RKS iter   1:   -56.34764328593142   -1.45091e-01   2.43361e-02 DIIS
   @RKS iter   2:   -56.21714782466383    1.30495e-01   2.95604e-02 DIIS
   @RKS iter   3:   -56.55702892982539   -3.39881e-01   7.07456e-04 DIIS
   @RKS iter   4:   -56.55724526463028   -2.16335e-04   7.08841e-05 DIIS
   @RKS iter   5:   -56.55724699567231   -1.73104e-06   1.49803e-05 DIIS
   @RKS iter   6:   -56.55724707124009   -7.55678e-08   8.41037e-07 DIIS
  Energy and wave function converged.


  ==> Post-Iterations <==

    Orbital Energies [Eh]
    ---------------------

    Doubly Occupied:                                                      

       1A    -14.291044     2A     -0.836441     3A     -0.455098  
       4A     -0.455090     5A     -0.245197  

    Virtual:                                                              

       6A      0.070094     7A      0.153549     8A      0.153552  
       9A      0.533153    10A      0.533162    11A      0.629906  
      12A      0.736274    13A      0.824681    14A      0.824688  
      15A      1.105680    16A      1.105687    17A      1.154445  
      18A      1.483388    19A      1.679031    20A      1.698422  
      21A      1.698430    22A      2.034424    23A      2.034428  
      24A      2.165293    25A      2.522429    26A      2.522433  
      27A      2.708710    28A      2.927894    29A      2.927895  

    Final Occupation by Irrep:
              A 
    DOCC [     5 ]

  @RKS Final Energy:   -56.55724707124009

   => Energetics <=

    Nuclear Repulsion Energy =             12.0367196636183458
    One-Electron Energy =                 -99.9692451266694206
    Two-Electron Energy =                  37.9042511183527466
    DFT Exchange-Correlation Energy =      -6.5228807955924548
    Empirical Dispersion Energy =           0.0000000000000000
    VV10 Nonlocal Energy =                  0.0000000000000000
    PCM Polarization Energy =              -0.0060919309493018
    Total Energy =                        -56.5572470712400914

Computation Completed


Properties will be evaluated at   0.000000,   0.000000,   0.000000 [a0]

Properties computed using the SCF density matrix

  Nuclear Dipole Moment: [e a0]
     X:     0.0000      Y:     0.7173      Z:     0.0000

  Electronic Dipole Moment: [e a0]
     X:    -0.0000      Y:    -0.1078      Z:     0.0000

  Dipole Moment: [e a0]
     X:    -0.0000      Y:     0.6095      Z:     0.0000     Total:     0.6095

  Dipole Moment: [D]
     X:    -0.0001      Y:     1.5492      Z:     0.0000     Total:     1.5492


*** tstop() called on hokru at Mon May 20 22:13:42 2019
Module time:
	user time   =      10.15 seconds =       0.17 minutes
	system time =       0.36 seconds =       0.01 minutes
	total time  =          1 seconds =       0.02 minutes
Total time:
	user time   =      10.15 seconds =       0.17 minutes
	system time =       0.36 seconds =       0.01 minutes
	total time  =          1 seconds =       0.02 minutes
    Nuclear repulsion energy (PCM, total algorithm)...................PASSED
    Total energy (PCM, total algorithm)...............................PASSED
    Polarization energy (PCM, total algorithm)........................PASSED

*** tstart() called on hokru
*** at Mon May 20 22:13:42 2019

   => Loading Basis Set <=

    Name: CC-PVDZ
    Role: ORBITAL
    Keyword: BASIS
    atoms 1   entry N          line   168 file /usr/qc/psi4fork.bin/share/psi4/basis/cc-pvdz.gbs 
    atoms 2-4 entry H          line    22 file /usr/qc/psi4fork.bin/share/psi4/basis/cc-pvdz.gbs 


         ---------------------------------------------------------
                                   SCF
               by Justin Turney, Rob Parrish, Andy Simmonett
                          and Daniel G. A. Smith
                              RKS Reference
                        6 Threads,    500 MiB Core
         ---------------------------------------------------------

  ==> Geometry <==

    Molecular point group: c1
    Full point group: C3v

    Geometry (in Bohr), charge = 0, multiplicity = 1:

       Center              X                  Y                   Z               Mass       
    ------------   -----------------  -----------------  -----------------  -----------------
         N           -0.000000000100    -0.104038046600     0.000000000000    14.003074004430
         H           -0.901584411600     0.481847020100    -1.561590009800     1.007825032230
         H           -0.901584411600     0.481847020100     1.561590009800     1.007825032230
         H            1.803168825100     0.481847020400     0.000000000000     1.007825032230

  Running in c1 symmetry.

  Rotational constants: A =     10.43532  B =     10.43532  C =      6.12372 [cm^-1]
  Rotational constants: A = 312843.08034  B = 312843.08017  C = 183584.39287 [MHz]
  Nuclear repulsion =   12.036719663618346

  Charge       = 0
  Multiplicity = 1
  Electrons    = 10
  Nalpha       = 5
  Nbeta        = 5

  ==> Algorithm <==

  SCF Algorithm Type is PK.
  DIIS enabled.
  MOM disabled.
  Fractional occupation disabled.
  Guess Type is SAD.
  Energy threshold   = 1.00e-06
  Density threshold  = 1.00e-06
  Integral threshold = 0.00e+00

  ==> Primary Basis <==

  Basis Set: CC-PVDZ
    Blend: CC-PVDZ
    Number of shells: 15
    Number of basis function: 29
    Number of Cartesian functions: 30
    Spherical Harmonics?: true
    Max angular momentum: 2

  ==> DFT Potential <==

   => Composite Functional: B3LYP <= 

    B3LYP Hyb-GGA Exchange-Correlation Functional

    P. J. Stephens, F. J. Devlin, C. F. Chabalowski, and M. J. Frisch, J. Phys. Chem. 98, 11623 (1994)

    Deriv               =              1
    GGA                 =           TRUE
    Meta                =          FALSE

    Exchange Hybrid     =           TRUE
    MP2 Hybrid          =          FALSE

   => Exchange Functionals <=

    0.0800   Slater exchange
    0.7200         Becke 88

   => Exact (HF) Exchange <=

    0.2000               HF 

   => Correlation Functionals <=

    0.1900   Vosko, Wilk & Nusair (VWN5_RPA)
    0.8100   Lee, Yang & Parr

   => Molecular Quadrature <=

    Radial Scheme          =       TREUTLER
    Pruning Type           =       FUNCTION
    Pruning Scheme         =           FLAT
    Nuclear Scheme         =       TREUTLER

    BS radius alpha        =              1
    Pruning alpha          =              1
    Radial Points          =             75
    Spherical Points       =            302
    Total Points           =          89957
    Total Blocks           =            731
    Max Points             =            256
    Max Functions          =             29

  **PSI4:PCMSOLVER Interface Active**

-----------------------------------------------------------------------
   PCMSolver: An Open Source API for the Polarizable Continuum Model
                   PCMSolver 1.2.1+fa7c826

           Git: Branch {HEAD}, Revision {fa7c826}

 R. Di Remigio, A. H. Steindal, K. Mozgawa, V. Weijo, H. Cao, and
 L. Frediani, Int. J. Quantum Chem., to be submitted

 Source repository: https://github.com/PCMSolver/pcmsolver
 Documentation: https://pcmsolver.readthedocs.io/
 PCMSolver initialized on: Monday, 20 May 2019 10:13 PM
-----------------------------------------------------------------------

~~~~~~~~~~ PCMSolver ~~~~~~~~~~
Using CODATA 2010 set of constants.
Input parsing done API-side
========== Cavity 
Atomic radii set: 
Cavity type: GePol
Average tesserae area = 0.3 Ang^2
Solvent probe radius = 1.385 Ang
Number of spheres = 4 [initial = 4; added = 0]
Number of finite elements = 214
Number of irreducible finite elements = 214
============ Spheres list (in Angstrom)
 Sphere   on   Radius   Alpha       X            Y            Z     
-------- ---- -------- ------- -----------  -----------  -----------
   1      N    1.8300   1.00     -0.000000     -0.055055     0.000000
   2      H    1.4430   1.00     -0.477098     0.254982     -0.826358
   3      H    1.4430   1.00     -0.477098     0.254982     0.826358
   4      H    1.4430   1.00     0.954196     0.254982     0.000000
========== Static solver 
Solver Type: IEFPCM, isotropic
PCM matrix hermitivitized
============ Medium 
Medium initialized from solvent built-in data.
Solvent name:          Water
Static  permittivity = 78.39
Optical permittivity = 1.78
Solvent radius =       1.39 Ang
.... Inside 
Green's function type: vacuum
.... Outside 
Green's function type: uniform dielectric
Permittivity = 78.39

  PCM does not make use of molecular symmetry: further calculations in C1 point group.
  ==> Pre-Iterations <==

   -------------------------------------------------------
    Irrep   Nso     Nmo     Nalpha   Nbeta   Ndocc  Nsocc
   -------------------------------------------------------
     A         29      29       0       0       0       0
   -------------------------------------------------------
    Total      29      29       5       5       5       0
   -------------------------------------------------------

  ==> Integral Setup <==

  Using in-core PK algorithm.
   Calculation information:
      Number of atoms:                   4
      Number of AO shells:              15
      Number of primitives:             37
      Number of atomic orbitals:        30
      Number of basis functions:        29

      Integral cutoff                 1.00e-12
      Number of threads:                 6

  Performing in-core PK
  Using 189660 doubles for integral storage.
  We computed 11777 shell quartets total.
  Whereas there are 7260 unique shell quartets.
    62.22 percent of shell quartets recomputed by reordering.

  ==> DiskJK: Disk-Based J/K Matrices <==

    J tasked:                  Yes
    K tasked:                  Yes
    wK tasked:                  No
    Memory [MiB]:              297
    Schwarz Cutoff:          1E-12

    OpenMP threads:              6

  Cached 100.0% of DFT collocation blocks in 0.076 [GiB].

  Minimum eigenvalue in the overlap matrix is 3.0354300265E-02.
  Using Symmetric Orthogonalization.

  SCF Guess: Superposition of Atomic Densities via on-the-fly atomic UHF.

  ==> Iterations <==

                        Total Energy        Delta E     RMS |[F,P]|

  Polarization energy components
  U_ee = -26.22855935367285
  U_eN = 26.32006243453607
  U_Ne = 26.32006243453607
  U_NN = -26.41203749401558
  U_eN - U_Ne = 0.00000000000000
   @RKS iter SAD:   -56.20255275894353   -5.62026e+01   0.00000e+00 
  Polarization energy components
  U_ee = -26.59388022721274
  U_eN = 26.49113629730445
  U_Ne = 26.49113629730445
  U_NN = -26.41203749401558
  U_eN - U_Ne = -0.00000000000000
   @RKS iter   1:   -56.34764328593144   -1.45091e-01   2.43361e-02 DIIS
  Polarization energy components
  U_ee = -26.31713387857438
  U_eN = 26.36265781249546
  U_Ne = 26.36265781249546
  U_NN = -26.41203749401558
  U_eN - U_Ne = 0.00000000000000
   @RKS iter   2:   -56.21714782466383    1.30495e-01   2.95604e-02 DIIS
  Polarization energy components
  U_ee = -26.49619941894884
  U_eN = 26.44789877434525
  U_Ne = 26.44789877434524
  U_NN = -26.41203749401558
  U_eN - U_Ne = 0.00000000000000
   @RKS iter   3:   -56.55702892982537   -3.39881e-01   7.07456e-04 DIIS
  Polarization energy components
  U_ee = -26.49127077922379
  U_eN = 26.44554385431813
  U_Ne = 26.44554385431813
  U_NN = -26.41203749401558
  U_eN - U_Ne = 0.00000000000000
   @RKS iter   4:   -56.55724526463031   -2.16335e-04   7.08841e-05 DIIS
  Polarization energy components
  U_ee = -26.49125845337545
  U_eN = 26.44556015484260
  U_Ne = 26.44556015484260
  U_NN = -26.41203749401558
  U_eN - U_Ne = 0.00000000000000
   @RKS iter   5:   -56.55724699567239   -1.73104e-06   1.49803e-05 DIIS
  Polarization energy components
  U_ee = -26.49126955524651
  U_eN = 26.44556159368175
  U_Ne = 26.44556159368175
  U_NN = -26.41203749401558
  U_eN - U_Ne = 0.00000000000000
   @RKS iter   6:   -56.55724707124007   -7.55677e-08   8.41037e-07 DIIS
  Energy and wave function converged.


  ==> Post-Iterations <==

    Orbital Energies [Eh]
    ---------------------

    Doubly Occupied:                                                      

       1A    -14.291044     2A     -0.836441     3A     -0.455098  
       4A     -0.455090     5A     -0.245197  

    Virtual:                                                              

       6A      0.070094     7A      0.153549     8A      0.153552  
       9A      0.533153    10A      0.533162    11A      0.629906  
      12A      0.736274    13A      0.824681    14A      0.824688  
      15A      1.105680    16A      1.105687    17A      1.154445  
      18A      1.483388    19A      1.679031    20A      1.698422  
      21A      1.698430    22A      2.034424    23A      2.034428  
      24A      2.165293    25A      2.522429    26A      2.522433  
      27A      2.708710    28A      2.927894    29A      2.927895  

    Final Occupation by Irrep:
              A 
    DOCC [     5 ]

  @RKS Final Energy:   -56.55724707124007

   => Energetics <=

    Nuclear Repulsion Energy =             12.0367196636183458
    One-Electron Energy =                 -99.9692451266694491
    Two-Electron Energy =                  37.9042511183527893
    DFT Exchange-Correlation Energy =      -6.5228807955924566
    Empirical Dispersion Energy =           0.0000000000000000
    VV10 Nonlocal Energy =                  0.0000000000000000
    PCM Polarization Energy =              -0.0060919309492995
    Total Energy =                        -56.5572470712400701
  Polarization energy components
  U_ee = -26.49127113270979
  U_eN = 26.44556224835187
  U_Ne = 26.44556224835186
  U_NN = -26.41203749401558
  U_eN - U_Ne = 0.00000000000000

Computation Completed


Properties will be evaluated at   0.000000,   0.000000,   0.000000 [a0]

Properties computed using the SCF density matrix

  Nuclear Dipole Moment: [e a0]
     X:     0.0000      Y:     0.7173      Z:     0.0000

  Electronic Dipole Moment: [e a0]
     X:    -0.0000      Y:    -0.1078      Z:     0.0000

  Dipole Moment: [e a0]
     X:    -0.0000      Y:     0.6095      Z:     0.0000     Total:     0.6095

  Dipole Moment: [D]
     X:    -0.0001      Y:     1.5492      Z:     0.0000     Total:     1.5492


*** tstop() called on hokru at Mon May 20 22:13:44 2019
Module time:
	user time   =      10.26 seconds =       0.17 minutes
	system time =       0.23 seconds =       0.00 minutes
	total time  =          2 seconds =       0.03 minutes
Total time:
	user time   =      20.45 seconds =       0.34 minutes
	system time =       0.59 seconds =       0.01 minutes
	total time  =          3 seconds =       0.05 minutes
    Total energy (PCM, separate algorithm)............................PASSED
    Polarization energy (PCM, separate algorithm).....................PASSED

*** tstart() called on hokru
*** at Mon May 20 22:13:44 2019

   => Loading Basis Set <=

    Name: CC-PVDZ
    Role: ORBITAL
    Keyword: BASIS
    atoms 1   entry N          line   168 file /usr/qc/psi4fork.bin/share/psi4/basis/cc-pvdz.gbs 
    atoms 2-4 entry H          line    22 file /usr/qc/psi4fork.bin/share/psi4/basis/cc-pvdz.gbs 


         ---------------------------------------------------------
                                   SCF
               by Justin Turney, Rob Parrish, Andy Simmonett
                          and Daniel G. A. Smith
                              UKS Reference
                        6 Threads,    500 MiB Core
         ---------------------------------------------------------

  ==> Geometry <==

    Molecular point group: c1
    Full point group: C3v

    Geometry (in Bohr), charge = 0, multiplicity = 1:

       Center              X                  Y                   Z               Mass       
    ------------   -----------------  -----------------  -----------------  -----------------
         N           -0.000000000100    -0.104038046600     0.000000000000    14.003074004430
         H           -0.901584411600     0.481847020100    -1.561590009800     1.007825032230
         H           -0.901584411600     0.481847020100     1.561590009800     1.007825032230
         H            1.803168825100     0.481847020400     0.000000000000     1.007825032230

  Running in c1 symmetry.

  Rotational constants: A =     10.43532  B =     10.43532  C =      6.12372 [cm^-1]
  Rotational constants: A = 312843.08034  B = 312843.08017  C = 183584.39287 [MHz]
  Nuclear repulsion =   12.036719663618346

  Charge       = 0
  Multiplicity = 1
  Electrons    = 10
  Nalpha       = 5
  Nbeta        = 5

  ==> Algorithm <==

  SCF Algorithm Type is PK.
  DIIS enabled.
  MOM disabled.
  Fractional occupation disabled.
  Guess Type is SAD.
  Energy threshold   = 1.00e-06
  Density threshold  = 1.00e-06
  Integral threshold = 0.00e+00

  ==> Primary Basis <==

  Basis Set: CC-PVDZ
    Blend: CC-PVDZ
    Number of shells: 15
    Number of basis function: 29
    Number of Cartesian functions: 30
    Spherical Harmonics?: true
    Max angular momentum: 2

  ==> DFT Potential <==

   => Composite Functional: B3LYP <= 

    B3LYP Hyb-GGA Exchange-Correlation Functional

    P. J. Stephens, F. J. Devlin, C. F. Chabalowski, and M. J. Frisch, J. Phys. Chem. 98, 11623 (1994)

    Deriv               =              1
    GGA                 =           TRUE
    Meta                =          FALSE

    Exchange Hybrid     =           TRUE
    MP2 Hybrid          =          FALSE

   => Exchange Functionals <=

    0.0800   Slater exchange
    0.7200         Becke 88

   => Exact (HF) Exchange <=

    0.2000               HF 

   => Correlation Functionals <=

    0.1900   Vosko, Wilk & Nusair (VWN5_RPA)
    0.8100   Lee, Yang & Parr

   => Molecular Quadrature <=

    Radial Scheme          =       TREUTLER
    Pruning Type           =       FUNCTION
    Pruning Scheme         =           FLAT
    Nuclear Scheme         =       TREUTLER

    BS radius alpha        =              1
    Pruning alpha          =              1
    Radial Points          =             75
    Spherical Points       =            302
    Total Points           =          89957
    Total Blocks           =            731
    Max Points             =            256
    Max Functions          =             29

  **PSI4:PCMSOLVER Interface Active**

-----------------------------------------------------------------------
   PCMSolver: An Open Source API for the Polarizable Continuum Model
                   PCMSolver 1.2.1+fa7c826

           Git: Branch {HEAD}, Revision {fa7c826}

 R. Di Remigio, A. H. Steindal, K. Mozgawa, V. Weijo, H. Cao, and
 L. Frediani, Int. J. Quantum Chem., to be submitted

 Source repository: https://github.com/PCMSolver/pcmsolver
 Documentation: https://pcmsolver.readthedocs.io/
 PCMSolver initialized on: Monday, 20 May 2019 10:13 PM
-----------------------------------------------------------------------

~~~~~~~~~~ PCMSolver ~~~~~~~~~~
Using CODATA 2010 set of constants.
Input parsing done API-side
========== Cavity 
Atomic radii set: 
Cavity type: GePol
Average tesserae area = 0.3 Ang^2
Solvent probe radius = 1.385 Ang
Number of spheres = 4 [initial = 4; added = 0]
Number of finite elements = 214
Number of irreducible finite elements = 214
============ Spheres list (in Angstrom)
 Sphere   on   Radius   Alpha       X            Y            Z     
-------- ---- -------- ------- -----------  -----------  -----------
   1      N    1.8300   1.00     -0.000000     -0.055055     0.000000
   2      H    1.4430   1.00     -0.477098     0.254982     -0.826358
   3      H    1.4430   1.00     -0.477098     0.254982     0.826358
   4      H    1.4430   1.00     0.954196     0.254982     0.000000
========== Static solver 
Solver Type: IEFPCM, isotropic
PCM matrix hermitivitized
============ Medium 
Medium initialized from solvent built-in data.
Solvent name:          Water
Static  permittivity = 78.39
Optical permittivity = 1.78
Solvent radius =       1.39 Ang
.... Inside 
Green's function type: vacuum
.... Outside 
Green's function type: uniform dielectric
Permittivity = 78.39

  PCM does not make use of molecular symmetry: further calculations in C1 point group.
  ==> Pre-Iterations <==

   -------------------------------------------------------
    Irrep   Nso     Nmo     Nalpha   Nbeta   Ndocc  Nsocc
   -------------------------------------------------------
     A         29      29       0       0       0       0
   -------------------------------------------------------
    Total      29      29       5       5       5       0
   -------------------------------------------------------

  ==> Integral Setup <==

  Using in-core PK algorithm.
   Calculation information:
      Number of atoms:                   4
      Number of AO shells:              15
      Number of primitives:             37
      Number of atomic orbitals:        30
      Number of basis functions:        29

      Integral cutoff                 1.00e-12
      Number of threads:                 6

  Performing in-core PK
  Using 189660 doubles for integral storage.
  We computed 11777 shell quartets total.
  Whereas there are 7260 unique shell quartets.
    62.22 percent of shell quartets recomputed by reordering.

  ==> DiskJK: Disk-Based J/K Matrices <==

    J tasked:                  Yes
    K tasked:                  Yes
    wK tasked:                  No
    Memory [MiB]:              297
    Schwarz Cutoff:          1E-12

    OpenMP threads:              6

  Cached 100.0% of DFT collocation blocks in 0.076 [GiB].

  Minimum eigenvalue in the overlap matrix is 3.0354300265E-02.
  Using Symmetric Orthogonalization.

  SCF Guess: Superposition of Atomic Densities via on-the-fly atomic UHF.

  ==> Iterations <==

                        Total Energy        Delta E     RMS |[F,P]|

   @UKS iter SAD:   -56.20255275894355   -5.62026e+01   0.00000e+00 
   @UKS iter   1:   -56.34764328593145   -1.45091e-01   2.43361e-02 DIIS
   @UKS iter   2:   -56.21714782466389    1.30495e-01   2.95604e-02 DIIS
   @UKS iter   3:   -56.55702892982534   -3.39881e-01   7.07456e-04 DIIS
   @UKS iter   4:   -56.55724526463035   -2.16335e-04   7.08841e-05 DIIS
   @UKS iter   5:   -56.55724699567236   -1.73104e-06   1.49803e-05 DIIS
   @UKS iter   6:   -56.55724707124007   -7.55677e-08   8.41037e-07 DIIS
  Energy and wave function converged.


  ==> Post-Iterations <==

   @Spin Contamination Metric:  -8.881784197E-16
   @S^2 Expected:                0.000000000E+00
   @S^2 Observed:               -8.881784197E-16
   @S   Expected:                0.000000000E+00
   @S   Observed:                0.000000000E+00

    Orbital Energies [Eh]
    ---------------------

    Alpha Occupied:                                                       

       1A    -14.291044     2A     -0.836441     3A     -0.455098  
       4A     -0.455090     5A     -0.245197  

    Alpha Virtual:                                                        

       6A      0.070094     7A      0.153549     8A      0.153552  
       9A      0.533153    10A      0.533162    11A      0.629906  
      12A      0.736274    13A      0.824681    14A      0.824688  
      15A      1.105680    16A      1.105687    17A      1.154445  
      18A      1.483388    19A      1.679031    20A      1.698422  
      21A      1.698430    22A      2.034424    23A      2.034428  
      24A      2.165293    25A      2.522429    26A      2.522433  
      27A      2.708710    28A      2.927894    29A      2.927895  

    Beta Occupied:                                                        

       1A    -14.291044     2A     -0.836441     3A     -0.455098  
       4A     -0.455090     5A     -0.245197  

    Beta Virtual:                                                         

       6A      0.070094     7A      0.153549     8A      0.153552  
       9A      0.533153    10A      0.533162    11A      0.629906  
      12A      0.736274    13A      0.824681    14A      0.824688  
      15A      1.105680    16A      1.105687    17A      1.154445  
      18A      1.483388    19A      1.679031    20A      1.698422  
      21A      1.698430    22A      2.034424    23A      2.034428  
      24A      2.165293    25A      2.522429    26A      2.522433  
      27A      2.708710    28A      2.927894    29A      2.927895  

    Final Occupation by Irrep:
              A 
    DOCC [     5 ]
    SOCC [     0 ]

  @UKS Final Energy:   -56.55724707124007

   => Energetics <=

    Nuclear Repulsion Energy =             12.0367196636183458
    One-Electron Energy =                 -99.9692451266694491
    Two-Electron Energy =                  37.9042511183527964
    DFT Exchange-Correlation Energy =      -6.5228807955924539
    Empirical Dispersion Energy =           0.0000000000000000
    VV10 Nonlocal Energy =                  0.0000000000000000
    PCM Polarization Energy =              -0.0060919309493019
    Total Energy =                        -56.5572470712400701

  UHF NO Occupations:
  HONO-2 :    3  A 2.0000000
  HONO-1 :    4  A 2.0000000
  HONO-0 :    5  A 2.0000000
  LUNO+0 :    6  A 0.0000000
  LUNO+1 :    7  A 0.0000000
  LUNO+2 :    8  A 0.0000000
  LUNO+3 :    9  A 0.0000000


Computation Completed


Properties will be evaluated at   0.000000,   0.000000,   0.000000 [a0]

Properties computed using the SCF density matrix

  Nuclear Dipole Moment: [e a0]
     X:     0.0000      Y:     0.7173      Z:     0.0000

  Electronic Dipole Moment: [e a0]
     X:    -0.0000      Y:    -0.1078      Z:     0.0000

  Dipole Moment: [e a0]
     X:    -0.0000      Y:     0.6095      Z:     0.0000     Total:     0.6095

  Dipole Moment: [D]
     X:    -0.0001      Y:     1.5492      Z:     0.0000     Total:     1.5492


*** tstop() called on hokru at Mon May 20 22:13:47 2019
Module time:
	user time   =      16.67 seconds =       0.28 minutes
	system time =       0.53 seconds =       0.01 minutes
	total time  =          3 seconds =       0.05 minutes
Total time:
	user time   =      37.16 seconds =       0.62 minutes
	system time =       1.12 seconds =       0.02 minutes
	total time  =          6 seconds =       0.10 minutes
    Total energy (PCM, separate algorithm)............................PASSED
    Polarization energy (PCM, separate algorithm).....................PASSED

    Psi4 stopped on: Monday, 20 May 2019 10:13PM
    Psi4 wall time for execution: 0:00:06.44

*** Psi4 exiting successfully. Buy a developer a beer!
