
    -----------------------------------------------------------------------
          Psi4: An Open-Source Ab Initio Electronic Structure Package
                               Psi4 1.1rc3.dev5 

                         Git: Rev {master} 3fbd859 


    R. M. Parrish, L. A. Burns, D. G. A. Smith, A. C. Simmonett,
    A. E. DePrince III, E. G. Hohenstein, U. Bozkaya, A. Yu. Sokolov,
    R. Di Remigio, R. M. Richard, J. F. Gonthier, A. M. James,
    H. R. McAlexander, A. Kumar, M. Saitow, X. Wang, B. P. Pritchard,
    P. Verma, H. F. Schaefer III, K. Patkowski, R. A. King, E. F. Valeev,
    F. A. Evangelista, J. M. Turney, T. D. Crawford, and C. D. Sherrill,
    J. Chem. Theory Comput. in press (2017).
    (doi: 10.1021/acs.jctc.7b00174)

    -----------------------------------------------------------------------


    Psi4 started on: Monday, 15 May 2017 03:33PM

    Process ID:  12166
    PSIDATADIR: /home/psilocaluser/gits/hrw-direct/objdir4/stage/usr/local/psi4/share/psi4
    Memory:     500.0 MiB
    Threads:    1
    
  ==> Input File <==

--------------------------------------------------------------------------
#! CASSCF/6-31G** energy point

molecule {
O
H 1 1.00
H 1 1.00 2 103.1
}

set {
    basis           6-31G**
    reference       rhf
    restricted_docc [1, 0, 0, 0]
    active          [3, 0, 1, 2] 
    scf_type        direct
    ints_tolerance  1e-14
    mcscf_type      ao
}

casscf_energy = energy('casscf')

compare_values(-76.017296555283, psi4.get_variable("SCF TOTAL ENERGY"), 6, "SCF Energy")  #TEST
compare_values(-76.073865006902, casscf_energy, 6, 'CASSCF Energy')  #TEST
--------------------------------------------------------------------------

*** tstart() called on psinet
*** at Mon May 15 15:33:58 2017

   => Loading Basis Set <=

    Name: 6-31G**
    Role: ORBITAL
    Keyword: BASIS
    atoms 1   entry O          line   140 file /home/psilocaluser/gits/hrw-direct/objdir4/stage/usr/local/psi4/share/psi4/basis/6-31gss.gbs 
    atoms 2-3 entry H          line    35 file /home/psilocaluser/gits/hrw-direct/objdir4/stage/usr/local/psi4/share/psi4/basis/6-31gss.gbs 

    There are an even number of electrons - assuming singlet.
    Specify the multiplicity in the molecule input block.


         ---------------------------------------------------------
                                   SCF
            by Justin Turney, Rob Parrish, and Andy Simmonett
                              RHF Reference
                        1 Threads,    500 MiB Core
         ---------------------------------------------------------

  ==> Geometry <==

    Molecular point group: c2v
    Full point group: C2v

    Geometry (in Angstrom), charge = 0, multiplicity = 1:

       Center              X                  Y                   Z               Mass       
    ------------   -----------------  -----------------  -----------------  -----------------
           O          0.000000000000     0.000000000000    -0.069592187390    15.994914619560
           H          0.000000000000    -0.783151105291     0.552239257844     1.007825032070
           H          0.000000000000     0.783151105291     0.552239257844     1.007825032070

  Running in c2v symmetry.

  Rotational constants: A =     24.35462  B =     13.63610  C =      8.74166 [cm^-1]
  Rotational constants: A = 730133.20983  B = 408800.03934  C = 262068.46197 [MHz]
  Nuclear repulsion =    8.804686618639055

  Charge       = 0
  Multiplicity = 1
  Electrons    = 10
  Nalpha       = 5
  Nbeta        = 5

  ==> Algorithm <==

  SCF Algorithm Type is DIRECT.
  DIIS enabled.
  MOM disabled.
  Fractional occupation disabled.
  Guess Type is SAD.
  Energy threshold   = 1.00e-08
  Density threshold  = 1.00e-08
  Integral threshold = 1.00e-14

  ==> Primary Basis <==

  Basis Set: 6-31G**
    Blend: 6-31G**
    Number of shells: 12
    Number of basis function: 25
    Number of Cartesian functions: 25
    Spherical Harmonics?: false
    Max angular momentum: 2

   => Loading Basis Set <=

    Name: (6-31G** AUX)
    Role: JKFIT
    Keyword: DF_BASIS_SCF
    atoms 1   entry O          line   220 file /home/psilocaluser/gits/hrw-direct/objdir4/stage/usr/local/psi4/share/psi4/basis/cc-pvdz-jkfit.gbs 
    atoms 2-3 entry H          line    50 file /home/psilocaluser/gits/hrw-direct/objdir4/stage/usr/local/psi4/share/psi4/basis/cc-pvdz-jkfit.gbs 

  ==> Pre-Iterations <==

   -------------------------------------------------------
    Irrep   Nso     Nmo     Nalpha   Nbeta   Ndocc  Nsocc
   -------------------------------------------------------
     A1        12      12       0       0       0       0
     A2         2       2       0       0       0       0
     B1         4       4       0       0       0       0
     B2         7       7       0       0       0       0
   -------------------------------------------------------
    Total      25      25       5       5       5       0
   -------------------------------------------------------

  Starting with a DF guess...

  ==> Integral Setup <==

  ==> DFJK: Density-Fitted J/K Matrices <==

    J tasked:                  Yes
    K tasked:                  Yes
    wK tasked:                  No
    OpenMP threads:              1
    Integrals threads:           1
    Memory (MB):               375
    Algorithm:                Core
    Integral Cache:           NONE
    Schwarz Cutoff:          1E-14
    Fitting Condition:       1E-12

   => Auxiliary Basis Set <=

  Basis Set: (6-31G** AUX)
    Blend: CC-PVDZ-JKFIT
    Number of shells: 42
    Number of basis function: 131
    Number of Cartesian functions: 131
    Spherical Harmonics?: false
    Max angular momentum: 3

  Minimum eigenvalue in the overlap matrix is 2.3361254517E-02.
  Using Symmetric Orthogonalization.

  SCF Guess: Superposition of Atomic Densities via on-the-fly atomic UHF.

  ==> Iterations <==

                           Total Energy        Delta E     RMS |[F,P]|

   @DF-RHF iter   0:   -75.92410988811301   -7.59241e+01   1.07940e-01 
   @DF-RHF iter   1:   -75.97897018525356   -5.48603e-02   1.96991e-02 
   @DF-RHF iter   2:   -76.00832996890546   -2.93598e-02   1.05049e-02 DIIS
   @DF-RHF iter   3:   -76.01656182645057   -8.23186e-03   1.70357e-03 DIIS
   @DF-RHF iter   4:   -76.01717477420485   -6.12948e-04   5.42585e-04 DIIS
   @DF-RHF iter   5:   -76.01725612801941   -8.13538e-05   1.06564e-04 DIIS
   @DF-RHF iter   6:   -76.01725989624983   -3.76823e-06   1.66204e-05 DIIS
   @DF-RHF iter   7:   -76.01725998148453   -8.52347e-08   2.73797e-06 DIIS
   @DF-RHF iter   8:   -76.01725998333121   -1.84669e-09   3.49212e-07 DIIS
   @DF-RHF iter   9:   -76.01725998335534   -2.41300e-11   3.01381e-08 DIIS
   @DF-RHF iter  10:   -76.01725998335550   -1.56319e-13   3.47380e-09 DIIS

  DF guess converged.

  ==> Integral Setup <==

  ==> DirectJK: Integral-Direct J/K Matrices <==

    J tasked:                  Yes
    K tasked:                  Yes
    wK tasked:                  No
    Integrals threads:           1
    Schwarz Cutoff:          1E-14

   @RHF iter  11:   -76.01729654369265   -3.65603e-05   1.19915e-05 DIIS
   @RHF iter  12:   -76.01729655497036   -1.12777e-08   1.64018e-06 DIIS
   @RHF iter  13:   -76.01729655525894   -2.88580e-10   4.89638e-07 DIIS
   @RHF iter  14:   -76.01729655528000   -2.10605e-11   1.68504e-07 DIIS
   @RHF iter  15:   -76.01729655528293   -2.92744e-12   4.58675e-08 DIIS
   @RHF iter  16:   -76.01729655528317   -2.41585e-13   5.21154e-09 DIIS

  ==> Post-Iterations <==

    Orbital Energies (a.u.)
    -----------------------

    Doubly Occupied:                                                      

       1A1   -20.569000     2A1    -1.320609     1B2    -0.678724  
       3A1    -0.563930     1B1    -0.495004  

    Virtual:                                                              

       4A1     0.202466     2B2     0.292719     3B2     0.981164  
       5A1     1.056318     6A1     1.129179     2B1     1.168639  
       4B2     1.294985     7A1     1.413596     1A2     1.802875  
       8A1     1.806916     3B1     1.918871     9A1     2.513248  
       5B2     2.537822     6B2     2.713577     2A2     2.921065  
       4B1     2.947486    10A1     3.291755    11A1     3.620730  
       7B2     3.874917    12A1     4.077740  

    Final Occupation by Irrep:
             A1    A2    B1    B2 
    DOCC [     3,    0,    1,    1 ]

  Energy converged.

  @RHF Final Energy:   -76.01729655528317

   => Energetics <=

    Nuclear Repulsion Energy =              8.8046866186390549
    One-Electron Energy =                -122.3894315046517676
    Two-Electron Energy =                  37.5674483307295546
    DFT Exchange-Correlation Energy =       0.0000000000000000
    Empirical Dispersion Energy =           0.0000000000000000
    PCM Polarization Energy =               0.0000000000000000
    EFP Energy =                            0.0000000000000000
    Total Energy =                        -76.0172965552831670



Properties will be evaluated at   0.000000,   0.000000,   0.000000 Bohr

Properties computed using the SCF density matrix

  Nuclear Dipole Moment: (a.u.)
     X:     0.0000      Y:    -0.0000      Z:     1.0351

  Electronic Dipole Moment: (a.u.)
     X:     0.0000      Y:     0.0000      Z:    -0.1532

  Dipole Moment: (a.u.)
     X:     0.0000      Y:    -0.0000      Z:     0.8819     Total:     0.8819

  Dipole Moment: (Debye)
     X:     0.0000      Y:    -0.0000      Z:     2.2414     Total:     2.2414


*** tstop() called on psinet at Mon May 15 15:33:58 2017
Module time:
	user time   =       0.61 seconds =       0.01 minutes
	system time =       0.02 seconds =       0.00 minutes
	total time  =          0 seconds =       0.00 minutes
Total time:
	user time   =       0.61 seconds =       0.01 minutes
	system time =       0.02 seconds =       0.00 minutes
	total time  =          0 seconds =       0.00 minutes

         ---------------------------------------------------------
                Multi-Configurational Self-Consistent Field
                            (a 'D E T C I' module)

                 Daniel G. A. Smith, C. David Sherrill, and
                              Matt L. Leininger
         ---------------------------------------------------------


   ==> Parameters <==

    EX LEVEL       =        8      H0 BLOCKSIZE  =     1000
    VAL EX LEVEL   =        0      H0 GUESS SIZE =     1000
    H0COUPLINGSIZE =        0      H0 COUPLING   =       NO
    MAXITER        =       12      NUM PRINT     =       20
    NUM ROOTS      =        1      ICORE         =        1
    PRINT LVL      =        1      FCI           =      YES
    R CONV         = 1.00e-07      MIXED         =      YES
    E CONV         = 1.00e-06      MIXED4        =      YES
    R4S            =       NO      REPL OTF      =       NO
    DIAG METHOD    =      SEM      FOLLOW ROOT   =        0
    PRECONDITIONER = DAVIDSON      UPDATE        = DAVIDSON
    S              =   0.0000      Ms0           =      YES
    GUESS VECTOR   =  H0BLOCK      OPENTYPE      =     NONE
    COLLAPSE SIZE  =        1      HD AVG        = EVANGELISTI
    MAX NUM VECS   =       13      REF SYM       =     AUTO
    IOPEN        =       NO

    EX ALLOW       =  1  1  1  1  1  1  1  1 
    STATE AVERAGE  =  0(1.00) 

   ==> CI Orbital and Space information <==

   ------------------------------------------------------
               Space    Total    A1    A2    B1    B2
   ------------------------------------------------------
                 Nso       25    12     2     4     7
                 Nmo       25    12     2     4     7
               Ndocc        5     3     0     1     1
               Nsocc        0     0     0     0     0
   ------------------------------------------------------
                        MCSCF Spaces
   ------------------------------------------------------
         Frozen DOCC        0     0     0     0     0
     Restricted DOCC        1     1     0     0     0
              Active        6     3     0     1     2
     Restricted UOCC       18     8     2     3     5
         Frozen UOCC        0     0     0     0     0
   ------------------------------------------------------

   ==> Setting up CI strings <==

    There are 15 alpha and 15 beta strings
    The CI space requires 65 (6.50E+01) determinants and 4 blocks

   ==> Setting up MCSCF integrals <==

  ==> DirectJK: Integral-Direct J/K Matrices <==

    J tasked:                  Yes
    K tasked:                  Yes
    wK tasked:                  No
    Integrals threads:           1
    Schwarz Cutoff:          1E-14


   ==> Starting AO-MCSCF iterations <==

           Iter         Total Energy       Delta E   Orb RMS    CI RMS  NCI NORB
   @AO-MCSCF  1:    -76.029934009734   -1.2637e-02  9.04e-03  1.60e-13    1    1  Initial CI
      Warning! Maxstep = 0.55, scaling to 0.50
   @AO-MCSCF  2:    -76.068885953821   -3.8952e-02  1.23e-02  4.32e-06    6    1  TS
   @AO-MCSCF  3:    -76.073040127616   -4.1542e-03  3.93e-03  5.91e-06    5    1  TS
   @AO-MCSCF  4:    -76.073656503594   -6.1638e-04  1.53e-03  2.29e-06    5    1  TS, DIIS
   @AO-MCSCF  5:    -76.073780479327   -1.2398e-04  8.08e-04  1.03e-06    5    1  TS, DIIS
   @AO-MCSCF  6:    -76.073828359195   -4.7880e-05  6.25e-04  1.39e-07    6    1  TS, DIIS
   @AO-MCSCF  7:    -76.073838210531   -9.8513e-06  3.65e-04  3.46e-07    5    1  TS, DIIS
   @AO-MCSCF  8:    -76.073845360940   -7.1504e-06  3.04e-04  3.07e-07    5    1  TS, DIIS
   @AO-MCSCF  9:    -76.073856517605   -1.1157e-05  2.65e-04  3.04e-08    6    1  TS, DIIS
   @AO-MCSCF 10:    -76.073860717357   -4.1998e-06  2.24e-04  1.25e-07    5    1  TS, DIIS
   @AO-MCSCF 11:    -76.073864559011   -3.8417e-06  5.38e-05  3.05e-08    6    1  TS, DIIS
   @AO-MCSCF 12:    -76.073864989525   -4.3051e-07  7.85e-06  1.70e-08    6    1  TS, DIIS
   @AO-MCSCF 13:    -76.073864997085   -7.5608e-09  4.57e-06  4.77e-09    6    1  TS, DIIS

          @AO-MCSCF has converged!

   @AO-MCSCF Final Energy:  -76.073864997085366

   ==> Energetics <==

    SCF energy =          -76.017296555283167
    Total MCSCF energy =  -76.073864997085366

   ==> MCSCF root 0 information <==

    MCSCF Root 0 energy =   -76.073864997085366

   Active Space Natural occupation numbers:

        B1   1.999341        A1   1.998803        A1   1.976077
        B2   1.973937        B2   0.026627        A1   0.025215

   The 20 most important determinants:

    *   1    0.986888  (    3,    3)  2A1X 3A1X 1B1X 1B2X 
    *   2   -0.080316  (    6,    6)  2A1X 3A1X 1B1X 2B2X 
    *   3   -0.052824  (    4,    4)  2A1X 4A1X 1B1X 1B2X 
    *   4    0.051091  (    4,    6)  2A1X 3A1B 4A1A 1B1X 1B2A 2B2B 
    *   5    0.051091  (    6,    4)  2A1X 3A1A 4A1B 1B1X 1B2B 2B2A 
    *   6   -0.032191  (    4,    5)  2A1A 3A1B 4A1X 1B1X 1B2X 
    *   7   -0.032191  (    5,    4)  2A1B 3A1A 4A1X 1B1X 1B2X 
    *   8    0.031040  (    5,    6)  2A1B 3A1X 4A1A 1B1X 1B2A 2B2B 
    *   9    0.031040  (    6,    5)  2A1A 3A1X 4A1B 1B1X 1B2B 2B2A 
    *  10   -0.030841  (    9,    9)  2A1X 3A1X 4A1X 1B1X 
    *  11   -0.030043  (    5,    5)  3A1X 4A1X 1B1X 1B2X 
    *  12   -0.028945  (   10,   10)  2A1X 1B1X 1B2X 2B2X 
    *  13   -0.026536  (    9,   10)  2A1X 3A1A 4A1A 1B1X 1B2B 2B2B 
    *  14   -0.026536  (   10,    9)  2A1X 3A1B 4A1B 1B1X 1B2A 2B2A 
    *  15    0.024555  (    3,    7)  2A1X 3A1A 4A1B 1B1X 1B2A 2B2B 
    *  16    0.024555  (    7,    3)  2A1X 3A1B 4A1A 1B1X 1B2B 2B2A 
    *  17   -0.019858  (    9,   11)  2A1A 3A1X 4A1A 1B1X 1B2B 2B2B 
    *  18   -0.019858  (   11,    9)  2A1B 3A1X 4A1B 1B1X 1B2A 2B2A 
    *  19   -0.017602  (   11,   11)  3A1X 1B1X 1B2X 2B2X 
    *  20   -0.015801  (   13,   13)  2A1X 3A1X 4A1X 1B2X 



Properties will be evaluated at   0.000000,   0.000000,   0.000000 Bohr

Properties computed using the CASSCF density matrix

  Nuclear Dipole Moment: (a.u.)
     X:     0.0000      Y:    -0.0000      Z:     1.0351

  Electronic Dipole Moment: (a.u.)
     X:     0.0000      Y:     0.0000      Z:    -0.2208

  Dipole Moment: (a.u.)
     X:     0.0000      Y:    -0.0000      Z:     0.8142     Total:     0.8142

  Dipole Moment: (Debye)
     X:     0.0000      Y:    -0.0000      Z:     2.0696     Total:     2.0696

	SCF Energy........................................................PASSED
	CASSCF Energy.....................................................PASSED

*** Psi4 exiting successfully. Buy a developer a beer!
