
    -----------------------------------------------------------------------
          Psi4: An Open-Source Ab Initio Electronic Structure Package
                               Psi4 1.1rc3.dev5 

                         Git: Rev {master} 3fbd859 


    R. M. Parrish, L. A. Burns, D. G. A. Smith, A. C. Simmonett,
    A. E. DePrince III, E. G. Hohenstein, U. Bozkaya, A. Yu. Sokolov,
    R. Di Remigio, R. M. Richard, J. F. Gonthier, A. M. James,
    H. R. McAlexander, A. Kumar, M. Saitow, X. Wang, B. P. Pritchard,
    P. Verma, H. F. Schaefer III, K. Patkowski, R. A. King, E. F. Valeev,
    F. A. Evangelista, J. M. Turney, T. D. Crawford, and C. D. Sherrill,
    J. Chem. Theory Comput. in press (2017).
    (doi: 10.1021/acs.jctc.7b00174)

    -----------------------------------------------------------------------


    Psi4 started on: Monday, 15 May 2017 03:35PM

    Process ID:  13310
    PSIDATADIR: /home/psilocaluser/gits/hrw-direct/objdir4/stage/usr/local/psi4/share/psi4
    Memory:     500.0 MiB
    Threads:    1
    
  ==> Input File <==

--------------------------------------------------------------------------
#! 6-31G** H2O+ Test CISD Energy Point

refnuc   =   8.8046866186391  #TEST
refscf   = -75.6213422266812  #TEST
refci    = -75.7850671871149  #TEST
refcorr  = refci - refscf     #TEST

molecule h2o {
    1 2
    O
    H 1 1.00
    H 1 1.00 2 103.1
}

set {
  reference   rohf
  basis       6-31G**
  freeze_core true
  dipmom      true
}

thisenergy = energy('cisd')

compare_values(refnuc, h2o.nuclear_repulsion_energy(), 9, "Nuclear repulsion energy") #TEST 
compare_values(refscf, get_variable("SCF total energy"),     7, "SCF energy") #TEST
compare_values(refci, thisenergy,                      7, "CI energy") #TEST
compare_values(refcorr, get_variable("CI CORRELATION ENERGY"), 7, "CI correlation energy") #TEST

compare_values(2.68224970371, get_variable("CISD DIPOLE Z"), 3, "CISD Z Dipole")
compare_values(2.79760370969, get_variable("SCF DIPOLE Z"), 3, "SCF Z Dipole")


--------------------------------------------------------------------------

*** tstart() called on psinet
*** at Mon May 15 15:35:06 2017

   => Loading Basis Set <=

    Name: 6-31G**
    Role: ORBITAL
    Keyword: BASIS
    atoms 1   entry O          line   140 file /home/psilocaluser/gits/hrw-direct/objdir4/stage/usr/local/psi4/share/psi4/basis/6-31gss.gbs 
    atoms 2-3 entry H          line    35 file /home/psilocaluser/gits/hrw-direct/objdir4/stage/usr/local/psi4/share/psi4/basis/6-31gss.gbs 


         ---------------------------------------------------------
                                   SCF
            by Justin Turney, Rob Parrish, and Andy Simmonett
                             ROHF Reference
                        1 Threads,    500 MiB Core
         ---------------------------------------------------------

  ==> Geometry <==

    Molecular point group: c2v
    Full point group: C2v

    Geometry (in Angstrom), charge = 1, multiplicity = 2:

       Center              X                  Y                   Z               Mass       
    ------------   -----------------  -----------------  -----------------  -----------------
           O          0.000000000000     0.000000000000    -0.069592187390    15.994914619560
           H          0.000000000000    -0.783151105291     0.552239257844     1.007825032070
           H          0.000000000000     0.783151105291     0.552239257844     1.007825032070

  Running in c2v symmetry.

  Rotational constants: A =     24.35462  B =     13.63610  C =      8.74166 [cm^-1]
  Rotational constants: A = 730133.20983  B = 408800.03934  C = 262068.46197 [MHz]
  Nuclear repulsion =    8.804686618639055

  Charge       = 1
  Multiplicity = 2
  Electrons    = 9
  Nalpha       = 5
  Nbeta        = 4

  ==> Algorithm <==

  SCF Algorithm Type is PK.
  DIIS enabled.
  MOM disabled.
  Fractional occupation disabled.
  Guess Type is GWH.
  Energy threshold   = 1.00e-08
  Density threshold  = 1.00e-08
  Integral threshold = 0.00e+00

  ==> Primary Basis <==

  Basis Set: 6-31G**
    Blend: 6-31G**
    Number of shells: 12
    Number of basis function: 25
    Number of Cartesian functions: 25
    Spherical Harmonics?: false
    Max angular momentum: 2

  ==> Pre-Iterations <==

   -------------------------------------------------------
    Irrep   Nso     Nmo     Nalpha   Nbeta   Ndocc  Nsocc
   -------------------------------------------------------
     A1        12      12       0       0       0       0
     A2         2       2       0       0       0       0
     B1         4       4       0       0       0       0
     B2         7       7       0       0       0       0
   -------------------------------------------------------
    Total      25      25       5       4       4       1
   -------------------------------------------------------

  ==> Integral Setup <==

  Using in-core PK algorithm.
   Calculation information:
      Number of atoms:                   3
      Number of AO shells:              12
      Number of primitives:             25
      Number of atomic orbitals:        25
      Number of basis functions:        25

      Integral cutoff                 1.00e-12
      Number of threads:                 1

  Performing in-core PK
  Using 105950 doubles for integral storage.
  We computed 3081 shell quartets total.
  Whereas there are 3081 unique shell quartets.
  ==> DiskJK: Disk-Based J/K Matrices <==

    J tasked:                  Yes
    K tasked:                  Yes
    wK tasked:                  No
    Memory (MB):               375
    Schwarz Cutoff:          1E-12

    OpenMP threads:              1
  Minimum eigenvalue in the overlap matrix is 2.3361254517E-02.
  Using Symmetric Orthogonalization.

  SCF Guess: Generalized Wolfsberg-Helmholtz.

  ==> Iterations <==

                        Total Energy        Delta E     RMS |[F,P]|

   @ROHF iter   1:   -74.91643575898634   -7.49164e+01   6.83992e-02 
   @ROHF iter   2:   -75.53941611589947   -6.22980e-01   2.63989e-02 DIIS
   @ROHF iter   3:   -75.61522978383890   -7.58137e-02   5.16962e-03 DIIS
   @ROHF iter   4:   -75.62105790156041   -5.82812e-03   1.10406e-03 DIIS
   @ROHF iter   5:   -75.62133783894168   -2.79937e-04   1.21835e-04 DIIS
   @ROHF iter   6:   -75.62134215167738   -4.31274e-06   1.46205e-05 DIIS
   @ROHF iter   7:   -75.62134222312172   -7.14443e-08   2.86698e-06 DIIS
   @ROHF iter   8:   -75.62134222654780   -3.42608e-09   4.66356e-07 DIIS
   @ROHF iter   9:   -75.62134222667900   -1.31209e-10   6.68016e-08 DIIS
   @ROHF iter  10:   -75.62134222668145   -2.44427e-12   5.87165e-09 DIIS

  ==> Post-Iterations <==

    Orbital Energies (a.u.)
    -----------------------

    Doubly Occupied:                                                      

       1A1   -21.122454     2A1    -1.807728     1B2    -1.168198  
       3A1    -1.059038  

    Singly Occupied:                                                      

       1B1    -0.690806  

    Virtual:                                                              

       4A1    -0.131097     2B2    -0.048500     3B2     0.586122  
       5A1     0.641232     6A1     0.720655     2B1     0.727665  
       4B2     0.870547     7A1     0.987059     1A2     1.346739  
       8A1     1.356305     3B1     1.458174     9A1     2.046744  
       5B2     2.120283     6B2     2.262511     2A2     2.470165  
       4B1     2.502866    10A1     2.856186    11A1     3.171210  
       7B2     3.431043    12A1     3.610004  

    Final Occupation by Irrep:
             A1    A2    B1    B2 
    DOCC [     3,    0,    0,    1 ]
    SOCC [     0,    0,    1,    0 ]

  Energy converged.

  @ROHF Final Energy:   -75.62134222668145

   => Energetics <=

    Nuclear Repulsion Energy =              8.8046866186390549
    One-Electron Energy =                -117.4256036750935408
    Two-Electron Energy =                  32.9995748297730458
    DFT Exchange-Correlation Energy =       0.0000000000000000
    Empirical Dispersion Energy =           0.0000000000000000
    PCM Polarization Energy =               0.0000000000000000
    EFP Energy =                            0.0000000000000000
    Total Energy =                        -75.6213422266814348



Properties will be evaluated at   0.000000,   0.000000,   0.000000 Bohr

Properties computed using the SCF density matrix

  Nuclear Dipole Moment: (a.u.)
     X:     0.0000      Y:    -0.0000      Z:     1.0351

  Electronic Dipole Moment: (a.u.)
     X:     0.0000      Y:     0.0000      Z:     0.0656

  Dipole Moment: (a.u.)
     X:     0.0000      Y:    -0.0000      Z:     1.1007     Total:     1.1007

  Dipole Moment: (Debye)
     X:     0.0000      Y:    -0.0000      Z:     2.7976     Total:     2.7976


*** tstop() called on psinet at Mon May 15 15:35:06 2017
Module time:
	user time   =       0.17 seconds =       0.00 minutes
	system time =       0.02 seconds =       0.00 minutes
	total time  =          0 seconds =       0.00 minutes
Total time:
	user time   =       0.17 seconds =       0.00 minutes
	system time =       0.02 seconds =       0.00 minutes
	total time  =          0 seconds =       0.00 minutes
 MINTS: Wrapper to libmints.
   by Justin Turney

   Calculation information:
      Number of threads:                 1
      Number of atoms:                   3
      Number of AO shells:              12
      Number of SO shells:               9
      Number of primitives:             25
      Number of atomic orbitals:        25
      Number of basis functions:        25

      Number of irreps:                  4
      Integral cutoff                 0.00e+00
      Number of functions per irrep: [  12    2    4    7 ]

 OEINTS: Overlap, kinetic, potential, dipole, and quadrupole integrals
         stored in file 35.

      Computing two-electron integrals...done
      Computed 13773 non-zero two-electron integrals.
        Stored in file 33.


         ---------------------------------------------------------
                          Configuration Interaction
                            (a 'D E T C I' module)

                 C. David Sherrill, Daniel G. A. Smith, and
                              Matt L. Leininger
         ---------------------------------------------------------

Warning: iopen=0,opentype!=closed. Making iopen=1

   ==> Parameters <==

    EX LEVEL       =        2      H0 BLOCKSIZE  =     1000
    VAL EX LEVEL   =        0      H0 GUESS SIZE =     1000
    H0COUPLINGSIZE =        0      H0 COUPLING   =       NO
    MAXITER        =       24      NUM PRINT     =       20
    NUM ROOTS      =        1      ICORE         =        1
    PRINT LVL      =        1      FCI           =       NO
    R CONV         = 1.00e-04      MIXED         =      YES
    E CONV         = 1.00e-06      MIXED4        =      YES
    R4S            =       NO      REPL OTF      =       NO
    DIAG METHOD    =      SEM      FOLLOW ROOT   =        0
    PRECONDITIONER = DAVIDSON      UPDATE        = DAVIDSON
    S              =   0.5000      Ms0           =       NO
    GUESS VECTOR   =  H0BLOCK      OPENTYPE      = HIGHSPIN
    COLLAPSE SIZE  =        1      HD AVG        = EVANGELISTI
    MAX NUM VECS   =       25      REF SYM       =     AUTO
    IOPEN        =      YES

    EX ALLOW       =  1  1 
    STATE AVERAGE  =  0(1.00) 

   ==> CI Orbital and Space information <==

    RAS1 LVL      =        3      A RAS3 MAX    =        2
    RAS1 MIN      =        5      B RAS3 MAX    =        2
    A RAS1 LVL    =        3      RAS4 LVL      =       24
    A RAS1 MIN    =        2      A RAS4 MAX    =        0
    A RAS1 MAX    =        4      B RAS4 MAX    =        0
    B RAS1 LVL    =        3      RAS4 MAX      =        0
    B RAS1 MIN    =        1      A RAS34 MAX   =        2
    B RAS1 MAX    =        3      B RAS34 MAX   =        2
    RAS3 LVL      =        4      RAS34 MAX     =        2
    RAS3 MAX      =        2
   ------------------------------------------------------
               Space    Total    A1    A2    B1    B2
   ------------------------------------------------------
                 Nso       25    12     2     4     7
                 Nmo       25    12     2     4     7
               Ndocc        4     3     0     0     1
               Nsocc        1     0     0     1     0
   ------------------------------------------------------
                       CI Spaces
   ------------------------------------------------------
        Dropped DOCC        1     1     0     0     0
                RAS1        4     2     0     1     1
                RAS2        0     0     0     0     0
                RAS3       20     9     2     3     6
                RAS4        0     0     0     0     0
      Active (total)       24    11     2     4     7
        Dropped UOCC        0     0     0     0     0
   ------------------------------------------------------

   ==> Setting up CI strings <==

    There are 1221 alpha and 884 beta strings
    The CI space requires 3857 (3.86E+03) determinants and 13 blocks

   ==> Transforming CI integrals <==

	Presorting SO-basis two-electron integrals.
	Sorting File: SO Ints (nn|nn) nbuckets = 1
	Transforming the one-electron integrals and constructing Fock matrices
	Starting first half-transformation.
	Sorting half-transformed integrals.
	First half integral transformation complete.
	Starting second half-transformation.
	Two-electron integral transformation complete.

   ==> Starting CI iterations <==

    H0 Block Eigenvalue = -75.74014779

    Simultaneous Expansion Method (Block Davidson Method)
    Using 1 initial trial vectors

     Iter   Root       Total Energy       Delta E      C RMS

   @CI  0:     0    -75.740147791566   -2.3327E+01   5.0921E-01  
   @CI  1:     0    -75.784697153389   -4.4549E-02   3.8786E-02  
   @CI  2:     0    -75.785031288681   -3.3414E-04   1.1463E-02  
   @CI  3:     0    -75.785065026633   -3.3738E-05   2.5784E-03  
   @CI  4:     0    -75.785067028530   -2.0019E-06   6.1765E-04  
   @CI  5:     0    -75.785067176512   -1.4798E-07   1.8017E-04  
   @CI  6:     0    -75.785067187965   -1.1453E-08   4.8534E-05 c

   ==> Energetics <==

    SCF energy =          -75.621342226681435
    Total CI energy =     -75.785067187964714

   ==> CISD root 0 information <==

    CISD Root 0 energy =   -75.785067187964714

   The 20 most important determinants:

    *   1    0.977152  (  302,  641)  2A1X 3A1X 1B1A 1B2X 
    *   2   -0.037409  (  324,  667)  2A1X 3A1X 1B1A 2B2X 
    *   3    0.024330  (  307,  646)  2A1X 1B1A 1B2X 6A1X 
    *   4   -0.024283  (  936,  239)  2A1A 3A1B 1B1X 1B2X 3B1A 
    *   5   -0.024188  (  923,  239)  2A1A 3A1X 1B1B 1B2X 4A1A 
    *   6   -0.024039  (  932,  239)  2A1A 3A1X 1B1X 1B2B 1A2A 
    *   7   -0.023657  (  326,  669)  2A1X 3A1X 1B1A 4B2X 
    *   8    0.023297  (  321,  667)  2A1X 3A1X 1B2A 2B1A 2B2B 
    *   9   -0.023249  (  326,  667)  2A1X 3A1X 1B1A 2B2B 4B2A 
    *  10   -0.023147  (  325,  668)  2A1X 3A1X 1B1A 3B2X 
    *  11    0.022949  (  321,  669)  2A1X 3A1X 1B2A 2B1A 4B2B 
    *  12    0.022587  (    7,  440)  2A1X 3A1X 1B1B 1B2A 2B2A 
    *  13   -0.022379  (  324,  669)  2A1X 3A1X 1B1A 2B2A 4B2B 
    *  14    0.022279  (  928,  239)  2A1A 3A1X 1B1B 1B2X 9A1A 
    *  15    0.021797  (  305,  644)  2A1X 1B1A 1B2X 5A1X 
    *  16    0.021692  (  321,  646)  2A1X 3A1A 1B2X 6A1B 2B1A 
    *  17   -0.020705  (  924,  239)  2A1A 3A1X 1B1B 1B2X 5A1A 
    *  18    0.020347  (  305,  667)  2A1X 3A1B 1B1A 1B2A 5A1A 2B2B 
    *  19    0.019750  (  311,  650)  2A1X 1B1A 1B2X 8A1X 
    *  20   -0.019717  (  324,  644)  2A1X 3A1A 1B1A 1B2B 5A1B 2B2A 

		 "A good bug is a dead bug" 

			 - Starship Troopers

		 "I didn't write FORTRAN.  That's the problem."

			 - Edward Valeev


Properties will be evaluated at   0.000000,   0.000000,   0.000000 Bohr

Properties computed using the CISD density matrix

  Nuclear Dipole Moment: (a.u.)
     X:     0.0000      Y:    -0.0000      Z:     1.0351

  Electronic Dipole Moment: (a.u.)
     X:     0.0000      Y:     0.0000      Z:     0.0202

  Dipole Moment: (a.u.)
     X:     0.0000      Y:    -0.0000      Z:     1.0553     Total:     1.0553

  Dipole Moment: (Debye)
     X:     0.0000      Y:    -0.0000      Z:     2.6822     Total:     2.6822

	Nuclear repulsion energy..........................................PASSED
	SCF energy........................................................PASSED
	CI energy.........................................................PASSED
	CI correlation energy.............................................PASSED
	CISD Z Dipole.....................................................PASSED
	SCF Z Dipole......................................................PASSED

*** Psi4 exiting successfully. Buy a developer a beer!
