Generated by Psi4
     FORCE                           RHF                       PCSEG-0
Number of atoms                            I                3
Charge                                     I                0
Multiplicity                               I                1
Number of electrons                        I               10
Number of alpha electrons                  I                5
Number of beta electrons                   I                5
Number of basis functions                  I               13
Number of independent functions            I               13
Atomic numbers                             I   N=           3
           8           1           1
Nuclear charges                            R   N=           3
  8.00000000e+00  1.00000000e+00  1.00000000e+00
Current cartesian coordinates              R   N=           9
  0.00000000e+00  0.00000000e+00 -1.29476890e-01  0.00000000e+00 -1.49418674e+00
  1.02744610e+00  0.00000000e+00  1.49418674e+00  1.02744610e+00
Integer atomic weights                     I   N=           3
          16           1           1
Real atomic weights                        R   N=           3
  1.59949146e+01  1.00782503e+00  1.00782503e+00
Number of primitive shells                 I               15
Number of contracted shells                I                9
Pure/Cartesian d shells                    I                0
Pure/Cartesian f shells                    I                0
Highest angular momentum                   I                1
Largest degree of contraction              I                4
Shell types                                I   N=           9
           0           0           0           1           1           0
           0           0           0
Number of primitives per shell             I   N=           9
           4           1           1           2           1           2
           1           2           1
Shell to atom map                          I   N=           9
           1           1           1           1           1           2
           2           3           3
Primitive exponents                        R   N=          15
  8.64900000e+02  1.30531000e+02  2.92551000e+01  7.76965000e+00  8.69788000e-01
  2.69783000e-01  8.30553000e+00  1.69516000e+00  3.57951000e-01  4.34473000e+00
  6.60487000e-01  1.36687000e-01  4.34473000e+00  6.60487000e-01  1.36687000e-01
Contraction coefficients                   R   N=          15
  1.78601010e-02  1.24649764e-01  4.38570969e-01  5.55523813e-01  1.00000000e+00
  1.00000000e+00  2.27970846e-01  8.68797958e-01  1.00000000e+00  1.67654352e-01
  8.96889788e-01  1.00000000e+00  1.67654352e-01  8.96889788e-01  1.00000000e+00
Coordinates of each shell                  R   N=          27
  0.00000000e+00  0.00000000e+00 -1.29476890e-01  0.00000000e+00  0.00000000e+00
 -1.29476890e-01  0.00000000e+00  0.00000000e+00 -1.29476890e-01  0.00000000e+00
  0.00000000e+00 -1.29476890e-01  0.00000000e+00  0.00000000e+00 -1.29476890e-01
  0.00000000e+00 -1.49418674e+00  1.02744610e+00  0.00000000e+00 -1.49418674e+00
  1.02744610e+00  0.00000000e+00  1.49418674e+00  1.02744610e+00  0.00000000e+00
  1.49418674e+00  1.02744610e+00
Total Energy                               R     -7.577363409311889e+01
Alpha Orbital Energies                     R   N=          13
 -2.05486089e+01 -1.31772783e+00 -6.76933571e-01 -5.45693789e-01 -4.93816332e-01
  1.81458434e-01  2.81129649e-01  9.26344910e-01  1.02166050e+00  1.46484326e+00
  1.76051701e+00  1.92462572e+00  1.98046794e+00
Alpha MO coefficients                      R   N=         169
  9.86362382e-01  4.53531270e-02 -2.06294265e-02  0.00000000e+00  0.00000000e+00
  2.44483680e-03  0.00000000e+00  0.00000000e+00 -2.61137008e-03  3.84728375e-04
  3.69141206e-03  3.84728375e-04  3.69141206e-03  2.82583550e-01 -5.04528540e-01
 -4.57829754e-01  0.00000000e+00  0.00000000e+00 -7.62697600e-02  0.00000000e+00
  0.00000000e+00 -8.59996023e-02 -1.30854040e-01 -1.09607121e-03 -1.30854040e-01
 -1.09607121e-03  0.00000000e+00  0.00000000e+00  0.00000000e+00  0.00000000e+00
  3.87164519e-01  0.00000000e+00  0.00000000e+00  4.05771835e-01  0.00000000e+00
 -2.62612659e-01 -1.40075623e-01  2.62612659e-01  1.40075623e-01  1.01914292e-01
 -1.89449544e-01 -3.07569540e-01  0.00000000e+00  0.00000000e+00  4.32726701e-01
  0.00000000e+00  0.00000000e+00  5.26797174e-01  1.51511106e-01  9.93246499e-02
  1.51511106e-01  9.93246499e-02  0.00000000e+00  0.00000000e+00  0.00000000e+00
  5.14662559e-01  0.00000000e+00  0.00000000e+00  6.53278363e-01  0.00000000e+00
  0.00000000e+00  0.00000000e+00  0.00000000e+00  0.00000000e+00  0.00000000e+00
  9.13450580e-02 -9.29189493e-02 -1.00107284e+00  0.00000000e+00  0.00000000e+00
 -1.91854915e-01  0.00000000e+00  0.00000000e+00 -4.28133377e-01  6.83452169e-02
  8.61759922e-01  6.83452169e-02  8.61759922e-01  0.00000000e+00  0.00000000e+00
  0.00000000e+00  0.00000000e+00  2.73047322e-01  0.00000000e+00  0.00000000e+00
  6.72605108e-01  0.00000000e+00  3.98423452e-02  1.19729438e+00 -3.98423452e-02
 -1.19729438e+00  0.00000000e+00  0.00000000e+00  0.00000000e+00  0.00000000e+00
  2.43305020e-01  0.00000000e+00  0.00000000e+00  5.31054631e-01  0.00000000e+00
  9.59227198e-01 -6.52498498e-01 -9.59227198e-01  6.52498498e-01  1.30992915e-01
 -4.03106156e-01  1.31421674e-01  0.00000000e+00  0.00000000e+00 -2.60657396e-01
  0.00000000e+00  0.00000000e+00 -3.81722784e-01  9.69145221e-01 -4.84284482e-01
  9.69145221e-01 -4.84284482e-01  3.25281828e-01 -1.76116494e+00  2.32760585e+00
  0.00000000e+00  0.00000000e+00  2.81607661e-01  0.00000000e+00  0.00000000e+00
  8.74919592e-02 -2.92335246e-01 -3.69895583e-01 -2.92335246e-01 -3.69895583e-01
  0.00000000e+00  0.00000000e+00  0.00000000e+00  1.00069203e+00  0.00000000e+00
  0.00000000e+00 -9.16236581e-01  0.00000000e+00  0.00000000e+00  0.00000000e+00
  0.00000000e+00  0.00000000e+00  0.00000000e+00  8.64864469e-02 -6.20258325e-01
  1.20117477e+00  0.00000000e+00  0.00000000e+00 -9.62795850e-01  0.00000000e+00
  0.00000000e+00  1.24762126e+00 -4.27147283e-01 -2.51106465e-01 -4.27147283e-01
 -2.51106465e-01  0.00000000e+00  0.00000000e+00  0.00000000e+00  0.00000000e+00
  1.02506174e+00  0.00000000e+00  0.00000000e+00 -1.30628797e+00  0.00000000e+00
 -2.32426471e-01 -3.93390725e-01  2.32426471e-01  3.93390725e-01
Total SCF Density                          R   N=          91
  2.12630147e+00 -2.34288927e-01  5.84994167e-01 -3.62137958e-01  5.76642955e-01
  6.09265358e-01  0.00000000e+00  0.00000000e+00  0.00000000e+00  5.29755100e-01
  0.00000000e+00  0.00000000e+00  0.00000000e+00  0.00000000e+00  2.99792729e-01
  4.99199020e-02 -8.67774491e-02 -1.96450845e-01  0.00000000e+00  0.00000000e+00
  3.86150902e-01  0.00000000e+00  0.00000000e+00  0.00000000e+00  6.72435829e-01
  0.00000000e+00  0.00000000e+00  8.53545240e-01  0.00000000e+00  0.00000000e+00
  0.00000000e+00  0.00000000e+00  3.14200914e-01  0.00000000e+00  0.00000000e+00
  3.29301563e-01  5.36206621e-02 -1.13061329e-01 -2.45199434e-01  0.00000000e+00
  0.00000000e+00  4.69023975e-01  0.00000000e+00  0.00000000e+00  5.69836026e-01
 -4.23131408e-02  7.46666731e-02  2.66014700e-02  0.00000000e+00 -2.03348608e-01
  1.51088096e-01  0.00000000e+00 -2.13121641e-01  1.82136027e-01  2.18087904e-01
  2.69078794e-02 -3.61931867e-02 -6.02471492e-02  0.00000000e+00 -1.08464622e-01
  8.61461001e-02  0.00000000e+00 -1.13677485e-01  1.04817134e-01  1.03958530e-01
  5.90027882e-02 -4.23131408e-02  7.46666731e-02  2.66014700e-02  0.00000000e+00
  2.03348608e-01  1.51088096e-01  0.00000000e+00  2.13121641e-01  1.82136027e-01
 -5.77737314e-02 -4.31839975e-02  2.18087904e-01  2.69078794e-02 -3.61931867e-02
 -6.02471492e-02  0.00000000e+00  1.08464622e-01  8.61461001e-02  0.00000000e+00
  1.13677485e-01  1.04817134e-01 -4.31839975e-02 -1.94819323e-02  1.03958530e-01
  5.90027882e-02
Cartesian Gradient                         R   N=           9
 -1.54555108e-28  0.00000000e+00 -3.62516937e-02  4.23913422e-19 -1.38460631e-02
  1.81258468e-02 -4.23913422e-19  1.38460631e-02  1.81258468e-02
