Generated by Psi4
     FORCE                       RODC-12                       PCSEG-0
Number of atoms                            I                3
Charge                                     I                0
Multiplicity                               I                1
Number of electrons                        I               10
Number of alpha electrons                  I                5
Number of beta electrons                   I                5
Number of basis functions                  I               13
Number of independent functions            I               13
Atomic numbers                             I   N=           3
           8           1           1
Nuclear charges                            R   N=           3
  8.00000000e+00  1.00000000e+00  1.00000000e+00
Current cartesian coordinates              R   N=           9
  0.00000000e+00  0.00000000e+00 -1.29476890e-01  0.00000000e+00 -1.49418674e+00
  1.02744610e+00  0.00000000e+00  1.49418674e+00  1.02744610e+00
Integer atomic weights                     I   N=           3
          16           1           1
Real atomic weights                        R   N=           3
  1.59949146e+01  1.00782503e+00  1.00782503e+00
Number of primitive shells                 I               15
Number of contracted shells                I                9
Pure/Cartesian d shells                    I                0
Pure/Cartesian f shells                    I                0
Highest angular momentum                   I                1
Largest degree of contraction              I                4
Shell types                                I   N=           9
           0           0           0           1           1           0
           0           0           0
Number of primitives per shell             I   N=           9
           4           1           1           2           1           2
           1           2           1
Shell to atom map                          I   N=           9
           1           1           1           1           1           2
           2           3           3
Primitive exponents                        R   N=          15
  8.64900000e+02  1.30531000e+02  2.92551000e+01  7.76965000e+00  8.69788000e-01
  2.69783000e-01  8.30553000e+00  1.69516000e+00  3.57951000e-01  4.34473000e+00
  6.60487000e-01  1.36687000e-01  4.34473000e+00  6.60487000e-01  1.36687000e-01
Contraction coefficients                   R   N=          15
  1.78601010e-02  1.24649764e-01  4.38570969e-01  5.55523813e-01  1.00000000e+00
  1.00000000e+00  2.27970846e-01  8.68797958e-01  1.00000000e+00  1.67654352e-01
  8.96889788e-01  1.00000000e+00  1.67654352e-01  8.96889788e-01  1.00000000e+00
Coordinates of each shell                  R   N=          27
  0.00000000e+00  0.00000000e+00 -1.29476890e-01  0.00000000e+00  0.00000000e+00
 -1.29476890e-01  0.00000000e+00  0.00000000e+00 -1.29476890e-01  0.00000000e+00
  0.00000000e+00 -1.29476890e-01  0.00000000e+00  0.00000000e+00 -1.29476890e-01
  0.00000000e+00 -1.49418674e+00  1.02744610e+00  0.00000000e+00 -1.49418674e+00
  1.02744610e+00  0.00000000e+00  1.49418674e+00  1.02744610e+00  0.00000000e+00
  1.49418674e+00  1.02744610e+00
Total Energy                               R     -7.577380074447706e+01
Alpha Orbital Energies                     R   N=          13
 -2.05486287e+01 -1.31773220e+00 -6.76962754e-01 -5.45723059e-01 -4.93848887e-01
  1.81432724e-01  2.81104473e-01  9.26200665e-01  1.02154271e+00  1.46482326e+00
  1.76042716e+00  1.92448629e+00  1.98032817e+00
Alpha MO coefficients                      R   N=         169
  9.86249498e-01  4.59073774e-02 -2.12501931e-02  0.00000000e+00  0.00000000e+00
  2.41708636e-03  0.00000000e+00  0.00000000e+00 -2.58757876e-03  3.73899276e-04
  3.78910306e-03  3.73899276e-04  3.78910306e-03  2.82059390e-01 -5.03155402e-01
 -4.55879086e-01  0.00000000e+00  0.00000000e+00 -7.99544647e-02  0.00000000e+00
  0.00000000e+00 -8.05025198e-02 -1.32382945e-01 -2.82417058e-03 -1.32382945e-01
 -2.82417058e-03  0.00000000e+00  0.00000000e+00  0.00000000e+00  0.00000000e+00
  3.95133684e-01  0.00000000e+00  0.00000000e+00  3.88783596e-01  0.00000000e+00
 -2.67435367e-01 -1.47660729e-01  2.67435367e-01  1.47660729e-01  1.01202891e-01
 -1.79078311e-01 -3.37852644e-01  0.00000000e+00  0.00000000e+00  4.35108038e-01
  0.00000000e+00  0.00000000e+00  5.11643253e-01  1.59502897e-01  1.11142416e-01
  1.59502897e-01  1.11142416e-01  0.00000000e+00  0.00000000e+00  0.00000000e+00
  5.15381529e-01  0.00000000e+00  0.00000000e+00  6.52619782e-01  0.00000000e+00
  0.00000000e+00  0.00000000e+00  0.00000000e+00  0.00000000e+00  0.00000000e+00
  9.08063975e-02 -9.18037467e-02 -9.98290507e-01  0.00000000e+00  0.00000000e+00
 -1.96936941e-01  0.00000000e+00  0.00000000e+00 -4.34170977e-01  6.63151968e-02
  8.60563772e-01  6.63151968e-02  8.60563772e-01  0.00000000e+00  0.00000000e+00
  0.00000000e+00  0.00000000e+00  2.74845776e-01  0.00000000e+00  0.00000000e+00
  6.74369527e-01  0.00000000e+00  3.85956306e-02  1.19665181e+00 -3.85956306e-02
 -1.19665181e+00  0.00000000e+00  0.00000000e+00  0.00000000e+00  0.00000000e+00
  2.44260291e-01  0.00000000e+00  0.00000000e+00  5.32135225e-01  0.00000000e+00
  9.58568593e-01 -6.52804730e-01 -9.58568593e-01  6.52804730e-01  1.30875703e-01
 -4.02645183e-01  1.32062763e-01  0.00000000e+00  0.00000000e+00 -2.61937128e-01
  0.00000000e+00  0.00000000e+00 -3.83369953e-01  9.68667425e-01 -4.84566059e-01
  9.68667425e-01 -4.84566059e-01  3.26583880e-01 -1.76299089e+00  2.32519172e+00
  0.00000000e+00  0.00000000e+00  2.83507078e-01  0.00000000e+00  0.00000000e+00
  8.97480668e-02 -2.91815435e-01 -3.69414802e-01 -2.91815435e-01 -3.69414802e-01
  0.00000000e+00  0.00000000e+00  0.00000000e+00  1.00032193e+00  0.00000000e+00
  0.00000000e+00 -9.16705794e-01  0.00000000e+00  0.00000000e+00  0.00000000e+00
  0.00000000e+00  0.00000000e+00  0.00000000e+00  8.61573672e-02 -6.19691934e-01
  1.20069073e+00  0.00000000e+00  0.00000000e+00 -9.59487216e-01  0.00000000e+00
  0.00000000e+00  1.25153678e+00 -4.25522827e-01 -2.50404672e-01 -4.25522827e-01
 -2.50404672e-01  0.00000000e+00  0.00000000e+00  0.00000000e+00  0.00000000e+00
  1.02130612e+00  0.00000000e+00  0.00000000e+00 -1.31009956e+00  0.00000000e+00
 -2.29840507e-01 -3.92061610e-01  2.29840507e-01  3.92061610e-01
Total SCF Density                          R   N=          91
  2.12630005e+00 -2.34286305e-01  5.84998591e-01 -3.62139780e-01  5.76640064e-01
  6.09253597e-01  0.00000000e+00  0.00000000e+00  0.00000000e+00  5.29754403e-01
  0.00000000e+00  0.00000000e+00  0.00000000e+00  0.00000000e+00  2.99801077e-01
  4.99201886e-02 -8.67783878e-02 -1.96447668e-01  0.00000000e+00  0.00000000e+00
  3.86161056e-01  0.00000000e+00  0.00000000e+00  0.00000000e+00  6.72435706e-01
  0.00000000e+00  0.00000000e+00  8.53546050e-01  0.00000000e+00  0.00000000e+00
  0.00000000e+00  0.00000000e+00  3.14210902e-01  0.00000000e+00  0.00000000e+00
  3.29313331e-01  5.36201430e-02 -1.13062780e-01 -2.45195348e-01  0.00000000e+00
  0.00000000e+00  4.69035127e-01  0.00000000e+00  0.00000000e+00  5.69848160e-01
 -4.23157486e-02  7.46718287e-02  2.66113924e-02  0.00000000e+00 -2.03338676e-01
  1.51077034e-01  0.00000000e+00 -2.13112072e-01  1.82122013e-01  2.18061051e-01
  2.69087254e-02 -3.61942305e-02 -6.02479182e-02  0.00000000e+00 -1.08475921e-01
  8.61510607e-02  0.00000000e+00 -1.13689776e-01  1.04822908e-01  1.03959049e-01
  5.90115937e-02 -4.23157486e-02  7.46718287e-02  2.66113924e-02  0.00000000e+00
  2.03338676e-01  1.51077034e-01  0.00000000e+00  2.13112072e-01  1.82122013e-01
 -5.77659566e-02 -4.31875222e-02  2.18061051e-01  2.69087254e-02 -3.61942305e-02
 -6.02479182e-02  0.00000000e+00  1.08475921e-01  8.61510607e-02  0.00000000e+00
  1.13689776e-01  1.04822908e-01 -4.31875222e-02 -1.94872941e-02  1.03959049e-01
  5.90115937e-02
Total DCT Density                          R   N=          91
  2.12563156e+00 -2.34771577e-01  6.02241337e-01 -3.61302983e-01  5.49477286e-01
  6.76840208e-01  0.00000000e+00  0.00000000e+00  0.00000000e+00  5.40338829e-01
  0.00000000e+00  0.00000000e+00  0.00000000e+00  0.00000000e+00  3.23428836e-01
  4.63832746e-02 -7.37954886e-02 -2.07937982e-01  0.00000000e+00  0.00000000e+00
  4.01840680e-01  0.00000000e+00  0.00000000e+00  0.00000000e+00  6.56029423e-01
  0.00000000e+00  0.00000000e+00  8.56556812e-01  0.00000000e+00  0.00000000e+00
  0.00000000e+00  0.00000000e+00  3.05828107e-01  0.00000000e+00  0.00000000e+00
  3.04575199e-01  5.15516841e-02 -9.66148179e-02 -2.73143906e-01  0.00000000e+00
  0.00000000e+00  4.49134990e-01  0.00000000e+00  0.00000000e+00  5.35211206e-01
 -3.92319316e-02  7.00244260e-02  8.30004980e-03  0.00000000e+00 -1.99116512e-01
  1.50476082e-01  0.00000000e+00 -1.97957959e-01  1.78387562e-01  2.42870672e-01
  2.84548594e-02 -3.51738315e-02 -7.85852707e-02  0.00000000e+00 -1.08132704e-01
  9.07858449e-02  0.00000000e+00 -1.10795635e-01  1.13338413e-01  1.19171146e-01
  7.43228760e-02 -3.92319316e-02  7.00244260e-02  8.30004980e-03  0.00000000e+00
  1.99116512e-01  1.50476082e-01  0.00000000e+00  1.97957959e-01  1.78387562e-01
 -5.65734295e-02 -4.30688075e-02  2.42870672e-01  2.84548594e-02 -3.51738315e-02
 -7.85852707e-02  0.00000000e+00  1.08132704e-01  9.07858449e-02  0.00000000e+00
  1.10795635e-01  1.13338413e-01 -4.30688075e-02 -2.02306181e-02  1.19171146e-01
  7.43228760e-02
Cartesian Gradient                         R   N=           9
 -1.20856873e-32  0.00000000e+00 -4.44373454e-03 -5.86104287e-20  1.91436188e-03
  2.22186727e-03  5.86104287e-20 -1.91436188e-03  2.22186727e-03
