Generated by Psi4
     FORCE                           RHF                       PCSEG-0
Number of atoms                            I                3
Charge                                     I                0
Multiplicity                               I                1
Number of electrons                        I               10
Number of alpha electrons                  I                5
Number of beta electrons                   I                5
Number of basis functions                  I               13
Number of independent functions            I               13
Atomic numbers                             I   N=           3
           8           1           1
Nuclear charges                            R   N=           3
  8.00000000e+00  1.00000000e+00  1.00000000e+00
Current cartesian coordinates              R   N=           9
  0.00000000e+00  0.00000000e+00 -1.29476890e-01  0.00000000e+00 -1.49418674e+00
  1.02744610e+00  0.00000000e+00  1.49418674e+00  1.02744610e+00
Integer atomic weights                     I   N=           3
          16           1           1
Real atomic weights                        R   N=           3
  1.59949146e+01  1.00782503e+00  1.00782503e+00
Number of primitive shells                 I               15
Number of contracted shells                I                9
Pure/Cartesian d shells                    I                0
Pure/Cartesian f shells                    I                0
Highest angular momentum                   I                1
Largest degree of contraction              I                4
Shell types                                I   N=           9
           0           0           0           1           1           0
           0           0           0
Number of primitives per shell             I   N=           9
           4           1           1           2           1           2
           1           2           1
Shell to atom map                          I   N=           9
           1           1           1           1           1           2
           2           3           3
Primitive exponents                        R   N=          15
  8.64900000e+02  1.30531000e+02  2.92551000e+01  7.76965000e+00  8.69788000e-01
  2.69783000e-01  8.30553000e+00  1.69516000e+00  3.57951000e-01  4.34473000e+00
  6.60487000e-01  1.36687000e-01  4.34473000e+00  6.60487000e-01  1.36687000e-01
Contraction coefficients                   R   N=          15
  1.78601010e-02  1.24649764e-01  4.38570969e-01  5.55523813e-01  1.00000000e+00
  1.00000000e+00  2.27970846e-01  8.68797958e-01  1.00000000e+00  1.67654352e-01
  8.96889788e-01  1.00000000e+00  1.67654352e-01  8.96889788e-01  1.00000000e+00
Coordinates of each shell                  R   N=          27
  0.00000000e+00  0.00000000e+00 -1.29476890e-01  0.00000000e+00  0.00000000e+00
 -1.29476890e-01  0.00000000e+00  0.00000000e+00 -1.29476890e-01  0.00000000e+00
  0.00000000e+00 -1.29476890e-01  0.00000000e+00  0.00000000e+00 -1.29476890e-01
  0.00000000e+00 -1.49418674e+00  1.02744610e+00  0.00000000e+00 -1.49418674e+00
  1.02744610e+00  0.00000000e+00  1.49418674e+00  1.02744610e+00  0.00000000e+00
  1.49418674e+00  1.02744610e+00
Total Energy                               R     -7.609501078244355e+01
Alpha Orbital Energies                     R   N=          13
 -1.87315408e+01 -8.98186242e-01 -4.54359750e-01 -2.84394251e-01 -2.12965440e-01
  1.90598937e-02  1.07877109e-01  6.37040416e-01  7.02505098e-01  1.13323272e+00
  1.35167151e+00  1.49857726e+00  1.53602311e+00
Alpha MO coefficients                      R   N=         169
  9.84400833e-01  5.29502854e-02 -2.66661001e-02  0.00000000e+00  0.00000000e+00
  2.48031083e-03  0.00000000e+00  0.00000000e+00 -3.15654241e-03  3.78713387e-04
  4.71056798e-03  3.78713387e-04  4.71056798e-03  2.77371326e-01 -4.98173822e-01
 -4.18588288e-01  0.00000000e+00  0.00000000e+00 -1.22013074e-01  0.00000000e+00
  0.00000000e+00 -1.15696392e-01 -1.45653151e-01 -1.01353040e-02 -1.45653151e-01
 -1.01353040e-02  0.00000000e+00  0.00000000e+00  0.00000000e+00  0.00000000e+00
  4.02142969e-01  0.00000000e+00  0.00000000e+00  3.72891420e-01  0.00000000e+00
 -2.70545302e-01 -1.57510291e-01  2.70545302e-01  1.57510291e-01  1.26370299e-01
 -2.19860348e-01 -3.96122543e-01  0.00000000e+00  0.00000000e+00  4.28013367e-01
  0.00000000e+00  0.00000000e+00  4.87568725e-01  1.54103794e-01  1.27271368e-01
  1.54103794e-01  1.27271368e-01  0.00000000e+00  0.00000000e+00  0.00000000e+00
  5.19335333e-01  0.00000000e+00  0.00000000e+00  6.48987669e-01  0.00000000e+00
  0.00000000e+00  0.00000000e+00  0.00000000e+00  0.00000000e+00  0.00000000e+00
  1.07213485e-01 -1.70337959e-01 -8.92017210e-01  0.00000000e+00  0.00000000e+00
 -2.53242804e-01  0.00000000e+00  0.00000000e+00 -4.33323605e-01  1.31787001e-01
  7.96387023e-01  1.31787001e-01  7.96387023e-01  0.00000000e+00  0.00000000e+00
  0.00000000e+00  0.00000000e+00  3.54841051e-01  0.00000000e+00  0.00000000e+00
  6.64305273e-01  0.00000000e+00  1.33395905e-01  1.09268697e+00 -1.33395905e-01
 -1.09268697e+00  0.00000000e+00  0.00000000e+00  0.00000000e+00  0.00000000e+00
  2.53946097e-01  0.00000000e+00  0.00000000e+00  3.94861946e-01  0.00000000e+00
  9.37165729e-01 -8.02357746e-01 -9.37165729e-01  8.02357746e-01  1.19707859e-01
 -3.83482725e-01  2.29871549e-01  0.00000000e+00  0.00000000e+00 -2.91073350e-01
  0.00000000e+00  0.00000000e+00 -2.88069668e-01  9.44628536e-01 -5.63685973e-01
  9.44628536e-01 -5.63685973e-01  3.24886994e-01 -1.73511303e+00  2.28480427e+00
  0.00000000e+00  0.00000000e+00  3.27797329e-01  0.00000000e+00  0.00000000e+00
  2.81778799e-02 -2.51645568e-01 -3.81918526e-01 -2.51645568e-01 -3.81918526e-01
  0.00000000e+00  0.00000000e+00  0.00000000e+00  9.98274965e-01  0.00000000e+00
  0.00000000e+00 -9.19280751e-01  0.00000000e+00  0.00000000e+00  0.00000000e+00
  0.00000000e+00  0.00000000e+00  0.00000000e+00  9.28245865e-02 -6.81202764e-01
  1.33525822e+00  0.00000000e+00  0.00000000e+00 -9.21796765e-01  0.00000000e+00
  0.00000000e+00  1.28665294e+00 -4.83660447e-01 -2.69740976e-01 -4.83660447e-01
 -2.69740976e-01  0.00000000e+00  0.00000000e+00  0.00000000e+00  0.00000000e+00
  9.91100577e-01  0.00000000e+00  0.00000000e+00 -1.36718332e+00  0.00000000e+00
 -2.74632248e-01 -4.13634255e-01  2.74632248e-01  4.13634255e-01
Total SCF Density                          R   N=          91
  2.12389861e+00 -2.27677293e-01  5.98638925e-01 -3.84825287e-01  5.88418780e-01
  6.65680610e-01  0.00000000e+00  0.00000000e+00  0.00000000e+00  5.39418375e-01
  0.00000000e+00  0.00000000e+00  0.00000000e+00  0.00000000e+00  3.23437936e-01
  4.53737382e-02 -6.63762314e-02 -2.37077280e-01  0.00000000e+00  0.00000000e+00
  3.96177569e-01  0.00000000e+00  0.00000000e+00  0.00000000e+00  6.74084454e-01
  0.00000000e+00  0.00000000e+00  8.42369989e-01  0.00000000e+00  0.00000000e+00
  0.00000000e+00  0.00000000e+00  2.99911326e-01  0.00000000e+00  0.00000000e+00
  2.78096022e-01  5.28320814e-02 -9.94545112e-02 -2.89247271e-01  0.00000000e+00
  0.00000000e+00  4.45589150e-01  0.00000000e+00  0.00000000e+00  5.02237761e-01
 -4.11061188e-02  7.73986523e-02 -1.70764767e-04  0.00000000e+00 -2.17595783e-01
  1.67462024e-01  0.00000000e+00 -2.01768044e-01  1.83973078e-01  2.36315448e-01
  3.58183301e-02 -4.53667163e-02 -9.25963013e-02  0.00000000e+00 -1.26683312e-01
  1.11444340e-01  0.00000000e+00 -1.17468472e-01  1.26422575e-01  1.27409386e-01
  8.22648131e-02 -4.11061188e-02  7.73986523e-02 -1.70764767e-04  0.00000000e+00
  2.17595783e-01  1.67462024e-01  0.00000000e+00  2.01768044e-01  1.83973078e-01
 -5.64635948e-02 -4.30452914e-02  2.36315448e-01  3.58183301e-02 -4.53667163e-02
 -9.25963013e-02  0.00000000e+00  1.26683312e-01  1.11444340e-01  0.00000000e+00
  1.17468472e-01  1.26422575e-01 -4.30452914e-02 -1.69731538e-02  1.27409386e-01
  8.22648131e-02
Cartesian Gradient                         R   N=           9
 -2.10231431e-28  0.00000000e+00  1.03524478e-02 -2.06657833e-19  6.74995708e-03
 -5.18306250e-03  2.06657833e-19 -6.74995708e-03 -5.18306250e-03
