Generated by Psi4
     FORCE                           RHF                       PCSEG-0
Number of atoms                            I                3
Charge                                     I                0
Multiplicity                               I                1
Number of electrons                        I               10
Number of alpha electrons                  I                5
Number of beta electrons                   I                5
Number of basis functions                  I               13
Number of independent functions            I               13
Atomic numbers                             I   N=           3
           8           1           1
Nuclear charges                            R   N=           3
  8.00000000e+00  1.00000000e+00  1.00000000e+00
Current cartesian coordinates              R   N=           9
  1.02376027e-01  8.03254315e-02  0.00000000e+00  1.02376027e-01 -1.82829796e+00
  0.00000000e+00 -1.72715786e+00  5.53475066e-01  0.00000000e+00
Integer atomic weights                     I   N=           3
          16           1           1
Real atomic weights                        R   N=           3
  1.59949146e+01  1.00782503e+00  1.00782503e+00
Number of primitive shells                 I               15
Number of contracted shells                I                9
Pure/Cartesian d shells                    I                0
Pure/Cartesian f shells                    I                0
Highest angular momentum                   I                1
Largest degree of contraction              I                4
Shell types                                I   N=           9
           0           0           0           1           1           0
           0           0           0
Number of primitives per shell             I   N=           9
           4           1           1           2           1           2
           1           2           1
Shell to atom map                          I   N=           9
           1           1           1           1           1           2
           2           3           3
Primitive exponents                        R   N=          15
  8.64900000e+02  1.30531000e+02  2.92551000e+01  7.76965000e+00  8.69788000e-01
  2.69783000e-01  8.30553000e+00  1.69516000e+00  3.57951000e-01  4.34473000e+00
  6.60487000e-01  1.36687000e-01  4.34473000e+00  6.60487000e-01  1.36687000e-01
Contraction coefficients                   R   N=          15
  1.78601010e-02  1.24649764e-01  4.38570969e-01  5.55523813e-01  1.00000000e+00
  1.00000000e+00  2.27970846e-01  8.68797958e-01  1.00000000e+00  1.67654352e-01
  8.96889788e-01  1.00000000e+00  1.67654352e-01  8.96889788e-01  1.00000000e+00
Coordinates of each shell                  R   N=          27
  1.02376027e-01  8.03254315e-02  0.00000000e+00  1.02376027e-01  8.03254315e-02
  0.00000000e+00  1.02376027e-01  8.03254315e-02  0.00000000e+00  1.02376027e-01
  8.03254315e-02  0.00000000e+00  1.02376027e-01  8.03254315e-02  0.00000000e+00
  1.02376027e-01 -1.82829796e+00  0.00000000e+00  1.02376027e-01 -1.82829796e+00
  0.00000000e+00 -1.72715786e+00  5.53475066e-01  0.00000000e+00 -1.72715786e+00
  5.53475066e-01  0.00000000e+00
Total Energy                               R     -7.590517255074356e+01
Alpha Orbital Energies                     R   N=          13
 -2.05494904e+01 -1.31533796e+00 -6.74345639e-01 -5.44901019e-01 -4.93526779e-01
  1.80423504e-01  2.79913866e-01  9.22621923e-01  1.01566848e+00  1.46384936e+00
  1.76053906e+00  1.92650976e+00  1.98157219e+00
Alpha MO coefficients                      R   N=         169
  9.86196796e-01  4.61598194e-02 -2.14772710e-02 -1.92334563e-03 -1.47260728e-03
  0.00000000e+00  2.03835387e-03  1.56495268e-03  0.00000000e+00  3.89606172e-04
  3.74428753e-03  3.50148740e-04  3.83847626e-03  2.82096870e-01 -5.02499117e-01
 -4.59174087e-01  6.40015696e-02  4.73626646e-02  0.00000000e+00  6.41422305e-02
  4.87357904e-02  0.00000000e+00 -1.28369307e-01 -3.40330164e-03 -1.32114967e-01
 -2.89653059e-03  1.72102314e-03 -2.67076726e-03 -7.28965374e-03 -2.46238792e-01
  3.11501810e-01  0.00000000e+00 -2.40504558e-01  3.05788592e-01  0.00000000e+00
 -2.61425574e-01 -1.53084717e-01  2.65156838e-01  1.52793097e-01  1.00642753e-01
 -1.76654605e-01 -3.42125821e-01 -3.42619144e-01 -2.68705595e-01  0.00000000e+00
 -4.01349735e-01 -3.15148674e-01  0.00000000e+00  1.58957930e-01  1.19897464e-01
  1.55355545e-01  1.14986619e-01  0.00000000e+00  0.00000000e+00  0.00000000e+00
  0.00000000e+00  0.00000000e+00  5.14982285e-01  0.00000000e+00  0.00000000e+00
  6.52985564e-01  0.00000000e+00  0.00000000e+00  0.00000000e+00  0.00000000e+00
  9.04598307e-02 -9.15028599e-02 -9.90380543e-01  1.55330556e-01  1.26235268e-01
  0.00000000e+00  3.40712630e-01  2.75528936e-01  0.00000000e+00  6.87642157e-02
  8.65379809e-01  6.53496788e-02  8.48556138e-01  1.14105645e-03 -8.26344536e-04
 -1.97108076e-02  1.70017615e-01 -2.17844589e-01  0.00000000e+00  4.15972909e-01
 -5.32025043e-01  0.00000000e+00 -4.14927071e-02 -1.17429011e+00  3.90411352e-02
  1.20274215e+00  6.38918060e-03 -2.10067270e-02  2.07470458e-02 -1.37889281e-01
  1.99768774e-01  0.00000000e+00 -3.07513299e-01  4.16678761e-01  0.00000000e+00
  1.00379111e+00 -6.90344875e-01 -9.07012965e-01  6.26488883e-01  1.29842928e-01
 -3.99637191e-01  1.41816219e-01  2.13335473e-01  1.48069483e-01  0.00000000e+00
  3.19713084e-01  1.98011934e-01  0.00000000e+00  9.09383044e-01 -4.59318860e-01
  1.01895437e+00 -5.17057602e-01  3.27107750e-01 -1.76217406e+00  2.31399629e+00
 -2.24387530e-01 -1.73815297e-01  0.00000000e+00 -7.08492489e-02 -4.82923082e-02
  0.00000000e+00 -2.89227384e-01 -3.59011681e-01 -2.89817094e-01 -3.72656144e-01
  0.00000000e+00  0.00000000e+00  0.00000000e+00  0.00000000e+00  0.00000000e+00
  1.00052753e+00  0.00000000e+00  0.00000000e+00 -9.16445277e-01  0.00000000e+00
  0.00000000e+00  0.00000000e+00  0.00000000e+00  8.66295589e-02 -6.20348546e-01
  1.19222587e+00  7.76316829e-01  5.63712906e-01  0.00000000e+00 -1.01320317e+00
 -7.29880589e-01  0.00000000e+00 -4.16726865e-01 -2.30275729e-01 -4.30755735e-01
 -2.64162487e-01  2.61160766e-03 -1.77185232e-02  2.79637994e-02 -6.02268307e-01
  8.23756156e-01  0.00000000e+00  7.72783062e-01 -1.05546744e+00  0.00000000e+00
 -2.44247513e-01 -3.89097311e-01  2.17740594e-01  3.81400048e-01
Total SCF Density                          R   N=          91
  2.12642498e+00 -2.34562947e-01  5.85464715e-01 -3.62659246e-01  5.77874146e-01
  6.10517457e-01 -3.95342761e-02  6.86343622e-02  1.56089829e-01  3.53843832e-01
 -3.08243852e-02  5.39993120e-02  1.18003879e-01  4.14598856e-02  3.29843544e-01
  0.00000000e+00  0.00000000e+00  0.00000000e+00  0.00000000e+00  0.00000000e+00
  5.30097219e-01 -4.23397048e-02  8.92574371e-02  1.94325114e-01  4.10725047e-01
  7.46269683e-02  0.00000000e+00  4.79003056e-01 -3.25799905e-02  6.91676267e-02
  1.47045814e-01  7.42825729e-02  3.72066329e-01  0.00000000e+00  1.15915361e-01
  4.21905515e-01  0.00000000e+00  0.00000000e+00  0.00000000e+00  0.00000000e+00
  0.00000000e+00  6.72496262e-01  0.00000000e+00  0.00000000e+00  8.53147697e-01
 -4.11438152e-02  7.24339254e-02  2.71278001e-02  4.68383623e-03 -2.50578552e-01
  0.00000000e+00 -1.40101955e-02 -2.79218719e-01  0.00000000e+00  2.14542090e-01
  2.66144693e-02 -3.61326297e-02 -5.96731185e-02 -2.30555754e-03 -1.41240438e-01
  0.00000000e+00 -1.43003286e-02 -1.58167806e-01  0.00000000e+00  1.05841048e-01
  6.16407571e-02 -4.22549149e-02  7.47339024e-02  2.53578233e-02 -2.44271980e-01
  6.79872365e-02  0.00000000e+00 -2.74615396e-01  5.73246923e-02  0.00000000e+00
 -5.71897214e-02 -4.34164548e-02  2.18320055e-01  2.71931726e-02 -3.65439366e-02
 -6.13477646e-02 -1.34766066e-01  3.31544811e-02  0.00000000e+00 -1.52581177e-01
  2.63588218e-02  0.00000000e+00 -4.29685379e-02 -1.98306084e-02  1.04176023e-01
  5.92715802e-02
Total MP2 Density                          R   N=          91
  2.12489095e+00 -2.32224699e-01  5.95801496e-01 -3.64018274e-01  5.52019221e-01
  6.88411225e-01 -3.67845922e-02  5.80710457e-02  1.68882242e-01  3.75089467e-01
 -2.86318704e-02  4.56645869e-02  1.27843768e-01  3.66309325e-02  3.53927564e-01
  2.29307960e-17 -4.11578540e-16 -5.00572609e-16  6.86235950e-16  2.38836258e-15
  5.40259156e-01 -4.06196621e-02  7.54484106e-02  2.20709901e-01  3.94604425e-01
  6.86595341e-02 -9.78765119e-19  4.45429728e-01 -3.11895776e-02  5.82799347e-02
  1.67561514e-01  6.83435347e-02  3.59163626e-01  8.92904388e-16  1.11254842e-01
  3.90073843e-01  4.57598489e-16 -8.58887985e-16 -1.70698607e-15  2.11119880e-17
  1.52101969e-15  6.55156699e-01 -1.05214417e-15 -3.85501653e-16  8.58091812e-01
 -3.90974428e-02  7.08968802e-02  9.85155360e-03  3.42283731e-03 -2.49066196e-01
 -2.41824071e-16 -1.91533299e-02 -2.65419927e-01  6.92249710e-16  2.28090830e-01
  2.87846265e-02 -3.50091498e-02 -8.32683411e-02 -7.19083643e-03 -1.49724288e-01
  2.18370404e-15 -2.47372676e-02 -1.67548886e-01  3.59709634e-15  1.21420815e-01
  8.19532366e-02 -4.02008675e-02  7.30843487e-02  8.10534408e-03 -2.43028975e-01
  6.63858823e-02 -6.20784421e-16 -2.62554248e-01  4.87574820e-02 -6.05923120e-16
 -5.47962791e-02 -4.33357559e-02  2.31650582e-01  2.92984161e-02 -3.53652225e-02
 -8.48234306e-02 -1.44475067e-01  3.05360509e-02  8.64057866e-17 -1.64852546e-01
  1.85485362e-02  2.93411091e-16 -4.29201241e-02 -2.06006418e-02  1.19853575e-01
  7.94147280e-02
Cartesian Gradient                         R   N=           9
  3.54795037e-03  1.08034610e-02  3.61666403e-16 -2.21161246e-03 -8.84186005e-03
 -8.00993868e-16 -1.33633791e-03 -1.96160091e-03  4.39327464e-16
