Generated by Psi4
     FORCE                           RHF                       PCSEG-0
Number of atoms                            I                3
Charge                                     I                0
Multiplicity                               I                1
Number of electrons                        I               10
Number of alpha electrons                  I                5
Number of beta electrons                   I                5
Number of basis functions                  I               13
Number of independent functions            I               13
Atomic numbers                             I   N=           3
           8           1           1
Nuclear charges                            R   N=           3
  8.00000000e+00  1.00000000e+00  1.00000000e+00
Current cartesian coordinates              R   N=           9
  1.02376027e-01  8.03254315e-02  0.00000000e+00  1.02376027e-01 -1.82829796e+00
  0.00000000e+00 -1.72715786e+00  5.53475066e-01  0.00000000e+00
Integer atomic weights                     I   N=           3
          16           1           1
Real atomic weights                        R   N=           3
  1.59949146e+01  1.00782503e+00  1.00782503e+00
Number of primitive shells                 I               15
Number of contracted shells                I                9
Pure/Cartesian d shells                    I                0
Pure/Cartesian f shells                    I                0
Highest angular momentum                   I                1
Largest degree of contraction              I                4
Shell types                                I   N=           9
           0           0           0           1           1           0
           0           0           0
Number of primitives per shell             I   N=           9
           4           1           1           2           1           2
           1           2           1
Shell to atom map                          I   N=           9
           1           1           1           1           1           2
           2           3           3
Primitive exponents                        R   N=          15
  8.64900000e+02  1.30531000e+02  2.92551000e+01  7.76965000e+00  8.69788000e-01
  2.69783000e-01  8.30553000e+00  1.69516000e+00  3.57951000e-01  4.34473000e+00
  6.60487000e-01  1.36687000e-01  4.34473000e+00  6.60487000e-01  1.36687000e-01
Contraction coefficients                   R   N=          15
  1.78601010e-02  1.24649764e-01  4.38570969e-01  5.55523813e-01  1.00000000e+00
  1.00000000e+00  2.27970846e-01  8.68797958e-01  1.00000000e+00  1.67654352e-01
  8.96889788e-01  1.00000000e+00  1.67654352e-01  8.96889788e-01  1.00000000e+00
Coordinates of each shell                  R   N=          27
  1.02376027e-01  8.03254315e-02  0.00000000e+00  1.02376027e-01  8.03254315e-02
  0.00000000e+00  1.02376027e-01  8.03254315e-02  0.00000000e+00  1.02376027e-01
  8.03254315e-02  0.00000000e+00  1.02376027e-01  8.03254315e-02  0.00000000e+00
  1.02376027e-01 -1.82829796e+00  0.00000000e+00  1.02376027e-01 -1.82829796e+00
  0.00000000e+00 -1.72715786e+00  5.53475066e-01  0.00000000e+00 -1.72715786e+00
  5.53475066e-01  0.00000000e+00
Total Energy                               R     -7.609509633221913e+01
Alpha Orbital Energies                     R   N=          13
 -1.87323976e+01 -8.96168494e-01 -4.52755398e-01 -2.84536904e-01 -2.12669197e-01
  1.75933529e-02  1.06040935e-01  6.34023375e-01  6.97604745e-01  1.13206112e+00
  1.35171243e+00  1.49984597e+00  1.53670763e+00
Alpha MO coefficients                      R   N=         169
  9.84406361e-01  5.29240753e-02 -2.66047851e-02 -1.96416336e-03 -1.50154966e-03
  0.00000000e+00  2.50602453e-03  1.92368471e-03  0.00000000e+00  4.27056101e-04
  4.61863984e-03  3.77288665e-04  4.73781140e-03  2.77577568e-01 -4.98553241e-01
 -4.20394457e-01  9.70950005e-02  7.25653440e-02  0.00000000e+00  9.20625364e-02
  7.01151864e-02  0.00000000e+00 -1.42292187e-01 -1.06101043e-02 -1.46577727e-01
 -1.02241250e-02  1.24244176e-03 -1.89901231e-03 -5.13246308e-03 -2.46336934e-01
  3.17158697e-01  0.00000000e+00 -2.28219409e-01  2.96184960e-01  0.00000000e+00
 -2.69062150e-01 -1.59743491e-01  2.70071664e-01  1.57896539e-01  1.26207021e-01
 -2.19650925e-01 -3.95230772e-01 -3.38132113e-01 -2.61659364e-01  0.00000000e+00
 -3.84848213e-01 -2.98733224e-01  0.00000000e+00  1.54573386e-01  1.29994457e-01
  1.54492547e-01  1.27521368e-01  0.00000000e+00  0.00000000e+00  0.00000000e+00
  0.00000000e+00  0.00000000e+00  5.19485943e-01  0.00000000e+00  0.00000000e+00
  6.48848964e-01  0.00000000e+00  0.00000000e+00  0.00000000e+00  0.00000000e+00
  1.07030655e-01 -1.70232229e-01 -8.84759564e-01  1.96807504e-01  1.62723690e-01
  0.00000000e+00  3.36109417e-01  2.76982188e-01  0.00000000e+00  1.37977398e-01
  8.05826919e-01  1.29427044e-01  7.78774726e-01  2.12185493e-03 -3.29010945e-03
 -2.47551745e-02  2.20498566e-01 -2.79701468e-01  0.00000000e+00  4.11721580e-01
 -5.21351942e-01  0.00000000e+00 -1.36295491e-01 -1.06357393e+00  1.35306698e-01
  1.10323328e+00  6.75742811e-03 -2.29561981e-02  2.69750729e-02 -1.41138908e-01
  2.09769749e-01  0.00000000e+00 -2.26037885e-01  3.07955113e-01  0.00000000e+00
  9.88183190e-01 -8.49158124e-01 -8.76245513e-01  7.66106400e-01  1.18259206e-01
 -3.79317702e-01  2.38939422e-01  2.39275908e-01  1.62878769e-01  0.00000000e+00
  2.43838998e-01  1.43937335e-01  0.00000000e+00  8.76587838e-01 -5.23210638e-01
  1.00180444e+00 -6.11468854e-01  3.25071704e-01 -1.73423069e+00  2.27524220e+00
 -2.59192082e-01 -2.00106860e-01  0.00000000e+00 -2.23608945e-02 -1.17955188e-02
  0.00000000e+00 -2.49451429e-01 -3.71899909e-01 -2.49773158e-01 -3.85368486e-01
  0.00000000e+00  0.00000000e+00  0.00000000e+00  0.00000000e+00  0.00000000e+00
  9.98196598e-01  0.00000000e+00  0.00000000e+00 -9.19378657e-01  0.00000000e+00
  0.00000000e+00  0.00000000e+00  0.00000000e+00  9.31927742e-02 -6.81075120e-01
  1.32455420e+00  7.46273824e-01  5.42078154e-01  0.00000000e+00 -1.04150165e+00
 -7.49002482e-01  0.00000000e+00 -4.72105740e-01 -2.48282491e-01 -4.89847308e-01
 -2.84275868e-01  2.74687879e-03 -1.88095047e-02  2.96162327e-02 -5.85104639e-01
  7.99877449e-01  0.00000000e+00  8.06722571e-01 -1.09952581e+00  0.00000000e+00
 -2.89678639e-01 -4.10692918e-01  2.61691191e-01  4.02635963e-01
Total SCF Density                          R   N=          91
  2.12406989e+00 -2.28024496e-01  5.99212853e-01 -3.85538531e-01  5.90007073e-01
  6.67346039e-01 -3.59256938e-02  5.24556989e-02  1.88277175e-01  3.68893016e-01
 -2.79296421e-02  4.12285548e-02  1.42643814e-01  3.47924279e-02  3.48646491e-01
  0.00000000e+00  0.00000000e+00  0.00000000e+00  0.00000000e+00  0.00000000e+00
  5.39731289e-01 -4.16653090e-02  7.84004209e-02  2.29011864e-01  3.90564598e-01
  6.99883100e-02  0.00000000e+00  4.17348073e-01 -3.19562949e-02  6.04004517e-02
  1.74042379e-01  6.97081136e-02  3.54378051e-01  0.00000000e+00  1.07663187e-01
  3.63773820e-01  0.00000000e+00  0.00000000e+00  0.00000000e+00  0.00000000e+00
  0.00000000e+00  6.74135831e-01  0.00000000e+00  0.00000000e+00  8.42009956e-01
 -3.98055398e-02  7.50431956e-02  1.92555835e-04  3.94041522e-04 -2.72214195e-01
  0.00000000e+00 -2.23615920e-02 -2.71688780e-01  0.00000000e+00  2.33069242e-01
  3.56184654e-02 -4.54318174e-02 -9.24407619e-02 -1.12876767e-02 -1.70910331e-01
  0.00000000e+00 -2.90735760e-02 -1.73764655e-01  0.00000000e+00  1.29172636e-01
  8.51008960e-02 -4.09633819e-02  7.72989361e-02 -1.67183087e-03 -2.66000446e-01
  6.91882515e-02  0.00000000e+00 -2.69170297e-01  4.71250191e-02  0.00000000e+00
 -5.58572000e-02 -4.30041364e-02  2.36583647e-01  3.62324263e-02 -4.59240378e-02
 -9.40772997e-02 -1.66033672e-01  3.19241383e-02  0.00000000e+00 -1.72081622e-01
  1.59279164e-02  0.00000000e+00 -4.26314721e-02 -1.70310241e-02  1.27689797e-01
  8.26399915e-02
Cartesian Gradient                         R   N=           9
 -8.84535303e-03  1.19510094e-03  0.00000000e+00  3.63530529e-04  6.31906845e-04
  0.00000000e+00  8.48996034e-03 -1.81623421e-03  0.00000000e+00
