Generated by Psi4
     FORCE                          CCSD                       PCSEG-0
Number of atoms                            I                3
Charge                                     I                0
Multiplicity                               I                1
Number of electrons                        I               10
Number of alpha electrons                  I                5
Number of beta electrons                   I                5
Number of basis functions                  I               13
Number of independent functions            I               13
Atomic numbers                             I   N=           3
           8           1           1
Nuclear charges                            R   N=           3
  8.00000000e+00  1.00000000e+00  1.00000000e+00
Current cartesian coordinates              R   N=           9
  0.00000000e+00  0.00000000e+00 -1.29476890e-01  0.00000000e+00 -1.49418674e+00
  1.02744610e+00  0.00000000e+00  1.49418674e+00  1.02744610e+00
Integer atomic weights                     I   N=           3
          16           1           1
Real atomic weights                        R   N=           3
  1.59949146e+01  1.00782503e+00  1.00782503e+00
Number of primitive shells                 I               15
Number of contracted shells                I                9
Pure/Cartesian d shells                    I                0
Pure/Cartesian f shells                    I                0
Highest angular momentum                   I                1
Largest degree of contraction              I                4
Shell types                                I   N=           9
           0           0           0           1           1           0
           0           0           0
Number of primitives per shell             I   N=           9
           4           1           1           2           1           2
           1           2           1
Shell to atom map                          I   N=           9
           1           1           1           1           1           2
           2           3           3
Primitive exponents                        R   N=          15
  8.64900000e+02  1.30531000e+02  2.92551000e+01  7.76965000e+00  8.69788000e-01
  2.69783000e-01  8.30553000e+00  1.69516000e+00  3.57951000e-01  4.34473000e+00
  6.60487000e-01  1.36687000e-01  4.34473000e+00  6.60487000e-01  1.36687000e-01
Contraction coefficients                   R   N=          15
  1.78601010e-02  1.24649764e-01  4.38570969e-01  5.55523813e-01  1.00000000e+00
  1.00000000e+00  2.27970846e-01  8.68797958e-01  1.00000000e+00  1.67654352e-01
  8.96889788e-01  1.00000000e+00  1.67654352e-01  8.96889788e-01  1.00000000e+00
Coordinates of each shell                  R   N=          27
  0.00000000e+00  0.00000000e+00 -1.29476890e-01  0.00000000e+00  0.00000000e+00
 -1.29476890e-01  0.00000000e+00  0.00000000e+00 -1.29476890e-01  0.00000000e+00
  0.00000000e+00 -1.29476890e-01  0.00000000e+00  0.00000000e+00 -1.29476890e-01
  0.00000000e+00 -1.49418674e+00  1.02744610e+00  0.00000000e+00 -1.49418674e+00
  1.02744610e+00  0.00000000e+00  1.49418674e+00  1.02744610e+00  0.00000000e+00
  1.49418674e+00  1.02744610e+00
Total Energy                               R     -7.591144539250776e+01
Alpha Orbital Energies                     R   N=          13
 -2.05486287e+01 -1.31773220e+00 -6.76962754e-01 -5.45723059e-01 -4.93848887e-01
  1.81432724e-01  2.81104473e-01  9.26200665e-01  1.02154271e+00  1.46482326e+00
  1.76042716e+00  1.92448629e+00  1.98032817e+00
Alpha MO coefficients                      R   N=         169
  9.86361625e-01  4.53557572e-02 -2.06310214e-02  0.00000000e+00  0.00000000e+00
  2.44499198e-03  0.00000000e+00  0.00000000e+00 -2.61169985e-03  3.84941515e-04
  3.69160656e-03  3.84941515e-04  3.69160656e-03  2.82584199e-01 -5.04528785e-01
 -4.57825256e-01  0.00000000e+00  0.00000000e+00 -7.62745584e-02  0.00000000e+00
  0.00000000e+00 -8.60047683e-02 -1.30854404e-01 -1.09751511e-03 -1.30854404e-01
 -1.09751511e-03  0.00000000e+00  0.00000000e+00  0.00000000e+00  0.00000000e+00
  3.87169909e-01  0.00000000e+00  0.00000000e+00  4.05779084e-01  0.00000000e+00
 -2.62596177e-01 -1.40088265e-01  2.62596177e-01  1.40088265e-01  1.01916340e-01
 -1.89454100e-01 -3.07566570e-01  0.00000000e+00  0.00000000e+00  4.32731720e-01
  0.00000000e+00  0.00000000e+00  5.26802087e-01  1.51495051e-01  9.93289605e-02
  1.51495051e-01  9.93289605e-02  0.00000000e+00  0.00000000e+00  0.00000000e+00
  5.14662221e-01  0.00000000e+00  0.00000000e+00  6.53278673e-01  0.00000000e+00
  0.00000000e+00  0.00000000e+00  0.00000000e+00  0.00000000e+00  0.00000000e+00
  9.13450392e-02 -9.29203607e-02 -1.00106473e+00  0.00000000e+00  0.00000000e+00
 -1.91861899e-01  0.00000000e+00  0.00000000e+00 -4.28117704e-01  6.83349212e-02
  8.61761433e-01  6.83349212e-02  8.61761433e-01  0.00000000e+00  0.00000000e+00
  0.00000000e+00  0.00000000e+00  2.73062131e-01  0.00000000e+00  0.00000000e+00
  6.72557933e-01  0.00000000e+00  3.98040976e-02  1.19730787e+00 -3.98040976e-02
 -1.19730787e+00  0.00000000e+00  0.00000000e+00  0.00000000e+00  0.00000000e+00
  2.43265237e-01  0.00000000e+00  0.00000000e+00  5.31124578e-01  0.00000000e+00
  9.59242769e-01 -6.52438727e-01 -9.59242769e-01  6.52438727e-01  1.30979165e-01
 -4.03015634e-01  1.31267665e-01  0.00000000e+00  0.00000000e+00 -2.60611369e-01
  0.00000000e+00  0.00000000e+00 -3.81786780e-01  9.69180605e-01 -4.84251074e-01
  9.69180605e-01 -4.84251074e-01  3.25285630e-01 -1.76116954e+00  2.32759466e+00
  0.00000000e+00  0.00000000e+00  2.81609913e-01  0.00000000e+00  0.00000000e+00
  8.74599258e-02 -2.92296622e-01 -3.69908337e-01 -2.92296622e-01 -3.69908337e-01
  0.00000000e+00  0.00000000e+00  0.00000000e+00  1.00069221e+00  0.00000000e+00
  0.00000000e+00 -9.16236360e-01  0.00000000e+00  0.00000000e+00  0.00000000e+00
  0.00000000e+00  0.00000000e+00  0.00000000e+00  8.64970954e-02 -6.20302087e-01
  1.20122250e+00  0.00000000e+00  0.00000000e+00 -9.62803623e-01  0.00000000e+00
  0.00000000e+00  1.24760687e+00 -4.27100658e-01 -2.51145203e-01 -4.27100658e-01
 -2.51145203e-01  0.00000000e+00  0.00000000e+00  0.00000000e+00  0.00000000e+00
  1.02506520e+00  0.00000000e+00  0.00000000e+00 -1.30628157e+00  0.00000000e+00
 -2.32387384e-01 -3.93444285e-01  2.32387384e-01  3.93444285e-01
Total SCF Density                          R   N=          91
  2.12630005e+00 -2.34286305e-01  5.84998591e-01 -3.62139780e-01  5.76640064e-01
  6.09253597e-01  0.00000000e+00  0.00000000e+00  0.00000000e+00  5.29754403e-01
  0.00000000e+00  0.00000000e+00  0.00000000e+00  0.00000000e+00  2.99801077e-01
  4.99201886e-02 -8.67783878e-02 -1.96447668e-01  0.00000000e+00  0.00000000e+00
  3.86161056e-01  0.00000000e+00  0.00000000e+00  0.00000000e+00  6.72435706e-01
  0.00000000e+00  0.00000000e+00  8.53546050e-01  0.00000000e+00  0.00000000e+00
  0.00000000e+00  0.00000000e+00  3.14210902e-01  0.00000000e+00  0.00000000e+00
  3.29313331e-01  5.36201430e-02 -1.13062780e-01 -2.45195348e-01  0.00000000e+00
  0.00000000e+00  4.69035127e-01  0.00000000e+00  0.00000000e+00  5.69848160e-01
 -4.23157486e-02  7.46718287e-02  2.66113924e-02  0.00000000e+00 -2.03338676e-01
  1.51077034e-01  0.00000000e+00 -2.13112072e-01  1.82122013e-01  2.18061051e-01
  2.69087254e-02 -3.61942305e-02 -6.02479182e-02  0.00000000e+00 -1.08475921e-01
  8.61510607e-02  0.00000000e+00 -1.13689776e-01  1.04822908e-01  1.03959049e-01
  5.90115937e-02 -4.23157486e-02  7.46718287e-02  2.66113924e-02  0.00000000e+00
  2.03338676e-01  1.51077034e-01  0.00000000e+00  2.13112072e-01  1.82122013e-01
 -5.77659566e-02 -4.31875222e-02  2.18061051e-01  2.69087254e-02 -3.61942305e-02
 -6.02479182e-02  0.00000000e+00  1.08475921e-01  8.61510607e-02  0.00000000e+00
  1.13689776e-01  1.04822908e-01 -4.31875222e-02 -1.94872941e-02  1.03959049e-01
  5.90115937e-02
Total CC Density                           R   N=          91
  2.12550787e+00 -2.34532954e-01  6.02167941e-01 -3.61061426e-01  5.48096875e-01
  6.78512333e-01  0.00000000e+00  0.00000000e+00  0.00000000e+00  5.40537006e-01
  0.00000000e+00  0.00000000e+00  0.00000000e+00  0.00000000e+00  3.23950594e-01
  4.64116690e-02 -7.38775543e-02 -2.07937953e-01  0.00000000e+00  0.00000000e+00
  4.02317178e-01  0.00000000e+00  0.00000000e+00  0.00000000e+00  6.55493136e-01
  0.00000000e+00  0.00000000e+00  8.56991796e-01  0.00000000e+00  0.00000000e+00
  0.00000000e+00  0.00000000e+00  3.05863232e-01  0.00000000e+00  0.00000000e+00
  3.04413048e-01  5.16098173e-02 -9.65834908e-02 -2.73784576e-01  0.00000000e+00
  0.00000000e+00  4.49098306e-01  0.00000000e+00  0.00000000e+00  5.35258983e-01
 -3.93981939e-02  7.04069403e-02  8.65261172e-03  0.00000000e+00 -1.99249168e-01
  1.50410978e-01  0.00000000e+00 -1.98321433e-01  1.78448247e-01  2.41836205e-01
  2.83808891e-02 -3.48015876e-02 -7.90382309e-02  0.00000000e+00 -1.08174147e-01
  9.08498188e-02  0.00000000e+00 -1.10997139e-01  1.13627829e-01  1.18984725e-01
  7.44925372e-02 -3.93981939e-02  7.04069403e-02  8.65261172e-03  0.00000000e+00
  1.99249168e-01  1.50410978e-01  0.00000000e+00  1.98321433e-01  1.78448247e-01
 -5.64936859e-02 -4.30198979e-02  2.41836205e-01  2.83808891e-02 -3.48015876e-02
 -7.90382309e-02  0.00000000e+00  1.08174147e-01  9.08498188e-02  0.00000000e+00
  1.10997139e-01  1.13627829e-01 -4.30198979e-02 -2.01023210e-02  1.18984725e-01
  7.44925372e-02
Cartesian Gradient                         R   N=           9
 -1.59986665e-32  0.00000000e+00 -4.68085347e-03 -5.19196588e-20  1.69582475e-03
  2.34042674e-03  5.19196588e-20 -1.69582475e-03  2.34042674e-03
