Generated by Psi4
     FORCE                           RHF                       PCSEG-0
Number of atoms                            I                3
Charge                                     I                0
Multiplicity                               I                1
Number of electrons                        I               10
Number of alpha electrons                  I                5
Number of beta electrons                   I                5
Number of basis functions                  I               13
Number of independent functions            I               13
Atomic numbers                             I   N=           3
           8           1           1
Nuclear charges                            R   N=           3
  8.00000000e+00  1.00000000e+00  1.00000000e+00
Current cartesian coordinates              R   N=           9
  0.00000000e+00  0.00000000e+00 -1.29476890e-01  0.00000000e+00 -1.49418674e+00
  1.02744610e+00  0.00000000e+00  1.49418674e+00  1.02744610e+00
Integer atomic weights                     I   N=           3
          16           1           1
Real atomic weights                        R   N=           3
  1.59949146e+01  1.00782503e+00  1.00782503e+00
Number of primitive shells                 I               15
Number of contracted shells                I                9
Pure/Cartesian d shells                    I                0
Pure/Cartesian f shells                    I                0
Highest angular momentum                   I                1
Largest degree of contraction              I                4
Shell types                                I   N=           9
           0           0           0           1           1           0
           0           0           0
Number of primitives per shell             I   N=           9
           4           1           1           2           1           2
           1           2           1
Shell to atom map                          I   N=           9
           1           1           1           1           1           2
           2           3           3
Primitive exponents                        R   N=          15
  8.64900000e+02  1.30531000e+02  2.92551000e+01  7.76965000e+00  8.69788000e-01
  2.69783000e-01  8.30553000e+00  1.69516000e+00  3.57951000e-01  4.34473000e+00
  6.60487000e-01  1.36687000e-01  4.34473000e+00  6.60487000e-01  1.36687000e-01
Contraction coefficients                   R   N=          15
  1.78601010e-02  1.24649764e-01  4.38570969e-01  5.55523813e-01  1.00000000e+00
  1.00000000e+00  2.27970846e-01  8.68797958e-01  1.00000000e+00  1.67654352e-01
  8.96889788e-01  1.00000000e+00  1.67654352e-01  8.96889788e-01  1.00000000e+00
Coordinates of each shell                  R   N=          27
  0.00000000e+00  0.00000000e+00 -1.29476890e-01  0.00000000e+00  0.00000000e+00
 -1.29476890e-01  0.00000000e+00  0.00000000e+00 -1.29476890e-01  0.00000000e+00
  0.00000000e+00 -1.29476890e-01  0.00000000e+00  0.00000000e+00 -1.29476890e-01
  0.00000000e+00 -1.49418674e+00  1.02744610e+00  0.00000000e+00 -1.49418674e+00
  1.02744610e+00  0.00000000e+00  1.49418674e+00  1.02744610e+00  0.00000000e+00
  1.49418674e+00  1.02744610e+00
Total Energy                               R     -7.590526612063562e+01
Alpha Orbital Energies                     R   N=          13
 -2.05486089e+01 -1.31772783e+00 -6.76933571e-01 -5.45693789e-01 -4.93816332e-01
  1.81458434e-01  2.81129649e-01  9.26344910e-01  1.02166050e+00  1.46484326e+00
  1.76051701e+00  1.92462572e+00  1.98046794e+00
Alpha MO coefficients                      R   N=         169
  9.86189007e-01  4.61897371e-02 -2.15264664e-02  0.00000000e+00  0.00000000e+00
  2.42851023e-03  0.00000000e+00  0.00000000e+00 -2.56722041e-03  3.50637710e-04
  3.81687352e-03  3.50637710e-04  3.81687352e-03  2.81922403e-01 -5.02175549e-01
 -4.57503660e-01  0.00000000e+00  0.00000000e+00 -8.05311406e-02  0.00000000e+00
  0.00000000e+00 -8.07122383e-02 -1.31434319e-01 -2.90538244e-03 -1.31434319e-01
 -2.90538244e-03  0.00000000e+00  0.00000000e+00  0.00000000e+00  0.00000000e+00
  3.97625066e-01  0.00000000e+00  0.00000000e+00  3.88032437e-01  0.00000000e+00
 -2.64342056e-01 -1.51487548e-01  2.64342056e-01  1.51487548e-01  1.00894402e-01
 -1.77009472e-01 -3.43205628e-01  0.00000000e+00  0.00000000e+00  4.35910643e-01
  0.00000000e+00  0.00000000e+00  5.10540619e-01  1.56943036e-01  1.15868428e-01
  1.56943036e-01  1.15868428e-01  0.00000000e+00  0.00000000e+00  0.00000000e+00
  5.14842048e-01  0.00000000e+00  0.00000000e+00  6.53114005e-01  0.00000000e+00
  0.00000000e+00  0.00000000e+00  0.00000000e+00  0.00000000e+00  0.00000000e+00
  9.05278922e-02 -9.11797490e-02 -9.97176168e-01  0.00000000e+00  0.00000000e+00
 -1.98358757e-01  0.00000000e+00  0.00000000e+00 -4.35881753e-01  6.58409239e-02
  8.60181952e-01  6.58409239e-02  8.60181952e-01  0.00000000e+00  0.00000000e+00
  0.00000000e+00  0.00000000e+00  2.75084315e-01  0.00000000e+00  0.00000000e+00
  6.74665502e-01  0.00000000e+00  3.84745856e-02  1.19653760e+00 -3.84745856e-02
 -1.19653760e+00  0.00000000e+00  0.00000000e+00  0.00000000e+00  0.00000000e+00
  2.42857464e-01  0.00000000e+00  0.00000000e+00  5.30601934e-01  0.00000000e+00
  9.59527714e-01 -6.52332223e-01 -9.59527714e-01  6.52332223e-01  1.31066361e-01
 -4.02937922e-01  1.31514898e-01  0.00000000e+00  0.00000000e+00 -2.60488207e-01
  0.00000000e+00  0.00000000e+00 -3.81526089e-01  9.69249863e-01 -4.84249574e-01
  9.69249863e-01 -4.84249574e-01  3.26970552e-01 -1.76343436e+00  2.32471453e+00
  0.00000000e+00  0.00000000e+00  2.83589080e-01  0.00000000e+00  0.00000000e+00
  8.98837206e-02 -2.91911677e-01 -3.69356203e-01 -2.91911677e-01 -3.69356203e-01
  0.00000000e+00  0.00000000e+00  0.00000000e+00  1.00059970e+00  0.00000000e+00
  0.00000000e+00 -9.16353747e-01  0.00000000e+00  0.00000000e+00  0.00000000e+00
  0.00000000e+00  0.00000000e+00  0.00000000e+00  8.61966396e-02 -6.19700206e-01
  1.20045983e+00  0.00000000e+00  0.00000000e+00 -9.59151939e-01  0.00000000e+00
  0.00000000e+00  1.25193259e+00 -4.25450111e-01 -2.50271630e-01 -4.25450111e-01
 -2.50271630e-01  0.00000000e+00  0.00000000e+00  0.00000000e+00  0.00000000e+00
  1.02060927e+00  0.00000000e+00  0.00000000e+00 -1.31079158e+00  0.00000000e+00
 -2.29436817e-01 -3.91736554e-01  2.29436817e-01  3.91736554e-01
Total SCF Density                          R   N=          91
  2.12630147e+00 -2.34288927e-01  5.84994167e-01 -3.62137958e-01  5.76642955e-01
  6.09265358e-01  0.00000000e+00  0.00000000e+00  0.00000000e+00  5.29755100e-01
  0.00000000e+00  0.00000000e+00  0.00000000e+00  0.00000000e+00  2.99792729e-01
  4.99199020e-02 -8.67774491e-02 -1.96450845e-01  0.00000000e+00  0.00000000e+00
  3.86150902e-01  0.00000000e+00  0.00000000e+00  0.00000000e+00  6.72435829e-01
  0.00000000e+00  0.00000000e+00  8.53545240e-01  0.00000000e+00  0.00000000e+00
  0.00000000e+00  0.00000000e+00  3.14200914e-01  0.00000000e+00  0.00000000e+00
  3.29301563e-01  5.36206621e-02 -1.13061329e-01 -2.45199434e-01  0.00000000e+00
  0.00000000e+00  4.69023975e-01  0.00000000e+00  0.00000000e+00  5.69836026e-01
 -4.23131408e-02  7.46666731e-02  2.66014700e-02  0.00000000e+00 -2.03348608e-01
  1.51088096e-01  0.00000000e+00 -2.13121641e-01  1.82136027e-01  2.18087904e-01
  2.69078794e-02 -3.61931867e-02 -6.02471492e-02  0.00000000e+00 -1.08464622e-01
  8.61461001e-02  0.00000000e+00 -1.13677485e-01  1.04817134e-01  1.03958530e-01
  5.90027882e-02 -4.23131408e-02  7.46666731e-02  2.66014700e-02  0.00000000e+00
  2.03348608e-01  1.51088096e-01  0.00000000e+00  2.13121641e-01  1.82136027e-01
 -5.77737314e-02 -4.31839975e-02  2.18087904e-01  2.69078794e-02 -3.61931867e-02
 -6.02471492e-02  0.00000000e+00  1.08464622e-01  8.61461001e-02  0.00000000e+00
  1.13677485e-01  1.04817134e-01 -4.31839975e-02 -1.94819323e-02  1.03958530e-01
  5.90027882e-02
Total MP2 Density                          R   N=          91
  2.12475884e+00 -2.31956254e-01  5.95353295e-01 -3.63394429e-01  5.50730975e-01
  6.86562565e-01 -4.76804526e-16  5.69603044e-16  9.59093286e-16  5.39950546e-01
 -3.26291158e-15  6.28634383e-14 -2.55464395e-13  2.48568579e-15  3.27235764e-01
  4.64491740e-02 -7.34596057e-02 -2.12534265e-01  1.71604630e-16 -5.16593240e-14
  4.03717193e-01  3.20943722e-17  3.82497862e-16  8.84063655e-16  6.55149027e-01
  1.55023305e-15  5.16376668e-16  8.58409912e-01 -4.58301541e-15  6.53569507e-14
 -2.54192559e-13  2.11752211e-16  3.05741458e-01 -4.47013539e-14 -1.16455211e-15
  3.01596483e-01  5.14556157e-02 -9.56618345e-02 -2.78496060e-01  5.10989410e-16
 -1.24931296e-13  4.48502403e-01  1.08296280e-15 -1.22681448e-13  5.33062966e-01
 -4.02839779e-02  7.30560517e-02  9.49473586e-03 -7.12571628e-16 -2.01332226e-01
  1.51105105e-01  1.17747901e-16 -1.99040060e-01  1.77812891e-01  2.31423389e-01
  2.89687732e-02 -3.49784211e-02 -8.33652086e-02 -2.88394898e-16 -1.12384705e-01
  9.52644810e-02  2.73450707e-16 -1.15098373e-01  1.19030489e-01  1.19548480e-01
  7.89718613e-02 -4.02839779e-02  7.30560517e-02  9.49473586e-03 -6.19542575e-16
  2.01332226e-01  1.51105105e-01 -1.74113243e-15  1.99040060e-01  1.77812891e-01
 -5.54054300e-02 -4.32850999e-02  2.31423389e-01  2.89687732e-02 -3.49784211e-02
 -8.33652086e-02 -8.19324125e-16  1.12384705e-01  9.52644810e-02 -1.59577730e-15
  1.15098373e-01  1.19030489e-01 -4.32850999e-02 -2.04642679e-02  1.19548480e-01
  7.89718613e-02
Cartesian Gradient                         R   N=           9
 -1.13086324e-15  1.21647033e-13 -5.42497575e-03  3.15683122e-16  8.63506414e-04
  2.71248788e-03  8.15180117e-16 -8.63506414e-04  2.71248788e-03
