Generated by Psi4
     FORCE                          CCSD                       PCSEG-0
Number of atoms                            I                3
Charge                                     I                0
Multiplicity                               I                2
Number of electrons                        I               17
Number of alpha electrons                  I                9
Number of beta electrons                   I                8
Number of basis functions                  I               20
Number of independent functions            I               20
Atomic numbers                             I   N=           3
           8           8           1
Nuclear charges                            R   N=           3
  8.00000000e+00  8.00000000e+00  1.00000000e+00
Current cartesian coordinates              R   N=           9
 -5.41773217e-02  1.43574534e+00  0.00000000e+00 -5.41773217e-02 -1.32325480e+00
  0.00000000e+00  1.71966682e+00 -1.78530659e+00  0.00000000e+00
Integer atomic weights                     I   N=           3
          16          16           1
Real atomic weights                        R   N=           3
  1.59949146e+01  1.59949146e+01  1.00782503e+00
Number of primitive shells                 I               21
Number of contracted shells                I               12
Pure/Cartesian d shells                    I                0
Pure/Cartesian f shells                    I                0
Highest angular momentum                   I                1
Largest degree of contraction              I                4
Shell types                                I   N=          12
           0           0           0           1           1           0
           0           0           1           1           0           0
Number of primitives per shell             I   N=          12
           4           1           1           2           1           4
           1           1           2           1           2           1
Shell to atom map                          I   N=          12
           1           1           1           1           1           2
           2           2           2           2           3           3
Primitive exponents                        R   N=          21
  8.64900000e+02  1.30531000e+02  2.92551000e+01  7.76965000e+00  8.69788000e-01
  2.69783000e-01  8.30553000e+00  1.69516000e+00  3.57951000e-01  8.64900000e+02
  1.30531000e+02  2.92551000e+01  7.76965000e+00  8.69788000e-01  2.69783000e-01
  8.30553000e+00  1.69516000e+00  3.57951000e-01  4.34473000e+00  6.60487000e-01
  1.36687000e-01
Contraction coefficients                   R   N=          21
  1.78601010e-02  1.24649764e-01  4.38570969e-01  5.55523813e-01  1.00000000e+00
  1.00000000e+00  2.27970846e-01  8.68797958e-01  1.00000000e+00  1.78601010e-02
  1.24649764e-01  4.38570969e-01  5.55523813e-01  1.00000000e+00  1.00000000e+00
  2.27970846e-01  8.68797958e-01  1.00000000e+00  1.67654352e-01  8.96889788e-01
  1.00000000e+00
Coordinates of each shell                  R   N=          36
 -5.41773217e-02  1.43574534e+00  0.00000000e+00 -5.41773217e-02  1.43574534e+00
  0.00000000e+00 -5.41773217e-02  1.43574534e+00  0.00000000e+00 -5.41773217e-02
  1.43574534e+00  0.00000000e+00 -5.41773217e-02  1.43574534e+00  0.00000000e+00
 -5.41773217e-02 -1.32325480e+00  0.00000000e+00 -5.41773217e-02 -1.32325480e+00
  0.00000000e+00 -5.41773217e-02 -1.32325480e+00  0.00000000e+00 -5.41773217e-02
 -1.32325480e+00  0.00000000e+00 -5.41773217e-02 -1.32325480e+00  0.00000000e+00
  1.71966682e+00 -1.78530659e+00  0.00000000e+00  1.71966682e+00 -1.78530659e+00
  0.00000000e+00
Total Energy                               R     -1.499661016853219e+02
Alpha Orbital Energies                     R   N=          20
 -2.07080891e+01 -2.06563201e+01 -1.50748127e+00 -1.22527983e+00 -7.35862771e-01
 -7.27980591e-01 -6.28995314e-01 -5.43223832e-01 -5.34340694e-01  1.68749650e-01
  2.54928279e-01  9.62346642e-01  1.19373866e+00  1.40846307e+00  1.57590151e+00
  1.68181760e+00  1.76981118e+00  1.90058496e+00  1.96834438e+00  2.01759849e+00
Alpha MO coefficients                      R   N=         400
  9.86175465e-01  4.48813785e-02 -1.66838598e-02  1.52858108e-04 -1.90232878e-03
  0.00000000e+00 -1.37174973e-04  2.88364173e-03  0.00000000e+00  1.04799121e-03
 -2.14369844e-04  2.94096627e-03  7.04126789e-05  2.35072736e-04  0.00000000e+00
 -1.17442253e-04  1.92804138e-03  0.00000000e+00 -4.71166936e-04  1.09929832e-03
  1.01179858e-03  3.10714410e-04 -3.19036595e-03 -4.98683020e-05  2.84237963e-04
  0.00000000e+00  8.58500616e-05  1.84448476e-03  0.00000000e+00 -9.86538513e-01
 -4.49325110e-02  2.06444787e-02 -2.08293307e-03 -1.43896053e-03  0.00000000e+00
  2.44754874e-03  2.12280930e-03  0.00000000e+00 -4.11955019e-04 -4.65628131e-03
  2.24809442e-01 -4.24124804e-01 -3.00132421e-01 -5.30050773e-03  7.54771674e-02
  0.00000000e+00 -8.46882321e-03  6.58563322e-02  0.00000000e+00  1.91786601e-01
 -3.42757700e-01 -2.69917324e-01 -3.70180665e-02 -5.37901949e-02  0.00000000e+00
 -4.35089607e-02 -4.94202058e-02  0.00000000e+00 -7.97402694e-02  1.39381852e-02
  2.21150809e-01 -4.23133748e-01 -3.83927448e-01  4.53436042e-03 -5.48005108e-02
  0.00000000e+00 -1.23290135e-03 -2.16409604e-02  0.00000000e+00 -2.14281990e-01
  3.92077436e-01  3.84835357e-01  7.49942805e-02 -6.44378608e-02  0.00000000e+00
  7.27669295e-02 -3.08267718e-02  0.00000000e+00  1.48507438e-01  1.21682995e-03
  3.91290707e-02 -8.00978135e-02 -9.03244982e-02 -2.26708348e-01 -1.81818495e-01
  0.00000000e+00 -2.38246125e-01 -1.94920946e-01  0.00000000e+00 -5.80147602e-02
  1.04993711e-01  1.54306887e-01 -3.31967616e-01  1.03453211e-01  0.00000000e+00
 -3.44174672e-01  1.00203314e-01  0.00000000e+00 -2.39626718e-01 -1.03215008e-01
  0.00000000e+00  0.00000000e+00  0.00000000e+00  0.00000000e+00  0.00000000e+00
  4.90032779e-01  0.00000000e+00  0.00000000e+00  5.13617019e-01  0.00000000e+00
  0.00000000e+00  0.00000000e+00  0.00000000e+00  0.00000000e+00  2.30845494e-01
  0.00000000e+00  0.00000000e+00  2.57325766e-01  0.00000000e+00  0.00000000e+00
  4.10991985e-02 -8.85485126e-02 -1.03009123e-01  2.92735728e-01 -3.27270320e-01
  0.00000000e+00  3.31961938e-01 -3.65806146e-01  0.00000000e+00  5.25690939e-02
 -1.14911102e-01 -1.24553951e-01  6.78943187e-02  2.34569997e-01  0.00000000e+00
  9.25490796e-02  2.72864441e-01  0.00000000e+00 -5.11811587e-02 -1.89675379e-02
  1.50779879e-03  1.35407930e-03 -3.02508193e-02 -4.14354246e-01 -1.50291670e-01
  0.00000000e+00 -4.70168789e-01 -1.65387206e-01  0.00000000e+00  7.36789241e-02
 -1.47317342e-01 -2.10058318e-01  2.79215119e-01  1.12567100e-01  0.00000000e+00
  3.18086097e-01  1.42596110e-01  0.00000000e+00  1.65951522e-01  6.91797314e-02
  0.00000000e+00  0.00000000e+00  0.00000000e+00  0.00000000e+00  0.00000000e+00
  2.96614365e-01  0.00000000e+00  0.00000000e+00  3.28571551e-01  0.00000000e+00
  0.00000000e+00  0.00000000e+00  0.00000000e+00  0.00000000e+00 -4.87019855e-01
  0.00000000e+00  0.00000000e+00 -5.88173526e-01  0.00000000e+00  0.00000000e+00
  3.47464264e-02 -7.61646550e-02 -1.23842011e-01 -1.49405520e-03  2.16964913e-01
  0.00000000e+00  1.67824010e-02  3.79612288e-01  0.00000000e+00 -1.03520098e-01
  1.52068840e-01  8.67539995e-01  1.80706068e-01  1.80766843e-01  0.00000000e+00
  4.14622336e-01  3.16979134e-01  0.00000000e+00 -8.84648870e-02 -1.18121156e+00
  8.73016144e-02 -2.04982150e-01 -3.29855851e-01 -1.04709430e-02  3.10448428e-01
  0.00000000e+00 -2.09716092e-02  5.77162730e-01  0.00000000e+00 -2.88688522e-02
  9.11686845e-02 -1.48883761e-01 -1.12844236e-01  3.84198914e-01  0.00000000e+00
 -2.61325396e-01  7.59317120e-01  0.00000000e+00  3.91058171e-02  8.09634368e-01
  6.22126573e-02 -2.80446640e-01  2.47763335e-01 -1.11173127e-01  2.29398687e-02
  0.00000000e+00 -4.34766426e-02 -2.88155151e-02  0.00000000e+00 -7.94508664e-02
  2.39786182e-01 -9.87972178e-02  2.92194397e-01 -1.56936386e-02  0.00000000e+00
  4.63258886e-01 -1.99464774e-01  0.00000000e+00 -1.35551105e+00  7.15212352e-01
  3.10730705e-01 -1.56720275e+00  1.67747476e+00  3.19747237e-02 -2.01716927e-01
  0.00000000e+00  7.35869002e-03 -1.60071250e-02  0.00000000e+00  1.14216738e-01
 -4.85578046e-01  2.81851569e-01  1.95228247e-02 -4.96557498e-02  0.00000000e+00
 -3.48714381e-02 -2.40232557e-01  0.00000000e+00  2.11103688e-01 -4.05064129e-01
  6.71760125e-02 -4.37171747e-01  8.35684141e-01 -9.95014306e-02 -1.65966266e-01
  0.00000000e+00  6.92870617e-02 -2.47212142e-01  0.00000000e+00 -3.00358388e-01
  1.65472582e+00 -2.25026384e+00 -2.39518077e-01 -2.34060151e-01  0.00000000e+00
 -7.21191732e-02 -6.07872290e-02  0.00000000e+00  2.94291733e-01  4.00238734e-01
  0.00000000e+00  0.00000000e+00  0.00000000e+00  0.00000000e+00  0.00000000e+00
  8.17368661e-01  0.00000000e+00  0.00000000e+00 -7.42376059e-01  0.00000000e+00
  0.00000000e+00  0.00000000e+00  0.00000000e+00  0.00000000e+00  5.47608884e-01
  0.00000000e+00  0.00000000e+00 -3.91564026e-01  0.00000000e+00  0.00000000e+00
 -3.86706633e-04  2.50035612e-02 -1.20164367e-01 -9.04352151e-01  1.67286489e-02
  0.00000000e+00  8.56855640e-01  8.90080811e-02  0.00000000e+00  7.02989709e-02
 -4.21428531e-01  7.02294384e-01 -3.58994939e-01  4.39074810e-04  0.00000000e+00
  3.13553306e-01  3.87530943e-02  0.00000000e+00 -4.62266768e-02 -3.61517475e-01
  0.00000000e+00  0.00000000e+00  0.00000000e+00  0.00000000e+00  0.00000000e+00
  5.28022653e-01  0.00000000e+00  0.00000000e+00 -6.68429997e-01  0.00000000e+00
  0.00000000e+00  0.00000000e+00  0.00000000e+00  0.00000000e+00 -8.27440744e-01
  0.00000000e+00  0.00000000e+00  8.96769507e-01  0.00000000e+00  0.00000000e+00
  6.02417284e-02 -4.85384017e-01  1.16181730e+00  1.63637221e-01  6.94903283e-01
  0.00000000e+00 -2.38243109e-01 -1.34090771e+00  0.00000000e+00 -5.23413408e-03
  1.71174739e-01 -7.57081291e-01 -4.81439584e-01  4.26340621e-01  0.00000000e+00
  6.10640484e-01 -1.15085026e+00  0.00000000e+00 -8.67031596e-02 -2.55845492e-01
  3.38837968e-02 -3.10273243e-01  8.18333347e-01 -3.14576424e-01  4.37394041e-01
  0.00000000e+00  4.76779942e-01 -9.42592722e-01  0.00000000e+00 -6.56097682e-02
  5.88202354e-01 -1.49767060e+00  7.56761121e-01  1.46772366e-01  0.00000000e+00
 -1.19742357e+00 -5.62937661e-01  0.00000000e+00  6.35034949e-01  2.19472506e-01
  3.25444625e-02 -9.09404690e-02 -3.13945544e-01  4.81279297e-02  5.32759634e-01
  0.00000000e+00 -6.63870237e-02 -1.89503458e-01  0.00000000e+00  6.38467143e-02
 -3.70255762e-01  4.33543225e-01 -4.26562187e-02 -9.03542586e-01  0.00000000e+00
  8.70517092e-02  9.40857830e-01  0.00000000e+00 -7.23732004e-02  2.33186824e-02
Total SCF Density                          R   N=         210
  2.14596399e+00 -2.87608656e-01  7.03961827e-01 -3.59796930e-01  6.15494690e-01
  5.65189420e-01  3.16683011e-03 -1.14236630e-02  9.88778160e-03  6.00944046e-01
 -4.11758931e-02  7.79282092e-02  1.22959548e-01  4.27886771e-03  2.54624225e-01
  0.00000000e+00  0.00000000e+00  0.00000000e+00  0.00000000e+00  0.00000000e+00
  3.35417905e-01  1.07512082e-03 -9.75204645e-03  1.39989838e-02  6.90260118e-01
  8.87070004e-05  0.00000000e+00  7.93991103e-01 -2.87556339e-02  7.29748572e-02
  1.19215578e-01 -1.70122029e-03  2.73465723e-01  0.00000000e+00 -7.66464843e-03
  2.96349769e-01  0.00000000e+00  0.00000000e+00  0.00000000e+00  0.00000000e+00
  0.00000000e+00  3.59522160e-01  0.00000000e+00  0.00000000e+00  3.86492493e-01
 -8.35996665e-03  1.86448980e-02  4.96915647e-02 -6.31490762e-03  2.55591193e-02
  0.00000000e+00 -8.12665049e-03  6.30432298e-03  0.00000000e+00  2.13436630e+00
  1.74773902e-02 -3.97126500e-02 -7.95491942e-02  1.17920571e-02 -3.46382376e-02
  0.00000000e+00  1.46179597e-02 -4.52350267e-03  0.00000000e+00 -2.55901736e-01
  6.37889451e-01  5.39170606e-02 -9.64004762e-02 -1.23446714e-01  2.90778127e-02
 -3.24087844e-02  0.00000000e+00  3.65538274e-02 -4.88310275e-03  0.00000000e+00
 -3.65568956e-01  5.96215718e-01  5.86173367e-01 -7.08934649e-04  5.58702617e-03
 -1.59556709e-02 -4.04415611e-02 -1.35169508e-02  0.00000000e+00 -6.05647860e-02
 -6.40269936e-03  0.00000000e+00  4.16160528e-02 -7.71855426e-02 -1.48127868e-01
  4.03268154e-01 -1.75597151e-02  2.68025586e-02 -2.96564963e-02 -9.47435759e-03
 -2.20902464e-01  0.00000000e+00 -6.89683020e-03 -2.41902276e-01  0.00000000e+00
  3.35111681e-02 -6.96211912e-02 -6.93512446e-02  3.48990202e-02  2.53039555e-01
  0.00000000e+00  0.00000000e+00  0.00000000e+00  0.00000000e+00  0.00000000e+00
  1.16299909e-02  0.00000000e+00  0.00000000e+00  1.95550347e-02  0.00000000e+00
  0.00000000e+00  0.00000000e+00  0.00000000e+00  0.00000000e+00  5.43158800e-01
 -3.01715881e-03  9.14775239e-03 -1.83536838e-02 -5.18426774e-02 -3.27250011e-02
  0.00000000e+00 -7.43148076e-02 -2.70088651e-02  0.00000000e+00  3.98526723e-02
 -9.25441816e-02 -1.68319053e-01  4.36103429e-01  5.74762829e-02  0.00000000e+00
  4.73400877e-01  5.67341377e-03 -1.13022113e-02 -7.46301634e-02 -1.46059519e-02
 -2.60669867e-01  0.00000000e+00 -1.34804659e-02 -2.83123020e-01  0.00000000e+00
  2.52572378e-02 -7.04884350e-02 -7.16848546e-02  6.76116331e-02  2.92776182e-01
  0.00000000e+00  9.55989694e-02  3.43735151e-01  0.00000000e+00  0.00000000e+00
  0.00000000e+00  0.00000000e+00  0.00000000e+00  4.43991501e-03  0.00000000e+00
  0.00000000e+00  1.38883770e-02  0.00000000e+00  0.00000000e+00  0.00000000e+00
  0.00000000e+00  0.00000000e+00  6.56389523e-01  0.00000000e+00  0.00000000e+00
  7.93799825e-01  6.53749831e-03 -1.00715666e-02 -1.98856489e-02 -5.73846384e-02
  4.15923349e-02  0.00000000e+00 -7.71128127e-02  5.84614577e-02  0.00000000e+00
 -4.50530987e-02  8.15727183e-02  2.24438115e-02  2.72087398e-01 -5.31589261e-02
  0.00000000e+00  2.87878061e-01 -3.93806554e-02  0.00000000e+00  2.30636129e-01
 -3.34415880e-03  1.27698979e-02  1.70104975e-02 -1.82485141e-02  3.46147136e-02
  0.00000000e+00 -2.50438695e-02  3.78706750e-02  0.00000000e+00  3.47096400e-02
 -4.64792589e-02 -6.39639550e-02  1.00172249e-01 -2.62782436e-02  0.00000000e+00
  1.05888892e-01 -2.50181602e-02  0.00000000e+00  7.18550701e-02  3.24386665e-02
Total CC Density                           R   N=         210
  2.14417273e+00 -2.84831464e-01  7.15252376e-01 -3.58129050e-01  5.78529178e-01
  6.48597826e-01  2.90125322e-03 -1.05563319e-02  8.95852674e-03  5.94524857e-01
 -3.66209441e-02  5.55321312e-02  1.49585158e-01 -2.61908265e-03  2.80619021e-01
  0.00000000e+00  0.00000000e+00  0.00000000e+00  0.00000000e+00  0.00000000e+00
  3.35152318e-01  1.22007424e-03 -1.04639084e-02  1.73052885e-02  6.75366631e-01
  4.74949263e-03  0.00000000e+00  8.07015600e-01 -3.04009101e-02  9.07316707e-02
  8.10438815e-02 -4.04606038e-03  1.73266760e-01  0.00000000e+00 -6.29259079e-03
  3.05106151e-01  0.00000000e+00  0.00000000e+00  0.00000000e+00  0.00000000e+00
  0.00000000e+00  3.53293288e-01  0.00000000e+00  0.00000000e+00  4.00905674e-01
 -8.19846336e-03  1.72736102e-02  5.03960548e-02 -6.50855649e-03  2.62930949e-02
  0.00000000e+00 -8.51770916e-03  8.14997926e-03  0.00000000e+00  2.13561700e+00
  1.73929432e-02 -4.09191875e-02 -6.89172152e-02  1.35304421e-02 -3.42973655e-02
  0.00000000e+00  1.64961669e-02 -1.75679223e-02  0.00000000e+00 -2.62806917e-01
  6.75171758e-01  5.35582761e-02 -7.59823801e-02 -1.76727139e-01  2.31557487e-02
 -6.27396029e-02  0.00000000e+00  3.89616504e-02  3.53458461e-02  0.00000000e+00
 -3.61675836e-01  5.57276574e-01  6.88411921e-01 -5.29790030e-04  2.07762169e-03
 -5.86661417e-03 -3.83584700e-02  3.34088102e-03  0.00000000e+00 -6.02026041e-02
 -6.89132837e-03  0.00000000e+00  4.00707517e-02 -7.25314636e-02 -1.50817584e-01
  4.17250927e-01 -1.36984478e-02  2.78322673e-02 -6.99515875e-02 -6.75102694e-03
 -2.37680415e-01  0.00000000e+00 -1.74293971e-02 -1.94897615e-01  0.00000000e+00
  3.04582570e-02 -6.68933028e-02 -4.61118050e-02  2.57349857e-02  3.12712255e-01
  0.00000000e+00  0.00000000e+00  0.00000000e+00  0.00000000e+00  0.00000000e+00
  1.64261311e-02  0.00000000e+00  0.00000000e+00  5.96169333e-03  0.00000000e+00
  0.00000000e+00  0.00000000e+00  0.00000000e+00  0.00000000e+00  5.44214496e-01
 -2.18396391e-03  1.05106130e-02 -2.79793200e-02 -4.65187308e-02 -3.99353953e-02
  0.00000000e+00 -7.11359321e-02 -8.68614701e-03  0.00000000e+00  3.50780044e-02
 -8.24103716e-02 -1.48444268e-01  4.21048403e-01  6.90290984e-02  0.00000000e+00
  4.67348246e-01  1.29414004e-02 -2.40890066e-02 -1.07180566e-01 -1.14986411e-02
 -2.52282340e-01  0.00000000e+00 -1.96284240e-02 -2.65329655e-01  0.00000000e+00
  2.65578162e-02 -7.68214036e-02 -6.50214024e-02  5.39069622e-02  3.31542838e-01
  0.00000000e+00  9.19995736e-02  3.98647386e-01  0.00000000e+00  0.00000000e+00
  0.00000000e+00  0.00000000e+00  0.00000000e+00  1.33161054e-02  0.00000000e+00
  0.00000000e+00  5.79451506e-05  0.00000000e+00  0.00000000e+00  0.00000000e+00
  0.00000000e+00  0.00000000e+00  6.26314898e-01  0.00000000e+00  0.00000000e+00
  7.72541539e-01  8.60062337e-03 -1.81048465e-02 -5.32894569e-03 -5.71230044e-02
  4.86673835e-02  0.00000000e+00 -7.85319651e-02  3.76625975e-02  0.00000000e+00
 -4.01728085e-02  7.66889661e-02 -6.34021512e-03  2.71938340e-01 -5.92910762e-02
  0.00000000e+00  2.71331243e-01 -4.48986640e-02  0.00000000e+00  2.54015193e-01
 -6.82890894e-03  1.42840928e-02  2.58666029e-02 -1.12714770e-02  1.27107670e-02
  0.00000000e+00 -3.53661943e-02  8.31789193e-03  0.00000000e+00  3.99277237e-02
 -5.09360018e-02 -1.19215270e-01  1.01287756e-01 -6.85194195e-03  0.00000000e+00
  9.35624474e-02  1.25059294e-03  0.00000000e+00  6.99355346e-02  1.00418132e-01
Beta Orbital Energies                      R   N=          20
 -2.06614096e+01 -2.06590626e+01 -1.45693575e+00 -1.11461107e+00 -7.14567989e-01
 -6.07503635e-01 -5.71206958e-01 -5.06577283e-01  1.24321531e-01  1.79035144e-01
  2.80412092e-01  9.61904429e-01  1.24384700e+00  1.40844984e+00  1.69018904e+00
  1.70785232e+00  1.88903330e+00  1.91336361e+00  1.96499401e+00  2.03713301e+00
Beta MO coefficients                       R   N=         400
  3.98733925e-02  1.32931651e-03  2.74458384e-03  4.93524857e-05 -3.26631532e-04
  0.00000000e+00 -9.29388338e-05 -1.90423613e-03  0.00000000e+00  9.85559711e-01
  4.54476734e-02 -2.08130836e-02  2.10400143e-03  1.49886683e-03  0.00000000e+00
 -2.45244631e-03 -2.18278987e-03  0.00000000e+00  3.78028118e-04  4.73465821e-03
  9.86581409e-01  4.12883421e-02 -1.59755876e-02  1.56951760e-04 -1.83582795e-03
  0.00000000e+00 -1.30445362e-04  2.90136047e-03  0.00000000e+00 -3.98043492e-02
 -2.09293027e-03  3.77858896e-03 -3.08189149e-05  1.52643862e-04  0.00000000e+00
  4.76622962e-06  2.01658640e-03  0.00000000e+00 -4.81708572e-04  8.35131289e-04
  1.36446682e-01 -2.44575634e-01 -1.74638384e-01 -7.56536811e-03  6.66097024e-02
  0.00000000e+00 -8.28753695e-03  5.31550625e-02  0.00000000e+00  2.53243910e-01
 -4.57150959e-01 -3.85502009e-01 -5.92044084e-02 -5.65398289e-02  0.00000000e+00
 -6.46206581e-02 -6.05455386e-02  0.00000000e+00 -1.11546897e-01  1.57960205e-02
  2.60640069e-01 -4.80567219e-01 -4.54688239e-01 -2.09725841e-04 -1.65578398e-02
  0.00000000e+00 -6.47168634e-03 -1.71638046e-03  0.00000000e+00 -1.42750812e-01
  2.68317723e-01  2.63360459e-01  7.24479786e-02 -1.21972103e-01  0.00000000e+00
  6.70620150e-02 -1.05795484e-01  0.00000000e+00  1.33227104e-01  8.08101005e-03
  5.02664396e-02 -9.94475602e-02 -1.12475701e-01 -1.87543875e-01 -9.68500117e-02
  0.00000000e+00 -2.06083267e-01 -1.09497076e-01  0.00000000e+00 -8.18883766e-02
  1.53309658e-01  2.18881695e-01 -3.71620136e-01  7.40856421e-02  0.00000000e+00
 -3.91336199e-01  6.99202869e-02  0.00000000e+00 -2.48379864e-01 -1.12222663e-01
  8.18982578e-02 -1.62353102e-01 -2.34561832e-01  1.68522891e-01 -2.58335619e-01
  0.00000000e+00  2.00062269e-01 -2.75488029e-01  0.00000000e+00  2.88800609e-02
 -6.82568670e-02 -4.03372932e-02  8.88806126e-02  3.61323075e-01  0.00000000e+00
  1.17478132e-01  4.37948089e-01  0.00000000e+00 -4.96914295e-02 -3.67972164e-02
  0.00000000e+00  0.00000000e+00  0.00000000e+00  0.00000000e+00  0.00000000e+00
  8.54733794e-02  0.00000000e+00  0.00000000e+00  1.21370451e-01  0.00000000e+00
  0.00000000e+00  0.00000000e+00  0.00000000e+00  0.00000000e+00  5.02673670e-01
  0.00000000e+00  0.00000000e+00  6.17766282e-01  0.00000000e+00  0.00000000e+00
  5.80551190e-03 -6.93594690e-03 -5.06347749e-02 -4.78001116e-01 -4.83477440e-02
  0.00000000e+00 -5.68588942e-01 -4.05919805e-02  0.00000000e+00  4.34501842e-02
 -8.67072962e-02 -1.15679830e-01  2.20763501e-01  1.16084199e-01  0.00000000e+00
  2.49764339e-01  1.54758749e-01  0.00000000e+00  1.42436104e-01  4.62081180e-02
  0.00000000e+00  0.00000000e+00  0.00000000e+00  0.00000000e+00  0.00000000e+00
  4.29556350e-01  0.00000000e+00  0.00000000e+00  7.23774507e-01  0.00000000e+00
  0.00000000e+00  0.00000000e+00  0.00000000e+00  0.00000000e+00 -1.66170382e-01
  0.00000000e+00  0.00000000e+00 -2.15028016e-01  0.00000000e+00  0.00000000e+00
  1.51741247e-02 -3.01653533e-02 -4.04203592e-02  8.03596858e-03  1.76465249e-01
  0.00000000e+00  3.24587652e-02  3.09827536e-01  0.00000000e+00 -9.94266774e-02
  1.45467789e-01  8.80049034e-01  1.89611019e-01  6.93838271e-02  0.00000000e+00
  4.37753476e-01  1.04922057e-01  0.00000000e+00 -9.26625757e-02 -1.31344256e+00
  9.09073290e-02 -1.98004731e-01 -3.51816805e-01  3.80892164e-03  3.93572656e-01
  0.00000000e+00  3.55042148e-03  7.54426956e-01  0.00000000e+00 -5.76686390e-02
  1.47711601e-01  4.41407101e-02 -9.30913618e-02  3.58955596e-01  0.00000000e+00
 -2.12938419e-01  6.97544408e-01  0.00000000e+00  3.61039349e-02  5.63789655e-01
  5.30913129e-02 -2.29250612e-01  1.86076900e-01 -1.08775932e-01  3.00521628e-02
  0.00000000e+00 -5.10800050e-02 -2.09373046e-02  0.00000000e+00 -8.19335699e-02
  2.52826687e-01 -1.08820838e-01  2.93111952e-01 -8.24628008e-03  0.00000000e+00
  4.58741584e-01 -1.93691280e-01  0.00000000e+00 -1.36241651e+00  7.34532910e-01
  3.12247988e-01 -1.54587501e+00  1.58460931e+00  3.23358844e-02 -1.85550243e-01
  0.00000000e+00  4.98209487e-03  4.39641252e-03  0.00000000e+00  1.37872070e-01
 -6.25548882e-01  4.84977628e-01  4.69801755e-02 -3.23163282e-02  0.00000000e+00
 -9.80440382e-03 -2.19803174e-01  0.00000000e+00  1.37846507e-01 -4.11658649e-01
  9.66171570e-02 -5.80547676e-01  9.70082592e-01 -8.65231664e-02 -1.69062105e-01
  0.00000000e+00  5.47710615e-02 -2.64601974e-01  0.00000000e+00 -2.88059864e-01
  1.59923830e+00 -2.21601421e+00 -2.33455405e-01 -2.59588374e-01  0.00000000e+00
 -6.98968489e-02 -5.01735990e-02  0.00000000e+00  2.99866430e-01  3.76042996e-01
  0.00000000e+00  0.00000000e+00  0.00000000e+00  0.00000000e+00  0.00000000e+00
  4.77916194e-01  0.00000000e+00  0.00000000e+00 -2.58800749e-01  0.00000000e+00
  0.00000000e+00  0.00000000e+00  0.00000000e+00  0.00000000e+00  8.89388262e-01
  0.00000000e+00  0.00000000e+00 -7.89384683e-01  0.00000000e+00  0.00000000e+00
  1.89769890e-04  2.26602117e-02 -1.22142181e-01 -8.93989651e-01  3.12005013e-02
  0.00000000e+00  8.19257039e-01  7.76531936e-02  0.00000000e+00  6.93254211e-02
 -4.23456468e-01  7.18888806e-01 -4.04466053e-01 -1.03642599e-02  0.00000000e+00
  3.85175348e-01  4.56777505e-02  0.00000000e+00 -8.08458484e-02 -3.66040265e-01
  0.00000000e+00  0.00000000e+00  0.00000000e+00  0.00000000e+00  0.00000000e+00
  9.24544975e-01  0.00000000e+00  0.00000000e+00 -8.74142111e-01  0.00000000e+00
  0.00000000e+00  0.00000000e+00  0.00000000e+00  0.00000000e+00 -4.51338854e-01
  0.00000000e+00  0.00000000e+00  5.64519421e-01  0.00000000e+00  0.00000000e+00
  4.11830942e-02 -3.91366846e-01  1.12801860e+00  1.87185391e-01  3.93618550e-01
  0.00000000e+00 -2.58652106e-01 -1.06299023e+00  0.00000000e+00 -2.56126291e-02
  2.61937732e-01 -7.50129197e-01 -4.94149854e-01  7.13770972e-01  0.00000000e+00
  6.33509168e-01 -1.37463634e+00  0.00000000e+00 -1.06971569e-01 -2.56545317e-01
  9.84647786e-03 -1.94250054e-01  7.76160788e-01 -3.60887562e-01  6.51163328e-02
  0.00000000e+00  5.12870087e-01 -6.18364244e-01  0.00000000e+00 -8.53117974e-02
  6.70333592e-01 -1.45010970e+00  7.10449063e-01  4.90763216e-01  0.00000000e+00
 -1.14315605e+00 -8.33980823e-01  0.00000000e+00  6.07331495e-01  1.92920456e-01
  6.42124970e-02 -3.87369957e-01  5.27421716e-01 -3.27709969e-02  9.21256067e-01
  0.00000000e+00  6.72917093e-02 -1.06179119e+00  0.00000000e+00  2.20734649e-02
  1.36862641e-02 -5.76225712e-01  1.42141416e-01 -4.71956285e-01  0.00000000e+00
 -2.49637870e-01  7.65989226e-02  0.00000000e+00  1.88759709e-01  2.46236639e-02
Spin SCF Density                           R   N=         210
  4.46108887e-03 -1.52589175e-02  4.64317434e-02  6.50007574e-03 -4.87145888e-03
 -5.02838379e-02  1.82801340e-03 -4.55085300e-03 -4.47774120e-03  1.67139617e-02
  5.53892104e-03 -9.06826310e-03 -1.67634566e-02  9.80351138e-03  8.82857994e-02
  0.00000000e+00  0.00000000e+00  0.00000000e+00  0.00000000e+00  0.00000000e+00
  3.20806508e-01  1.52563900e-03 -3.92994907e-03 -4.87003883e-03  1.83030684e-03
  9.44601536e-03  0.00000000e+00 -1.78072991e-02  8.66376750e-03 -1.47026650e-02
 -2.16564807e-02  1.20766545e-02  9.88656184e-02  0.00000000e+00  1.21327756e-02
  1.11606922e-01  0.00000000e+00  0.00000000e+00  0.00000000e+00  0.00000000e+00
  0.00000000e+00  3.38774275e-01  0.00000000e+00  0.00000000e+00  3.57030921e-01
 -1.12622796e-04 -3.23501888e-04  1.17544529e-03 -1.53855940e-03 -9.14633880e-03
  0.00000000e+00 -1.50066300e-03 -1.56170432e-02  0.00000000e+00  6.65728387e-04
 -3.58123640e-04  1.73910134e-03 -1.85041726e-03  2.60163918e-03  2.12161897e-02
  0.00000000e+00  2.42022528e-03  3.41093519e-02  0.00000000e+00 -9.18625150e-04
  4.24895612e-04  1.98289201e-03 -3.26912140e-03  2.34895019e-04  8.46139963e-03
  3.80397543e-02  0.00000000e+00  8.37709875e-03  5.32201071e-02  0.00000000e+00
 -5.57092320e-03  1.16490423e-02  2.35011474e-02 -2.18669603e-03  4.26537558e-03
  9.69170643e-03  3.96226411e-04 -7.94328781e-03  0.00000000e+00  1.70667354e-03
 -1.43408746e-02  0.00000000e+00  2.95576467e-03 -6.02282400e-03 -1.09188906e-02
 -3.72406909e-03 -6.94881756e-03  1.55672758e-02  3.76002119e-02  6.60174800e-03
 -5.14746129e-03  0.00000000e+00  8.55738358e-03 -1.15765369e-02  0.00000000e+00
  5.55805684e-03 -9.25654518e-03 -2.50623745e-02 -1.45489355e-02 -8.21500534e-02
  0.00000000e+00  0.00000000e+00  0.00000000e+00  0.00000000e+00  0.00000000e+00
 -7.43004438e-02  0.00000000e+00  0.00000000e+00 -1.02464425e-01  0.00000000e+00
  0.00000000e+00  0.00000000e+00  0.00000000e+00  0.00000000e+00  3.77971631e-02
 -2.95490981e-03  5.77593641e-03  1.24477216e-02 -3.97723098e-04 -1.28502303e-02
  0.00000000e+00  1.20656839e-03 -2.06140376e-02  0.00000000e+00  3.98107043e-03
 -8.05049431e-03 -1.49913748e-02 -3.27250053e-03 -1.83619779e-02  0.00000000e+00
 -2.61215297e-03 -7.02057539e-03  1.54955213e-02  4.49440036e-02  1.10005529e-02
 -1.31832256e-03  0.00000000e+00  1.37200097e-02 -7.89462779e-03  0.00000000e+00
  2.88790077e-03 -3.68044032e-03 -2.22194439e-02 -1.84316274e-02 -1.02644325e-01
  0.00000000e+00 -2.35274261e-02 -1.27274695e-01  0.00000000e+00  0.00000000e+00
  0.00000000e+00  0.00000000e+00  0.00000000e+00 -1.01165229e-01  0.00000000e+00
  0.00000000e+00 -1.36068767e-01  0.00000000e+00  0.00000000e+00  0.00000000e+00
  0.00000000e+00  0.00000000e+00  3.53198350e-02  0.00000000e+00  0.00000000e+00
  3.05294674e-02 -9.45970614e-05 -1.07741881e-04 -2.47064429e-03  7.36847080e-04
  8.50541215e-04  0.00000000e+00  2.24672186e-03  5.72595398e-04  0.00000000e+00
 -1.48930091e-03  2.12941346e-03  3.96332391e-03  9.11478621e-04  6.36930422e-03
  0.00000000e+00  1.71882592e-03  9.47690476e-03  0.00000000e+00  1.35135894e-03
  2.88011788e-03 -5.44590199e-03 -7.95056002e-03 -3.52278404e-03 -3.49733466e-03
  0.00000000e+00 -3.66046272e-03 -4.86681005e-03  0.00000000e+00 -5.19357626e-04
  5.99126477e-04  9.98245190e-04  3.58244324e-03  9.95631041e-03  0.00000000e+00
  4.59962359e-03  1.22433686e-02  0.00000000e+00  6.54949572e-04 -4.03498938e-04
Spin CC Density                            R   N=         210
  2.87527275e-03 -7.42375166e-03  1.70198362e-02 -4.18560177e-03  1.95059600e-02
 -3.41809171e-02  4.90161166e-04 -1.16312005e-03 -7.31092590e-04  1.47990650e-02
  3.02545234e-03  6.52711182e-03 -4.02694394e-02  8.84542056e-03  3.79820955e-03
  0.00000000e+00  0.00000000e+00  0.00000000e+00  0.00000000e+00  0.00000000e+00
  3.07603155e-01  2.15035502e-04  1.58302125e-04 -5.26141491e-03 -2.52644513e-03
 -2.61796554e-03  0.00000000e+00 -1.12002146e-02  1.48092863e-02 -4.57844555e-02
  1.00103615e-02  4.75585673e-03  1.02218204e-01  0.00000000e+00  1.70309670e-03
 -2.14678888e-02  0.00000000e+00  0.00000000e+00  0.00000000e+00  0.00000000e+00
  0.00000000e+00  3.28316651e-01  0.00000000e+00  0.00000000e+00  3.65580548e-01
 -1.44373790e-03  3.18056626e-03  3.79807786e-03 -2.01362386e-04 -3.67357499e-03
  0.00000000e+00  4.48623410e-05 -7.12762777e-03  0.00000000e+00  1.16329211e-04
  2.01570249e-03 -1.18533700e-03 -1.74871638e-02 -1.55822236e-03  1.49418320e-03
  0.00000000e+00 -1.83878376e-03  1.66829698e-02  0.00000000e+00  7.67849939e-04
 -5.70295089e-03  8.22701641e-03 -3.19939212e-02  2.67298849e-02  8.83880677e-03
  4.81686399e-02  0.00000000e+00  8.07585666e-04 -1.31189188e-02  0.00000000e+00
 -4.14696410e-03  1.72073435e-02 -4.04946008e-02 -5.80420174e-04  4.55359703e-03
 -6.82665845e-03 -1.99108145e-03 -1.91871790e-02  0.00000000e+00 -2.54558965e-04
 -3.72289342e-03  0.00000000e+00 -9.34739157e-04  4.26542774e-03 -4.89300843e-03
  1.02712332e-02  6.22380040e-04 -5.24110592e-03  2.12608139e-02 -1.86147672e-03
  1.40001741e-02  0.00000000e+00  1.12209501e-02 -3.15059760e-02  0.00000000e+00
 -1.75986306e-03  9.56674143e-03 -1.85938062e-02  3.74350809e-03 -2.42911565e-02
  0.00000000e+00  0.00000000e+00  0.00000000e+00  0.00000000e+00  0.00000000e+00
 -8.03553450e-02  0.00000000e+00  0.00000000e+00 -9.24952409e-02  0.00000000e+00
  0.00000000e+00  0.00000000e+00  0.00000000e+00  0.00000000e+00  5.86836600e-02