Generated by Psi4
     FORCE                        DF-MP2                       PCSEG-0
Number of atoms                            I                2
Charge                                     I                0
Multiplicity                               I                3
Number of electrons                        I               16
Number of alpha electrons                  I                9
Number of beta electrons                   I                7
Number of basis functions                  I               18
Number of independent functions            I               18
Atomic numbers                             I   N=           2
           8           8
Nuclear charges                            R   N=           2
  8.00000000e+00  8.00000000e+00
Current cartesian coordinates              R   N=           6
  0.00000000e+00  0.00000000e+00 -1.03934937e+00  0.00000000e+00  0.00000000e+00
  1.03934937e+00
Integer atomic weights                     I   N=           2
          16          16
Real atomic weights                        R   N=           2
  1.59949146e+01  1.59949146e+01
Number of primitive shells                 I               18
Number of contracted shells                I               10
Pure/Cartesian d shells                    I                0
Pure/Cartesian f shells                    I                0
Highest angular momentum                   I                1
Largest degree of contraction              I                4
Shell types                                I   N=          10
           0           0           0           1           1           0
           0           0           1           1
Number of primitives per shell             I   N=          10
           4           1           1           2           1           4
           1           1           2           1
Shell to atom map                          I   N=          10
           1           1           1           1           1           2
           2           2           2           2
Primitive exponents                        R   N=          18
  8.64900000e+02  1.30531000e+02  2.92551000e+01  7.76965000e+00  8.69788000e-01
  2.69783000e-01  8.30553000e+00  1.69516000e+00  3.57951000e-01  8.64900000e+02
  1.30531000e+02  2.92551000e+01  7.76965000e+00  8.69788000e-01  2.69783000e-01
  8.30553000e+00  1.69516000e+00  3.57951000e-01
Contraction coefficients                   R   N=          18
  1.78601010e-02  1.24649764e-01  4.38570969e-01  5.55523813e-01  1.00000000e+00
  1.00000000e+00  2.27970846e-01  8.68797958e-01  1.00000000e+00  1.78601010e-02
  1.24649764e-01  4.38570969e-01  5.55523813e-01  1.00000000e+00  1.00000000e+00
  2.27970846e-01  8.68797958e-01  1.00000000e+00
Coordinates of each shell                  R   N=          30
  0.00000000e+00  0.00000000e+00 -1.03934937e+00  0.00000000e+00  0.00000000e+00
 -1.03934937e+00  0.00000000e+00  0.00000000e+00 -1.03934937e+00  0.00000000e+00
  0.00000000e+00 -1.03934937e+00  0.00000000e+00  0.00000000e+00 -1.03934937e+00
  0.00000000e+00  0.00000000e+00  1.03934937e+00  0.00000000e+00  0.00000000e+00
  1.03934937e+00  0.00000000e+00  0.00000000e+00  1.03934937e+00  0.00000000e+00
  0.00000000e+00  1.03934937e+00  0.00000000e+00  0.00000000e+00  1.03934937e+00
Total Energy                               R     -1.493330661243826e+02
Alpha Orbital Energies                     R   N=          18
 -2.07554374e+01 -2.07549085e+01 -1.87464192e+00 -1.15399164e+00 -9.05563017e-01
 -9.05563017e-01 -7.83298814e-01 -5.26637872e-01 -5.26637872e-01  6.29072290e-01
  1.04350307e+00  1.22581710e+00  1.56667510e+00  1.56667510e+00  1.67870374e+00
  1.67870374e+00  1.74190630e+00  1.88432466e+00
Alpha MO coefficients                      R   N=         324
  6.97345313e-01  3.12515354e-02 -8.76394362e-03  0.00000000e+00  0.00000000e+00
  1.39394912e-03  0.00000000e+00  0.00000000e+00 -1.34932758e-03  6.97345313e-01
  3.12515354e-02 -8.76394362e-03  0.00000000e+00  0.00000000e+00 -1.39394912e-03
  0.00000000e+00  0.00000000e+00  1.34932758e-03  6.96856824e-01  3.33678143e-02
 -1.75891706e-02  0.00000000e+00  0.00000000e+00  2.99318341e-03  0.00000000e+00
  0.00000000e+00 -3.98212508e-03 -6.96856824e-01 -3.33678143e-02  1.75891706e-02
  0.00000000e+00  0.00000000e+00  2.99318341e-03  0.00000000e+00  0.00000000e+00
 -3.98212508e-03  2.16230207e-01 -4.13557666e-01 -1.72785127e-01  0.00000000e+00
  0.00000000e+00 -1.67718772e-01  0.00000000e+00  0.00000000e+00 -8.46078104e-02
  2.16230207e-01 -4.13557666e-01 -1.72785127e-01  0.00000000e+00  0.00000000e+00
  1.67718772e-01  0.00000000e+00  0.00000000e+00  8.46078104e-02  2.25318323e-01
 -4.40707940e-01 -5.01732449e-01  0.00000000e+00  0.00000000e+00  1.14395195e-01
  0.00000000e+00  0.00000000e+00  2.10349566e-02 -2.25318323e-01  4.40707940e-01
  5.01732449e-01  0.00000000e+00  0.00000000e+00  1.14395195e-01  0.00000000e+00
  0.00000000e+00  2.10349566e-02  0.00000000e+00  0.00000000e+00  0.00000000e+00
  3.88105436e-01  0.00000000e+00  0.00000000e+00  3.55629737e-01  0.00000000e+00
  0.00000000e+00  0.00000000e+00  0.00000000e+00  0.00000000e+00  3.88105436e-01
  0.00000000e+00  0.00000000e+00  3.55629737e-01  0.00000000e+00  0.00000000e+00
  0.00000000e+00  0.00000000e+00  0.00000000e+00  0.00000000e+00  3.88105436e-01
  0.00000000e+00  0.00000000e+00  3.55629737e-01  0.00000000e+00  0.00000000e+00
  0.00000000e+00  0.00000000e+00  0.00000000e+00  3.88105436e-01  0.00000000e+00
  0.00000000e+00  3.55629737e-01  0.00000000e+00  7.11694211e-02 -1.19828605e-01
 -2.77716604e-01  0.00000000e+00  0.00000000e+00  3.92012390e-01  0.00000000e+00
  0.00000000e+00  3.26097499e-01  7.11694211e-02 -1.19828605e-01 -2.77716604e-01
  0.00000000e+00  0.00000000e+00 -3.92012390e-01  0.00000000e+00  0.00000000e+00
 -3.26097499e-01  0.00000000e+00  0.00000000e+00  0.00000000e+00  4.43178996e-01
  0.00000000e+00  0.00000000e+00  5.30358274e-01  0.00000000e+00  0.00000000e+00
  0.00000000e+00  0.00000000e+00  0.00000000e+00 -4.43178996e-01  0.00000000e+00
  0.00000000e+00 -5.30358274e-01  0.00000000e+00  0.00000000e+00  0.00000000e+00
  0.00000000e+00  0.00000000e+00  0.00000000e+00  4.43178996e-01  0.00000000e+00
  0.00000000e+00  5.30358274e-01  0.00000000e+00  0.00000000e+00  0.00000000e+00
  0.00000000e+00  0.00000000e+00 -4.43178996e-01  0.00000000e+00  0.00000000e+00
 -5.30358274e-01  0.00000000e+00  1.39292489e-01 -3.55133391e-01 -1.49699163e+00
  0.00000000e+00  0.00000000e+00 -4.01506452e-01  0.00000000e+00  0.00000000e+00
 -1.44163738e+00 -1.39292489e-01  3.55133391e-01  1.49699163e+00  0.00000000e+00
  0.00000000e+00 -4.01506452e-01  0.00000000e+00  0.00000000e+00 -1.44163738e+00
  2.31236058e-01 -1.19217127e+00  9.70976354e-01  0.00000000e+00  0.00000000e+00
  4.79108124e-02  0.00000000e+00  0.00000000e+00  7.97319735e-02  2.31236058e-01
 -1.19217127e+00  9.70976354e-01  0.00000000e+00  0.00000000e+00 -4.79108124e-02
  0.00000000e+00  0.00000000e+00 -7.97319735e-02  2.13824931e-01 -1.17933089e+00
  2.71749006e+00  0.00000000e+00  0.00000000e+00  1.65036355e-01  0.00000000e+00
  0.00000000e+00  9.04939658e-01 -2.13824931e-01  1.17933089e+00 -2.71749006e+00
  0.00000000e+00  0.00000000e+00  1.65036355e-01  0.00000000e+00  0.00000000e+00
  9.04939658e-01  0.00000000e+00  0.00000000e+00  0.00000000e+00  6.97100824e-01
  0.00000000e+00  0.00000000e+00 -5.63678348e-01  0.00000000e+00  0.00000000e+00
  0.00000000e+00  0.00000000e+00  0.00000000e+00  6.97100824e-01  0.00000000e+00
  0.00000000e+00 -5.63678348e-01  0.00000000e+00  0.00000000e+00  0.00000000e+00
  0.00000000e+00  0.00000000e+00  0.00000000e+00  6.97100824e-01  0.00000000e+00
  0.00000000e+00 -5.63678348e-01  0.00000000e+00  0.00000000e+00  0.00000000e+00
  0.00000000e+00  0.00000000e+00  6.97100824e-01  0.00000000e+00  0.00000000e+00
 -5.63678348e-01  0.00000000e+00  0.00000000e+00  0.00000000e+00  0.00000000e+00
  6.69471174e-01  0.00000000e+00  0.00000000e+00 -9.44429471e-01  0.00000000e+00
  0.00000000e+00  0.00000000e+00  0.00000000e+00  0.00000000e+00 -6.69471174e-01
  0.00000000e+00  0.00000000e+00  9.44429471e-01  0.00000000e+00  0.00000000e+00
  0.00000000e+00  0.00000000e+00  0.00000000e+00  0.00000000e+00  6.69471174e-01
  0.00000000e+00  0.00000000e+00 -9.44429471e-01  0.00000000e+00  0.00000000e+00
  0.00000000e+00  0.00000000e+00  0.00000000e+00 -6.69471174e-01  0.00000000e+00
  0.00000000e+00  9.44429471e-01  0.00000000e+00  1.51231179e-03  1.69379752e-01
  7.19727954e-02  0.00000000e+00  0.00000000e+00  6.87916099e-01  0.00000000e+00
  0.00000000e+00 -7.72971727e-01  1.51231179e-03  1.69379752e-01  7.19727954e-02
  0.00000000e+00  0.00000000e+00 -6.87916099e-01  0.00000000e+00  0.00000000e+00
  7.72971727e-01  4.09390398e-02 -2.81559433e-01  2.60930419e+00  0.00000000e+00
  0.00000000e+00 -6.94266328e-01  0.00000000e+00  0.00000000e+00  2.16195706e+00
 -4.09390398e-02  2.81559433e-01 -2.60930419e+00  0.00000000e+00  0.00000000e+00
 -6.94266328e-01  0.00000000e+00  0.00000000e+00  2.16195706e+00
Total SCF Density                          R   N=         171
  2.14109556e+00 -2.80728402e-01  6.97564558e-01 -3.60270934e-01  6.03713514e-01
  6.81051835e-01  0.00000000e+00  0.00000000e+00  0.00000000e+00  4.57659940e-01
  0.00000000e+00  0.00000000e+00  0.00000000e+00  0.00000000e+00  4.57659940e-01
  4.18352867e-02 -5.38243135e-02 -2.77353717e-01  0.00000000e+00  0.00000000e+00
  3.88821465e-01  0.00000000e+00  0.00000000e+00  0.00000000e+00  5.05599365e-01
  0.00000000e+00  0.00000000e+00  5.66532014e-01  0.00000000e+00  0.00000000e+00
  0.00000000e+00  0.00000000e+00  5.05599365e-01  0.00000000e+00  0.00000000e+00
  5.66532014e-01  2.82492750e-02 -5.57952820e-02 -2.15529169e-01  0.00000000e+00
  0.00000000e+00  3.01163111e-01  0.00000000e+00  0.00000000e+00  2.43509542e-01
  6.04811247e-03 -4.90052927e-03  1.01017258e-01  0.00000000e+00  0.00000000e+00
 -7.39841537e-02  0.00000000e+00  0.00000000e+00 -1.47369751e-02  2.14109556e+00
 -4.90052927e-03 -8.55726990e-03 -1.85901654e-01  0.00000000e+00  0.00000000e+00
  1.52152589e-01  0.00000000e+00  0.00000000e+00  4.91794041e-02 -2.80728402e-01
  6.97564558e-01  1.01017258e-01 -1.85901654e-01 -2.13567484e-01  0.00000000e+00
  0.00000000e+00 -4.46842065e-02  0.00000000e+00  0.00000000e+00 -9.89661628e-02
 -3.60270934e-01  6.03713514e-01  6.81051835e-01  0.00000000e+00  0.00000000e+00
  0.00000000e+00  6.48446952e-02  0.00000000e+00  0.00000000e+00  3.55120697e-02
  0.00000000e+00  0.00000000e+00  0.00000000e+00  0.00000000e+00  0.00000000e+00
  4.57659940e-01  0.00000000e+00  0.00000000e+00  0.00000000e+00  0.00000000e+00
  6.48446952e-02  0.00000000e+00  0.00000000e+00  3.55120697e-02  0.00000000e+00
  0.00000000e+00  0.00000000e+00  0.00000000e+00  0.00000000e+00  4.57659940e-01
  7.39841537e-02 -1.52152589e-01  4.46842065e-02  0.00000000e+00  0.00000000e+00
 -3.27101690e-01  0.00000000e+00  0.00000000e+00 -2.67500214e-01 -4.18352867e-02
  5.38243135e-02  2.77353717e-01  0.00000000e+00  0.00000000e+00  3.88821465e-01
  0.00000000e+00  0.00000000e+00  0.00000000e+00  3.55120697e-02  0.00000000e+00
  0.00000000e+00  3.97221635e-03  0.00000000e+00  0.00000000e+00  0.00000000e+00
  0.00000000e+00  0.00000000e+00  5.05599365e-01  0.00000000e+00  0.00000000e+00
  5.66532014e-01  0.00000000e+00  0.00000000e+00  0.00000000e+00  0.00000000e+00
  3.55120697e-02  0.00000000e+00  0.00000000e+00  3.97221635e-03  0.00000000e+00
  0.00000000e+00  0.00000000e+00  0.00000000e+00  0.00000000e+00  5.05599365e-01
  0.00000000e+00  0.00000000e+00  5.66532014e-01  1.47369751e-02 -4.91794041e-02
  9.89661628e-02  0.00000000e+00  0.00000000e+00 -2.67500214e-01  0.00000000e+00
  0.00000000e+00 -2.19027696e-01 -2.82492750e-02  5.57952820e-02  2.15529169e-01
  0.00000000e+00  0.00000000e+00  3.01163111e-01  0.00000000e+00  0.00000000e+00
  2.43509542e-01
Total MP2 Density                          R   N=         171
  2.13940903e+00 -2.76677873e-01  7.00518002e-01 -3.69749652e-01  5.94996354e-01
  7.91710108e-01 -2.91288115e-16  5.19901288e-17 -2.64716313e-16  4.70868224e-01
  6.25396318e-16 -1.24290414e-15 -1.50406573e-16  4.95116503e-15  4.70868224e-01
  3.59815753e-02 -3.71767739e-02 -2.63280068e-01  1.28368250e-15  3.95104627e-15
  4.05811475e-01 -1.36492622e-16  4.07600365e-16  3.87769416e-16  5.00017789e-01
  7.29230008e-15  6.82148970e-16  5.67784155e-01 -5.04302781e-16  5.23778643e-16
  2.85105753e-15  7.21800368e-15  5.00017789e-01  1.76288246e-15  1.01357285e-14
  5.67784155e-01  1.91636941e-02 -3.29555795e-02 -1.84047749e-01  3.15055574e-17
  9.58609008e-16  2.97665401e-01 -5.58100255e-16 -1.05905055e-15  2.44756068e-01
  4.21934473e-03 -5.62042053e-04  1.11090532e-01  2.32184458e-16  1.05091752e-16
 -6.99404914e-02  5.09358605e-16  5.22049111e-16 -8.33625441e-03  2.13940903e+00
 -5.62042053e-04 -1.68050510e-02 -2.06011889e-01 -1.02617537e-15  3.07216477e-16
  1.47900175e-01 -1.53757126e-15 -7.08681907e-16  4.22714959e-02 -2.76677873e-01
  7.00518002e-01  1.11090532e-01 -2.06011889e-01 -2.82626064e-01  8.22027747e-16
 -1.79823071e-15 -6.30097493e-02  6.83035453e-16 -1.86251474e-15 -1.32379743e-01
 -3.69749652e-01  5.94996354e-01  7.91710108e-01  1.40355777e-16 -2.69784799e-16
 -1.79454056e-16  6.83532453e-02 -5.81434274e-16  2.20816796e-16  3.14275203e-02
 -8.42677959e-16  2.93230641e-16  8.17198413e-16 -1.95656172e-15  7.85997367e-16
  4.70868224e-01 -3.45670015e-17 -5.63776521e-17  1.18987651e-15 -6.05540122e-16
  6.83532453e-02 -8.72291349e-16 -8.65472070e-16  3.14275203e-02 -7.76591650e-16
 -1.43654278e-15  3.40046063e-15 -6.91777835e-16 -1.17570472e-14  4.70868224e-01
  6.99404914e-02 -1.47900175e-01  6.30097493e-02  1.66924486e-16 -1.27954153e-15
 -3.21552611e-01  7.75139563e-16  3.43839126e-16 -2.51610892e-01 -3.59815753e-02
  3.71767739e-02  2.63280068e-01 -8.08759137e-16  3.17754235e-15  4.05811475e-01
  2.41593525e-16 -5.46652002e-16 -2.75191338e-16  3.14275203e-02  2.99803308e-17
 -3.47567386e-16 -1.44452478e-02 -7.69992041e-16 -1.76426058e-16 -3.04466284e-16
 -7.41582456e-16  2.53371883e-15  5.00017789e-01 -7.50550366e-15  7.31045219e-17
  5.67784155e-01 -9.83583577e-17  2.35428655e-16  8.79983980e-16  3.88596613e-17
  3.14275203e-02  4.12877925e-16 -7.68236886e-16 -1.44452478e-02  6.55496611e-16
 -5.09439281e-17  2.01922776e-15 -3.44709189e-15 -7.42922353e-15  5.00017789e-01
  1.35123841e-15 -2.19461900e-15  5.67784155e-01  8.33625441e-03 -4.22714959e-02
  1.32379743e-01 -7.52077717e-16 -2.99027852e-16 -2.51610892e-01 -4.67859829e-16
  1.36742040e-15 -1.94842346e-01 -1.91636941e-02  3.29555795e-02  1.84047749e-01
  1.81929615e-16  1.24412469e-15  2.97665401e-01  1.14137819e-15 -4.29966877e-16
  2.44756068e-01
Beta Orbital Energies                      R   N=          18
 -2.07014691e+01 -2.06999773e+01 -1.74944664e+00 -9.56094767e-01 -7.16077656e-01
 -6.52758550e-01 -6.52758550e-01  1.38784708e-01  1.38784708e-01  7.17143358e-01
  1.08574483e+00  1.27914050e+00  1.71034384e+00  1.71034384e+00  1.75856109e+00
  1.82347865e+00  1.82347865e+00  1.91285728e+00
Beta MO coefficients                       R   N=         324
  6.98121592e-01  2.89140613e-02 -8.20210965e-03  0.00000000e+00  0.00000000e+00
  1.53200189e-03  0.00000000e+00  0.00000000e+00 -1.25031448e-03  6.98121592e-01
  2.89140613e-02 -8.20210965e-03  0.00000000e+00  0.00000000e+00 -1.53200189e-03
  0.00000000e+00  0.00000000e+00  1.25031448e-03  6.97791120e-01  3.06824682e-02
 -1.78803861e-02  0.00000000e+00  0.00000000e+00  2.89942528e-03  0.00000000e+00
  0.00000000e+00 -4.69989055e-03 -6.97791120e-01 -3.06824682e-02  1.78803861e-02
  0.00000000e+00  0.00000000e+00  2.89942528e-03  0.00000000e+00  0.00000000e+00
 -4.69989055e-03  2.05816460e-01 -3.79198219e-01 -1.82409252e-01  0.00000000e+00
  0.00000000e+00 -1.85750869e-01  0.00000000e+00  0.00000000e+00 -1.02635522e-01
  2.05816460e-01 -3.79198219e-01 -1.82409252e-01  0.00000000e+00  0.00000000e+00
  1.85750869e-01  0.00000000e+00  0.00000000e+00  1.02635522e-01  2.10317613e-01
 -3.95957827e-01 -4.41525902e-01  0.00000000e+00  0.00000000e+00  1.33252621e-01
  0.00000000e+00  0.00000000e+00  1.08445871e-01 -2.10317613e-01  3.95957827e-01
  4.41525902e-01  0.00000000e+00  0.00000000e+00  1.33252621e-01  0.00000000e+00
  0.00000000e+00  1.08445871e-01  7.56742429e-02 -1.16236122e-01 -3.05522089e-01
  0.00000000e+00  0.00000000e+00  3.76364984e-01  0.00000000e+00  0.00000000e+00
  3.27464691e-01  7.56742429e-02 -1.16236122e-01 -3.05522089e-01  0.00000000e+00
  0.00000000e+00 -3.76364984e-01  0.00000000e+00  0.00000000e+00 -3.27464691e-01
  0.00000000e+00  0.00000000e+00  0.00000000e+00  3.32605605e-01  0.00000000e+00
  0.00000000e+00  3.98471587e-01  0.00000000e+00  0.00000000e+00  0.00000000e+00
  0.00000000e+00  0.00000000e+00  3.32605605e-01  0.00000000e+00  0.00000000e+00
  3.98471587e-01  0.00000000e+00  0.00000000e+00  0.00000000e+00  0.00000000e+00
  0.00000000e+00  0.00000000e+00  3.32605605e-01  0.00000000e+00  0.00000000e+00
  3.98471587e-01  0.00000000e+00  0.00000000e+00  0.00000000e+00  0.00000000e+00
  0.00000000e+00  3.32605605e-01  0.00000000e+00  0.00000000e+00  3.98471587e-01
  0.00000000e+00  0.00000000e+00  0.00000000e+00  0.00000000e+00  3.70962361e-01
  0.00000000e+00  0.00000000e+00  6.25936907e-01  0.00000000e+00  0.00000000e+00
  0.00000000e+00  0.00000000e+00  0.00000000e+00 -3.70962361e-01  0.00000000e+00
  0.00000000e+00 -6.25936907e-01  0.00000000e+00  0.00000000e+00  0.00000000e+00
  0.00000000e+00  0.00000000e+00  0.00000000e+00  3.70962361e-01  0.00000000e+00
  0.00000000e+00  6.25936907e-01  0.00000000e+00  0.00000000e+00  0.00000000e+00
  0.00000000e+00  0.00000000e+00 -3.70962361e-01  0.00000000e+00  0.00000000e+00
 -6.25936907e-01  0.00000000e+00  1.44466609e-01 -3.37625963e-01 -1.66622120e+00
  0.00000000e+00  0.00000000e+00 -3.85060443e-01  0.00000000e+00  0.00000000e+00
 -1.50845014e+00 -1.44466609e-01  3.37625963e-01  1.66622120e+00  0.00000000e+00
  0.00000000e+00 -3.85060443e-01  0.00000000e+00  0.00000000e+00 -1.50845014e+00
  2.36791617e-01 -1.20757162e+00  9.59170099e-01  0.00000000e+00  0.00000000e+00
  3.54221604e-02  0.00000000e+00  0.00000000e+00  1.01421794e-01  2.36791617e-01
 -1.20757162e+00  9.59170099e-01  0.00000000e+00  0.00000000e+00 -3.54221604e-02
  0.00000000e+00  0.00000000e+00 -1.01421794e-01  2.21985369e-01 -1.19812968e+00
  2.64769025e+00  0.00000000e+00  0.00000000e+00  1.56976734e-01  0.00000000e+00
  0.00000000e+00  8.50865787e-01 -2.21985369e-01  1.19812968e+00 -2.64769025e+00
  0.00000000e+00  0.00000000e+00  1.56976734e-01  0.00000000e+00  0.00000000e+00
  8.50865787e-01  0.00000000e+00  0.00000000e+00  0.00000000e+00  7.25223345e-01
  0.00000000e+00  0.00000000e+00 -5.34252922e-01  0.00000000e+00  0.00000000e+00
  0.00000000e+00  0.00000000e+00  0.00000000e+00  7.25223345e-01  0.00000000e+00
  0.00000000e+00 -5.34252922e-01  0.00000000e+00  0.00000000e+00  0.00000000e+00
  0.00000000e+00  0.00000000e+00  0.00000000e+00  7.25223345e-01  0.00000000e+00
  0.00000000e+00 -5.34252922e-01  0.00000000e+00  0.00000000e+00  0.00000000e+00
  0.00000000e+00  0.00000000e+00  7.25223345e-01  0.00000000e+00  0.00000000e+00
 -5.34252922e-01  0.00000000e+00  7.24174681e-03  1.41279722e-01  9.13331670e-02
  0.00000000e+00  0.00000000e+00  6.92761277e-01  0.00000000e+00  0.00000000e+00
 -7.67650468e-01  7.24174681e-03  1.41279722e-01  9.13331670e-02  0.00000000e+00
  0.00000000e+00 -6.92761277e-01  0.00000000e+00  0.00000000e+00  7.67650468e-01
  0.00000000e+00  0.00000000e+00  0.00000000e+00  7.12029635e-01  0.00000000e+00
  0.00000000e+00 -8.83985245e-01  0.00000000e+00  0.00000000e+00  0.00000000e+00
  0.00000000e+00  0.00000000e+00 -7.12029635e-01  0.00000000e+00  0.00000000e+00
  8.83985245e-01  0.00000000e+00  0.00000000e+00  0.00000000e+00  0.00000000e+00
  0.00000000e+00  0.00000000e+00  7.12029635e-01  0.00000000e+00  0.00000000e+00
 -8.83985245e-01  0.00000000e+00  0.00000000e+00  0.00000000e+00  0.00000000e+00
  0.00000000e+00 -7.12029635e-01  0.00000000e+00  0.00000000e+00  8.83985245e-01
  0.00000000e+00  4.33962323e-02 -2.90385362e-01  2.58929098e+00  0.00000000e+00
  0.00000000e+00 -7.02045210e-01  0.00000000e+00  0.00000000e+00  2.13554999e+00
 -4.33962323e-02  2.90385362e-01 -2.58929098e+00  0.00000000e+00  0.00000000e+00
 -7.02045210e-01  0.00000000e+00  0.00000000e+00  2.13554999e+00
Spin SCF Density                           R   N=         171
  7.88214547e-03 -2.36829289e-02  6.58402318e-02 -1.68179389e-02  4.62698494e-02
  3.71538612e-02  0.00000000e+00  0.00000000e+00  0.00000000e+00  2.36406963e-01
  0.00000000e+00  0.00000000e+00  0.00000000e+00  0.00000000e+00  2.36406963e-01
 -9.01991135e-04 -1.94437767e-03  2.65434533e-03  0.00000000e+00  0.00000000e+00
  9.79462278e-04  0.00000000e+00  0.00000000e+00  0.00000000e+00  2.40531598e-01
  0.00000000e+00  0.00000000e+00  2.48972803e-01  0.00000000e+00  0.00000000e+00
  0.00000000e+00  0.00000000e+00  2.40531598e-01  0.00000000e+00  0.00000000e+00
  2.48972803e-01 -1.63751775e-02  2.87334508e-02  4.26976265e-02  0.00000000e+00
  0.00000000e+00 -1.23289586e-02  0.00000000e+00  0.00000000e+00 -1.55931254e-02
 -2.58152325e-03  4.67713844e-03  2.31204597e-02  0.00000000e+00  0.00000000e+00
  3.47283392e-03  0.00000000e+00  0.00000000e+00  1.87527122e-02  7.88214547e-03
  4.67713844e-03 -9.38553686e-03 -4.62372289e-02  0.00000000e+00  0.00000000e+00
 -6.66130156e-03  0.00000000e+00  0.00000000e+00 -3.86286466e-02 -2.36829289e-02
  6.58402318e-02  2.31204597e-02 -4.62372289e-02 -7.64061364e-02  0.00000000e+00
  0.00000000e+00 -2.21449619e-04  0.00000000e+00  0.00000000e+00 -3.19298683e-02
 -1.68179389e-02  4.62698494e-02  3.71538612e-02  0.00000000e+00  0.00000000e+00
  0.00000000e+00 -1.56408282e-01  0.00000000e+00  0.00000000e+00 -2.29555697e-01
  0.00000000e+00  0.00000000e+00  0.00000000e+00  0.00000000e+00  0.00000000e+00
  2.36406963e-01  0.00000000e+00  0.00000000e+00  0.00000000e+00  0.00000000e+00
 -1.56408282e-01  0.00000000e+00  0.00000000e+00 -2.29555697e-01  0.00000000e+00
  0.00000000e+00  0.00000000e+00  0.00000000e+00  0.00000000e+00  2.36406963e-01
 -3.47283392e-03  6.66130156e-03  2.21449619e-04  0.00000000e+00  0.00000000e+00
 -1.03183579e-02  0.00000000e+00  0.00000000e+00 -1.17564231e-02  9.01991135e-04
  1.94437767e-03 -2.65434533e-03  0.00000000e+00  0.00000000e+00  9.79462278e-04
  0.00000000e+00  0.00000000e+00  0.00000000e+00 -2.29555697e-01  0.00000000e+00
  0.00000000e+00 -3.13586995e-01  0.00000000e+00  0.00000000e+00  0.00000000e+00
  0.00000000e+00  0.00000000e+00  2.40531598e-01  0.00000000e+00  0.00000000e+00
  2.48972803e-01  0.00000000e+00  0.00000000e+00  0.00000000e+00  0.00000000e+00
 -2.29555697e-01  0.00000000e+00  0.00000000e+00 -3.13586995e-01  0.00000000e+00
  0.00000000e+00  0.00000000e+00  0.00000000e+00  0.00000000e+00  2.40531598e-01
  0.00000000e+00  0.00000000e+00  2.48972803e-01 -1.87527122e-02  3.86286466e-02
  3.19298683e-02  0.00000000e+00  0.00000000e+00 -1.17564231e-02  0.00000000e+00
  0.00000000e+00 -7.05541315e-03  1.63751775e-02 -2.87334508e-02 -4.26976265e-02
  0.00000000e+00  0.00000000e+00 -1.23289586e-02  0.00000000e+00  0.00000000e+00
 -1.55931254e-02
Spin MP2 Density                           R   N=         171
  5.86626677e-03 -1.69967447e-02  4.62757528e-02 -1.74917426e-02  4.50249026e-02
  4.43150482e-02  1.79743657e-16 -3.57345561e-16 -3.99979893e-16  2.09750695e-01
  7.85436153e-17 -4.39782901e-16  5.73906905e-16 -6.65589590e-15  2.09750695e-01
 -9.62397216e-04 -9.50560163e-04  3.06565147e-03  2.91949492e-16  1.81658558e-16
  8.11900336e-04  1.92789122e-16 -3.76073882e-16 -4.23257754e-16  2.29715104e-01
 -7.00540338e-15  2.68547072e-16  2.75561968e-01  1.74595839e-17 -2.88494112e-16
  7.56587683e-16 -7.05142702e-15  2.29715104e-01 -2.22797299e-16 -7.42640594e-15
  2.75561968e-01 -1.48781507e-02  2.65361961e-02  4.12562831e-02 -4.49395564e-16
 -1.47994748e-15 -8.87389054e-03 -4.79734863e-16 -1.79785516e-15 -8.52051884e-03
 -2.21589320e-03  4.17635057e-03  2.07719585e-02 -5.06333435e-17 -2.54456592e-18
  3.31473631e-03 -1.34280673e-16 -1.04013155e-16  1.69329343e-02  5.86626677e-03
  4.17635057e-03 -9.18128295e-03 -4.03614007e-02  2.99392404e-16 -6.42598442e-16
 -7.46901448e-03  6.08342887e-16 -7.16916800e-16 -3.51830868e-02 -1.69967447e-02
  4.62757528e-02  2.07719585e-02 -4.03614007e-02 -7.66204560e-02  2.40025458e-16
  2.05053640e-15  2.73760459e-04  1.53089901e-16  2.86473519e-15 -3.26581989e-02
 -1.74917426e-02  4.50249026e-02  4.43150482e-02 -8.06803263e-17  1.44415442e-16
  1.70278613e-16 -1.63333371e-01  1.11085548e-15 -2.77794615e-16 -2.24223301e-01
  8.20892828e-16  1.94608244e-16  1.61700977e-18 -2.05278078e-16  4.61239539e-17
  2.09750695e-01 -3.06515521e-17  1.90877258e-16 -9.22523778e-16  1.14962742e-15
 -1.63333371e-01 -3.00100844e-17  8.42423791e-16 -2.24223301e-01  8.54917825e-16
  1.09041010e-16  4.10908185e-16 -1.54556621e-15  3.29742339e-15  2.09750695e-01
 -3.31473631e-03  7.46901448e-03 -2.73760459e-04  6.44689145e-16  2.64717043e-16
 -6.35987789e-03  8.42371922e-16  5.70750547e-16 -8.19034581e-03  9.62397216e-04
  9.50560163e-04 -3.06565147e-03 -9.62790555e-16 -4.82546962e-16  8.11900337e-04
 -1.70746825e-16  3.31447764e-16  3.11993895e-16 -2.24223301e-01 -8.78443448e-16
 -5.31022667e-16 -2.95566278e-01 -2.28840353e-15  9.17888360e-17 -3.97554711e-20
 -9.77513728e-17 -1.87596991e-16  2.29715104e-01  7.58946737e-15 -1.10807479e-15
  2.75561968e-01  6.80990344e-17  6.17134970e-17 -1.42044427e-15 -8.40769592e-16
 -2.24223301e-01 -3.55566456e-17 -2.28868419e-15 -2.95566278e-01  1.25920948e-15
  1.19915140e-16  3.24882127e-16 -1.50614366e-15  7.61956389e-15  2.29715104e-01
 -7.32480026e-16  1.23311767e-14  2.75561968e-01 -1.69329343e-02  3.51830868e-02
  3.26581989e-02 -3.45950425e-16  1.10231055e-15 -8.19034581e-03 -3.20962751e-16
  1.70292307e-15 -2.74618541e-03  1.48781507e-02 -2.65361961e-02 -4.12562831e-02
  2.48241056e-16 -1.76671570e-15 -8.87389054e-03  2.48609019e-16 -2.08008025e-15
 -8.52051884e-03
Cartesian Gradient                         R   N=           6
 -1.14224562e-16 -2.21525298e-17  3.92544563e-01  1.14224562e-16  2.21525298e-17
 -3.92544563e-01
