Generated by Psi4
     FORCE                          CCSD                       PCSEG-0
Number of atoms                            I                2
Charge                                     I                0
Multiplicity                               I                3
Number of electrons                        I               16
Number of alpha electrons                  I                9
Number of beta electrons                   I                7
Number of basis functions                  I               18
Number of independent functions            I               18
Atomic numbers                             I   N=           2
           8           8
Nuclear charges                            R   N=           2
  8.00000000e+00  8.00000000e+00
Current cartesian coordinates              R   N=           6
  0.00000000e+00  0.00000000e+00 -1.03934937e+00  0.00000000e+00  0.00000000e+00
  1.03934937e+00
Integer atomic weights                     I   N=           2
          16          16
Real atomic weights                        R   N=           2
  1.59949146e+01  1.59949146e+01
Number of primitive shells                 I               18
Number of contracted shells                I               10
Pure/Cartesian d shells                    I                0
Pure/Cartesian f shells                    I                0
Highest angular momentum                   I                1
Largest degree of contraction              I                4
Shell types                                I   N=          10
           0           0           0           1           1           0
           0           0           1           1
Number of primitives per shell             I   N=          10
           4           1           1           2           1           4
           1           1           2           1
Shell to atom map                          I   N=          10
           1           1           1           1           1           2
           2           2           2           2
Primitive exponents                        R   N=          18
  8.64900000e+02  1.30531000e+02  2.92551000e+01  7.76965000e+00  8.69788000e-01
  2.69783000e-01  8.30553000e+00  1.69516000e+00  3.57951000e-01  8.64900000e+02
  1.30531000e+02  2.92551000e+01  7.76965000e+00  8.69788000e-01  2.69783000e-01
  8.30553000e+00  1.69516000e+00  3.57951000e-01
Contraction coefficients                   R   N=          18
  1.78601010e-02  1.24649764e-01  4.38570969e-01  5.55523813e-01  1.00000000e+00
  1.00000000e+00  2.27970846e-01  8.68797958e-01  1.00000000e+00  1.78601010e-02
  1.24649764e-01  4.38570969e-01  5.55523813e-01  1.00000000e+00  1.00000000e+00
  2.27970846e-01  8.68797958e-01  1.00000000e+00
Coordinates of each shell                  R   N=          30
  0.00000000e+00  0.00000000e+00 -1.03934937e+00  0.00000000e+00  0.00000000e+00
 -1.03934937e+00  0.00000000e+00  0.00000000e+00 -1.03934937e+00  0.00000000e+00
  0.00000000e+00 -1.03934937e+00  0.00000000e+00  0.00000000e+00 -1.03934937e+00
  0.00000000e+00  0.00000000e+00  1.03934937e+00  0.00000000e+00  0.00000000e+00
  1.03934937e+00  0.00000000e+00  0.00000000e+00  1.03934937e+00  0.00000000e+00
  0.00000000e+00  1.03934937e+00  0.00000000e+00  0.00000000e+00  1.03934937e+00
Total Energy                               R     -1.493323619119919e+02
Alpha Orbital Energies                     R   N=          18
 -2.07554582e+01 -2.07549292e+01 -1.87465030e+00 -1.15399615e+00 -9.05612887e-01
 -9.05612887e-01 -7.83331252e-01 -5.26685457e-01 -5.26685457e-01  6.28998929e-01
  1.04345614e+00  1.22561995e+00  1.56654995e+00  1.56654995e+00  1.67852271e+00
  1.67852271e+00  1.74178502e+00  1.88406720e+00
Alpha MO coefficients                      R   N=         324
  6.97344616e-01  3.12538882e-02 -8.76483885e-03  0.00000000e+00  0.00000000e+00
  1.39396581e-03  0.00000000e+00  0.00000000e+00 -1.34950581e-03  6.97344616e-01
  3.12538882e-02 -8.76483885e-03  0.00000000e+00  0.00000000e+00 -1.39396581e-03
  0.00000000e+00  0.00000000e+00  1.34950581e-03  6.96856054e-01  3.33705042e-02
 -1.75918725e-02  0.00000000e+00  0.00000000e+00  2.99326091e-03  0.00000000e+00
  0.00000000e+00 -3.98303066e-03 -6.96856054e-01 -3.33705042e-02  1.75918725e-02
  0.00000000e+00  0.00000000e+00  2.99326091e-03  0.00000000e+00  0.00000000e+00
 -3.98303066e-03  2.16231275e-01 -4.13561848e-01 -1.72778046e-01  0.00000000e+00
  0.00000000e+00 -1.67728280e-01  0.00000000e+00  0.00000000e+00 -8.46068312e-02
  2.16231275e-01 -4.13561848e-01 -1.72778046e-01  0.00000000e+00  0.00000000e+00
  1.67728280e-01  0.00000000e+00  0.00000000e+00  8.46068312e-02  2.25318755e-01
 -4.40704022e-01 -5.01748493e-01  0.00000000e+00  0.00000000e+00  1.14397630e-01
  0.00000000e+00  0.00000000e+00  2.10247894e-02 -2.25318755e-01  4.40704022e-01
  5.01748493e-01  0.00000000e+00  0.00000000e+00  1.14397630e-01  0.00000000e+00
  0.00000000e+00  2.10247894e-02  0.00000000e+00  0.00000000e+00  0.00000000e+00
  3.88115757e-01  0.00000000e+00  0.00000000e+00  3.55621391e-01  0.00000000e+00
  0.00000000e+00  0.00000000e+00  0.00000000e+00  0.00000000e+00  3.88115757e-01
  0.00000000e+00  0.00000000e+00  3.55621391e-01  0.00000000e+00  0.00000000e+00
  0.00000000e+00  0.00000000e+00  0.00000000e+00  0.00000000e+00  3.88115757e-01
  0.00000000e+00  0.00000000e+00  3.55621391e-01  0.00000000e+00  0.00000000e+00
  0.00000000e+00  0.00000000e+00  0.00000000e+00  3.88115757e-01  0.00000000e+00
  0.00000000e+00  3.55621391e-01  0.00000000e+00  7.11733321e-02 -1.19834430e-01
 -2.77715070e-01  0.00000000e+00  0.00000000e+00  3.92022028e-01  0.00000000e+00
  0.00000000e+00  3.26083384e-01  7.11733321e-02 -1.19834430e-01 -2.77715070e-01
  0.00000000e+00  0.00000000e+00 -3.92022028e-01  0.00000000e+00  0.00000000e+00
 -3.26083384e-01  0.00000000e+00  0.00000000e+00  0.00000000e+00  0.00000000e+00
  4.43182354e-01  0.00000000e+00  0.00000000e+00  5.30353538e-01  0.00000000e+00
  0.00000000e+00  0.00000000e+00  0.00000000e+00  0.00000000e+00 -4.43182354e-01
  0.00000000e+00  0.00000000e+00 -5.30353538e-01  0.00000000e+00  0.00000000e+00
  0.00000000e+00  0.00000000e+00  4.43182354e-01  0.00000000e+00  0.00000000e+00
  5.30353538e-01  0.00000000e+00  0.00000000e+00  0.00000000e+00  0.00000000e+00
  0.00000000e+00 -4.43182354e-01  0.00000000e+00  0.00000000e+00 -5.30353538e-01
  0.00000000e+00  0.00000000e+00  1.39288655e-01 -3.55112128e-01 -1.49694114e+00
  0.00000000e+00  0.00000000e+00 -4.01546755e-01  0.00000000e+00  0.00000000e+00
 -1.44155470e+00 -1.39288655e-01  3.55112128e-01  1.49694114e+00  0.00000000e+00
  0.00000000e+00 -4.01546755e-01  0.00000000e+00  0.00000000e+00 -1.44155470e+00
  2.31235897e-01 -1.19217597e+00  9.70974926e-01  0.00000000e+00  0.00000000e+00
  4.78831829e-02  0.00000000e+00  0.00000000e+00  7.97620380e-02  2.31235897e-01
 -1.19217597e+00  9.70974926e-01  0.00000000e+00  0.00000000e+00 -4.78831829e-02
  0.00000000e+00  0.00000000e+00 -7.97620380e-02  2.13839443e-01 -1.17940320e+00
  2.71800550e+00  0.00000000e+00  0.00000000e+00  1.64874958e-01  0.00000000e+00
  0.00000000e+00  9.05361682e-01 -2.13839443e-01  1.17940320e+00 -2.71800550e+00
  0.00000000e+00  0.00000000e+00  1.64874958e-01  0.00000000e+00  0.00000000e+00
  9.05361682e-01  0.00000000e+00  0.00000000e+00  0.00000000e+00  0.00000000e+00
  6.97095078e-01  0.00000000e+00  0.00000000e+00 -5.63683614e-01  0.00000000e+00
  0.00000000e+00  0.00000000e+00  0.00000000e+00  0.00000000e+00  6.97095078e-01
  0.00000000e+00  0.00000000e+00 -5.63683614e-01  0.00000000e+00  0.00000000e+00
  0.00000000e+00  0.00000000e+00  6.97095078e-01  0.00000000e+00  0.00000000e+00
 -5.63683614e-01  0.00000000e+00  0.00000000e+00  0.00000000e+00  0.00000000e+00
  0.00000000e+00  6.97095078e-01  0.00000000e+00  0.00000000e+00 -5.63683614e-01
  0.00000000e+00  0.00000000e+00  0.00000000e+00  0.00000000e+00  0.00000000e+00
  0.00000000e+00  6.69468951e-01  0.00000000e+00  0.00000000e+00 -9.44432130e-01
  0.00000000e+00  0.00000000e+00  0.00000000e+00  0.00000000e+00  0.00000000e+00
 -6.69468951e-01  0.00000000e+00  0.00000000e+00  9.44432130e-01  0.00000000e+00
  0.00000000e+00  0.00000000e+00  0.00000000e+00  6.69468951e-01  0.00000000e+00
  0.00000000e+00 -9.44432130e-01  0.00000000e+00  0.00000000e+00  0.00000000e+00
  0.00000000e+00  0.00000000e+00 -6.69468951e-01  0.00000000e+00  0.00000000e+00
  9.44432130e-01  0.00000000e+00  0.00000000e+00  1.52163091e-03  1.69331903e-01
  7.20148664e-02  0.00000000e+00  0.00000000e+00  6.87910213e-01  0.00000000e+00
  0.00000000e+00 -7.72974687e-01  1.52163091e-03  1.69331903e-01  7.20148664e-02
  0.00000000e+00  0.00000000e+00 -6.87910213e-01  0.00000000e+00  0.00000000e+00
  7.72974687e-01  4.08869829e-02 -2.81289079e-01  2.60879314e+00  0.00000000e+00
  0.00000000e+00 -6.94280965e-01  0.00000000e+00  0.00000000e+00  2.16183559e+00
 -4.08869829e-02  2.81289079e-01 -2.60879314e+00  0.00000000e+00  0.00000000e+00
 -6.94280965e-01  0.00000000e+00  0.00000000e+00  2.16183559e+00
Total SCF Density                          R   N=         171
  2.14109350e+00 -2.80723767e-01  6.97565333e-01 -3.60277033e-01  6.03713714e-01
  6.81055678e-01  0.00000000e+00  0.00000000e+00  0.00000000e+00  4.57671565e-01
  0.00000000e+00  0.00000000e+00  0.00000000e+00  0.00000000e+00  4.57671565e-01
  4.18373649e-02 -5.38260823e-02 -2.77360211e-01  0.00000000e+00  0.00000000e+00
  3.88841472e-01  0.00000000e+00  0.00000000e+00  0.00000000e+00  5.05599625e-01
  0.00000000e+00  0.00000000e+00  5.66520492e-01  0.00000000e+00  0.00000000e+00
  0.00000000e+00  0.00000000e+00  5.05599625e-01  0.00000000e+00  0.00000000e+00
  5.66520492e-01  2.82478951e-02 -5.57941782e-02 -2.15519309e-01  0.00000000e+00
  0.00000000e+00  3.01160831e-01  0.00000000e+00  0.00000000e+00  2.43494870e-01
  6.04970796e-03 -4.90515667e-03  1.01021230e-01  0.00000000e+00  0.00000000e+00
 -7.39856573e-02  0.00000000e+00  0.00000000e+00 -1.47346274e-02  2.14109350e+00
 -4.90515667e-03 -8.54579330e-03 -1.85902691e-01  0.00000000e+00  0.00000000e+00
  1.52155786e-01  0.00000000e+00  0.00000000e+00  4.91758984e-02 -2.80723767e-01
  6.97565333e-01  1.01021230e-01 -1.85902691e-01 -2.13582592e-01  0.00000000e+00
  0.00000000e+00 -4.46815989e-02  0.00000000e+00  0.00000000e+00 -9.89620034e-02
 -3.60277033e-01  6.03713714e-01  6.81055678e-01  0.00000000e+00  0.00000000e+00
  0.00000000e+00  6.48503680e-02  0.00000000e+00  0.00000000e+00  3.55129666e-02
  0.00000000e+00  0.00000000e+00  0.00000000e+00  0.00000000e+00  0.00000000e+00
  4.57671565e-01  0.00000000e+00  0.00000000e+00  0.00000000e+00  0.00000000e+00
  6.48503680e-02  0.00000000e+00  0.00000000e+00  3.55129666e-02  0.00000000e+00
  0.00000000e+00  0.00000000e+00  0.00000000e+00  0.00000000e+00  4.57671565e-01
  7.39856573e-02 -1.52155786e-01  4.46815989e-02  0.00000000e+00  0.00000000e+00
 -3.27117561e-01  0.00000000e+00  0.00000000e+00 -2.67497255e-01 -4.18373649e-02
  5.38260823e-02  2.77360211e-01  0.00000000e+00  0.00000000e+00  3.88841472e-01
  0.00000000e+00  0.00000000e+00  0.00000000e+00  3.55129666e-02  0.00000000e+00
  0.00000000e+00  3.97074206e-03  0.00000000e+00  0.00000000e+00  0.00000000e+00
  0.00000000e+00  0.00000000e+00  5.05599625e-01  0.00000000e+00  0.00000000e+00
  5.66520492e-01  0.00000000e+00  0.00000000e+00  0.00000000e+00  0.00000000e+00
  3.55129666e-02  0.00000000e+00  0.00000000e+00  3.97074206e-03  0.00000000e+00
  0.00000000e+00  0.00000000e+00  0.00000000e+00  0.00000000e+00  5.05599625e-01
  0.00000000e+00  0.00000000e+00  5.66520492e-01  1.47346274e-02 -4.91758984e-02
  9.89620034e-02  0.00000000e+00  0.00000000e+00 -2.67497255e-01  0.00000000e+00
  0.00000000e+00 -2.19011122e-01 -2.82478951e-02  5.57941782e-02  2.15519309e-01
  0.00000000e+00  0.00000000e+00  3.01160831e-01  0.00000000e+00  0.00000000e+00
  2.43494870e-01
Total CC Density                           R   N=         171
  2.13748519e+00 -2.85646435e-01  7.32964368e-01 -3.57622164e-01  5.67424852e-01
  7.75341183e-01  0.00000000e+00  0.00000000e+00  0.00000000e+00  4.81241615e-01
  0.00000000e+00  0.00000000e+00  0.00000000e+00  0.00000000e+00  4.73005117e-01
  3.93325136e-02 -5.04371125e-02 -2.56073550e-01  0.00000000e+00  0.00000000e+00
  4.00719620e-01  0.00000000e+00  0.00000000e+00  0.00000000e+00  4.84373262e-01
  0.00000000e+00  0.00000000e+00  5.76335328e-01  0.00000000e+00  0.00000000e+00
  0.00000000e+00  0.00000000e+00  4.95343445e-01  0.00000000e+00  0.00000000e+00
  5.62590561e-01  2.20444631e-02 -3.95286587e-02 -1.88767595e-01  0.00000000e+00
  0.00000000e+00  3.01068343e-01  0.00000000e+00  0.00000000e+00  2.55949185e-01
  9.41240182e-03 -4.95506681e-03  1.08182913e-01  0.00000000e+00  0.00000000e+00
 -6.97267424e-02  0.00000000e+00  0.00000000e+00 -1.09270797e-02  2.13748519e+00
 -4.95506681e-03  2.43217142e-03 -2.10216223e-01  0.00000000e+00  0.00000000e+00
  1.41916609e-01  0.00000000e+00  0.00000000e+00  4.54048378e-02 -2.85646435e-01
  7.32964368e-01  1.08182913e-01 -2.10216223e-01 -2.47946616e-01  0.00000000e+00
  0.00000000e+00 -5.41988746e-02  0.00000000e+00  0.00000000e+00 -1.30443802e-01
 -3.57622164e-01  5.67424852e-01  7.75341183e-01  0.00000000e+00  0.00000000e+00
  0.00000000e+00  6.46659035e-02  0.00000000e+00  0.00000000e+00  4.52113723e-02
  0.00000000e+00  0.00000000e+00  0.00000000e+00  0.00000000e+00  0.00000000e+00
  4.81241615e-01  0.00000000e+00  0.00000000e+00  0.00000000e+00  0.00000000e+00
  7.45632593e-02  0.00000000e+00  0.00000000e+00  3.57629948e-02  0.00000000e+00
  0.00000000e+00  0.00000000e+00  0.00000000e+00  0.00000000e+00  4.73005117e-01
  6.97267424e-02 -1.41916609e-01  5.41988746e-02  0.00000000e+00  0.00000000e+00
 -3.15644218e-01  0.00000000e+00  0.00000000e+00 -2.52018645e-01 -3.93325136e-02
  5.04371125e-02  2.56073550e-01  0.00000000e+00  0.00000000e+00  4.00719620e-01
  0.00000000e+00  0.00000000e+00  0.00000000e+00  4.52113723e-02  0.00000000e+00
  0.00000000e+00 -2.67454537e-02  0.00000000e+00  0.00000000e+00  0.00000000e+00
  0.00000000e+00  0.00000000e+00  4.84373262e-01  0.00000000e+00  0.00000000e+00
  5.76335328e-01  0.00000000e+00  0.00000000e+00  0.00000000e+00  0.00000000e+00
  3.57629948e-02  0.00000000e+00  0.00000000e+00 -1.16062915e-02  0.00000000e+00
  0.00000000e+00  0.00000000e+00  0.00000000e+00  0.00000000e+00  4.95343445e-01
  0.00000000e+00  0.00000000e+00  5.62590561e-01  1.09270797e-02 -4.54048378e-02
  1.30443802e-01  0.00000000e+00  0.00000000e+00 -2.52018645e-01  0.00000000e+00
  0.00000000e+00 -1.96699563e-01 -2.20444631e-02  3.95286587e-02  1.88767595e-01
  0.00000000e+00  0.00000000e+00  3.01068343e-01  0.00000000e+00  0.00000000e+00
  2.55949185e-01
Beta Orbital Energies                      R   N=          18
 -2.07014614e+01 -2.06999692e+01 -1.74944419e+00 -9.56089851e-01 -7.16098052e-01
 -6.52791129e-01 -6.52791129e-01  1.38769187e-01  1.38769187e-01  7.17107038e-01
  1.08569323e+00  1.27912509e+00  1.71023668e+00  1.71023668e+00  1.75845465e+00
  1.82340068e+00  1.82340068e+00  1.91276872e+00
Beta MO coefficients                       R   N=         324
  6.98121027e-01  2.89160300e-02 -8.20290897e-03  0.00000000e+00  0.00000000e+00
  1.53203457e-03  0.00000000e+00  0.00000000e+00 -1.25049216e-03  6.98121027e-01
  2.89160300e-02 -8.20290897e-03  0.00000000e+00  0.00000000e+00 -1.53203457e-03
  0.00000000e+00  0.00000000e+00  1.25049216e-03  6.97790540e-01  3.06844619e-02
 -1.78819712e-02  0.00000000e+00  0.00000000e+00  2.89941853e-03  0.00000000e+00
  0.00000000e+00 -4.70024550e-03 -6.97790540e-01 -3.06844619e-02  1.78819712e-02
  0.00000000e+00  0.00000000e+00  2.89941853e-03  0.00000000e+00  0.00000000e+00
 -4.70024550e-03  2.05816476e-01 -3.79197654e-01 -1.82406361e-01  0.00000000e+00
  0.00000000e+00 -1.85757865e-01  0.00000000e+00  0.00000000e+00 -1.02635636e-01
  2.05816476e-01 -3.79197654e-01 -1.82406361e-01  0.00000000e+00  0.00000000e+00
  1.85757865e-01  0.00000000e+00  0.00000000e+00  1.02635636e-01  2.10317279e-01
 -3.95955049e-01 -4.41518229e-01  0.00000000e+00  0.00000000e+00  1.33258289e-01
  0.00000000e+00  0.00000000e+00  1.08452181e-01 -2.10317279e-01  3.95955049e-01
  4.41518229e-01  0.00000000e+00  0.00000000e+00  1.33258289e-01  0.00000000e+00
  0.00000000e+00  1.08452181e-01  7.56775678e-02 -1.16242306e-01 -3.05519950e-01
  0.00000000e+00  0.00000000e+00  3.76371088e-01  0.00000000e+00  0.00000000e+00
  3.27455108e-01  7.56775678e-02 -1.16242306e-01 -3.05519950e-01  0.00000000e+00
  0.00000000e+00 -3.76371088e-01  0.00000000e+00  0.00000000e+00 -3.27455108e-01
  0.00000000e+00  0.00000000e+00  0.00000000e+00  3.32606563e-01  0.00000000e+00
  0.00000000e+00  3.98470882e-01  0.00000000e+00  0.00000000e+00  0.00000000e+00
  0.00000000e+00  0.00000000e+00  3.32606563e-01  0.00000000e+00  0.00000000e+00
  3.98470882e-01  0.00000000e+00  0.00000000e+00  0.00000000e+00  0.00000000e+00
  0.00000000e+00  0.00000000e+00  3.32606563e-01  0.00000000e+00  0.00000000e+00
  3.98470882e-01  0.00000000e+00  0.00000000e+00  0.00000000e+00  0.00000000e+00
  0.00000000e+00  3.32606563e-01  0.00000000e+00  0.00000000e+00  3.98470882e-01
  0.00000000e+00  0.00000000e+00  0.00000000e+00  0.00000000e+00  0.00000000e+00
  3.70961677e-01  0.00000000e+00  0.00000000e+00  6.25937756e-01  0.00000000e+00
  0.00000000e+00  0.00000000e+00  0.00000000e+00  0.00000000e+00 -3.70961677e-01
  0.00000000e+00  0.00000000e+00 -6.25937756e-01  0.00000000e+00  0.00000000e+00
  0.00000000e+00  0.00000000e+00  3.70961677e-01  0.00000000e+00  0.00000000e+00
  6.25937756e-01  0.00000000e+00  0.00000000e+00  0.00000000e+00  0.00000000e+00
  0.00000000e+00 -3.70961677e-01  0.00000000e+00  0.00000000e+00 -6.25937756e-01
  0.00000000e+00  0.00000000e+00  1.44469786e-01 -3.37636631e-01 -1.66613775e+00
  0.00000000e+00  0.00000000e+00 -3.85085282e-01  0.00000000e+00  0.00000000e+00
 -1.50837382e+00 -1.44469786e-01  3.37636631e-01  1.66613775e+00  0.00000000e+00
  0.00000000e+00 -3.85085282e-01  0.00000000e+00  0.00000000e+00 -1.50837382e+00
  2.36791770e-01 -1.20757972e+00  9.59165554e-01  0.00000000e+00  0.00000000e+00
  3.53792024e-02  0.00000000e+00  0.00000000e+00  1.01467071e-01  2.36791770e-01
 -1.20757972e+00  9.59165554e-01  0.00000000e+00  0.00000000e+00 -3.53792024e-02
  0.00000000e+00  0.00000000e+00 -1.01467071e-01  2.21986751e-01 -1.19813310e+00
  2.64771197e+00  0.00000000e+00  0.00000000e+00  1.56968606e-01  0.00000000e+00
  0.00000000e+00  8.50882950e-01 -2.21986751e-01  1.19813310e+00 -2.64771197e+00
  0.00000000e+00  0.00000000e+00  1.56968606e-01  0.00000000e+00  0.00000000e+00
  8.50882950e-01  0.00000000e+00  0.00000000e+00  0.00000000e+00  0.00000000e+00
  7.25222906e-01  0.00000000e+00  0.00000000e+00 -5.34253448e-01  0.00000000e+00
  0.00000000e+00  0.00000000e+00  0.00000000e+00  0.00000000e+00  7.25222906e-01
  0.00000000e+00  0.00000000e+00 -5.34253448e-01  0.00000000e+00  0.00000000e+00
  0.00000000e+00  0.00000000e+00  7.25222906e-01  0.00000000e+00  0.00000000e+00
 -5.34253448e-01  0.00000000e+00  0.00000000e+00  0.00000000e+00  0.00000000e+00
  0.00000000e+00  7.25222906e-01  0.00000000e+00  0.00000000e+00 -5.34253448e-01
  0.00000000e+00  0.00000000e+00  7.25603157e-03  1.41206565e-01  9.13937370e-02
  0.00000000e+00  0.00000000e+00  6.92758280e-01  0.00000000e+00  0.00000000e+00
 -7.67648557e-01  7.25603157e-03  1.41206565e-01  9.13937370e-02  0.00000000e+00
  0.00000000e+00 -6.92758280e-01  0.00000000e+00  0.00000000e+00  7.67648557e-01
  0.00000000e+00  0.00000000e+00  0.00000000e+00  0.00000000e+00  7.12029992e-01
  0.00000000e+00  0.00000000e+00 -8.83984643e-01  0.00000000e+00  0.00000000e+00
  0.00000000e+00  0.00000000e+00  0.00000000e+00 -7.12029992e-01  0.00000000e+00
  0.00000000e+00  8.83984643e-01  0.00000000e+00  0.00000000e+00  0.00000000e+00
  0.00000000e+00  7.12029992e-01  0.00000000e+00  0.00000000e+00 -8.83984643e-01
  0.00000000e+00  0.00000000e+00  0.00000000e+00  0.00000000e+00  0.00000000e+00
 -7.12029992e-01  0.00000000e+00  0.00000000e+00  8.83984643e-01  0.00000000e+00
  0.00000000e+00  4.33895389e-02 -2.90362447e-01  2.58932376e+00  0.00000000e+00
  0.00000000e+00 -7.02032327e-01  0.00000000e+00  0.00000000e+00  2.13559674e+00
 -4.33895389e-02  2.90362447e-01 -2.58932376e+00  0.00000000e+00  0.00000000e+00
 -7.02032327e-01  0.00000000e+00  0.00000000e+00  2.13559674e+00
Spin SCF Density                           R   N=         171
  7.88254341e-03 -2.36837023e-02  6.58429165e-02 -1.68237386e-02  4.62779438e-02
  3.71758400e-02  0.00000000e+00  0.00000000e+00  0.00000000e+00  2.36417314e-01
  0.00000000e+00  0.00000000e+00  0.00000000e+00  0.00000000e+00  2.36417314e-01
 -9.02780324e-04 -1.94143972e-03  2.65146392e-03  0.00000000e+00  0.00000000e+00
  9.82061983e-04  0.00000000e+00  0.00000000e+00  0.00000000e+00  2.40531564e-01
  0.00000000e+00  0.00000000e+00  2.48962405e-01  0.00000000e+00  0.00000000e+00
  0.00000000e+00  0.00000000e+00  2.40531564e-01  0.00000000e+00  0.00000000e+00
  2.48962405e-01 -1.63790796e-02  2.87408557e-02  4.27046571e-02  0.00000000e+00
  0.00000000e+00 -1.23324096e-02  0.00000000e+00  0.00000000e+00 -1.55980368e-02
 -2.58126965e-03  4.67546258e-03  2.31273927e-02  0.00000000e+00  0.00000000e+00
  3.47302775e-03  0.00000000e+00  0.00000000e+00  1.87567216e-02  7.88254341e-03
  4.67546258e-03 -9.38046123e-03 -4.62477680e-02  0.00000000e+00  0.00000000e+00
 -6.66087211e-03  0.00000000e+00  0.00000000e+00 -3.86347211e-02 -2.36837023e-02
  6.58429165e-02  2.31273927e-02 -4.62477680e-02 -7.64299848e-02  0.00000000e+00
  0.00000000e+00 -2.21167306e-04  0.00000000e+00  0.00000000e+00 -3.19362990e-02
 -1.68237386e-02  4.62779438e-02  3.71758400e-02  0.00000000e+00  0.00000000e+00
  0.00000000e+00 -1.56403883e-01  0.00000000e+00  0.00000000e+00 -2.29555094e-01
  0.00000000e+00  0.00000000e+00  0.00000000e+00  0.00000000e+00  0.00000000e+00
  2.36417314e-01  0.00000000e+00  0.00000000e+00  0.00000000e+00  0.00000000e+00
 -1.56403883e-01  0.00000000e+00  0.00000000e+00 -2.29555094e-01  0.00000000e+00
  0.00000000e+00  0.00000000e+00  0.00000000e+00  0.00000000e+00  2.36417314e-01
 -3.47302775e-03  6.66087211e-03  2.21167306e-04  0.00000000e+00  0.00000000e+00
 -1.03228637e-02  0.00000000e+00  0.00000000e+00 -1.17581110e-02  9.02780324e-04
  1.94143972e-03 -2.65146392e-03  0.00000000e+00  0.00000000e+00  9.82061983e-04
  0.00000000e+00  0.00000000e+00  0.00000000e+00 -2.29555094e-01  0.00000000e+00
  0.00000000e+00 -3.13587345e-01  0.00000000e+00  0.00000000e+00  0.00000000e+00
  0.00000000e+00  0.00000000e+00  2.40531564e-01  0.00000000e+00  0.00000000e+00
  2.48962405e-01  0.00000000e+00  0.00000000e+00  0.00000000e+00  0.00000000e+00
 -2.29555094e-01  0.00000000e+00  0.00000000e+00 -3.13587345e-01  0.00000000e+00
  0.00000000e+00  0.00000000e+00  0.00000000e+00  0.00000000e+00  2.40531564e-01
  0.00000000e+00  0.00000000e+00  2.48962405e-01 -1.87567216e-02  3.86347211e-02
  3.19362990e-02  0.00000000e+00  0.00000000e+00 -1.17581110e-02  0.00000000e+00
  0.00000000e+00 -7.05408653e-03  1.63790796e-02 -2.87408557e-02 -4.27046571e-02
  0.00000000e+00  0.00000000e+00 -1.23324096e-02  0.00000000e+00  0.00000000e+00
 -1.55980368e-02
Spin CC Density                            R   N=         171
  1.78578623e-03 -1.58008994e-02  3.57979967e-02 -1.70843712e-02  5.47030794e-02
  1.79126629e-02  0.00000000e+00  0.00000000e+00  0.00000000e+00  2.20035244e-01
  0.00000000e+00  0.00000000e+00  0.00000000e+00  0.00000000e+00  2.29932600e-01
 -1.88656290e-03  5.11621303e-03 -2.27822481e-03  0.00000000e+00  0.00000000e+00
  5.85970672e-03  0.00000000e+00  0.00000000e+00  0.00000000e+00  2.46573543e-01
  0.00000000e+00  0.00000000e+00  2.47536808e-01  0.00000000e+00  0.00000000e+00
  0.00000000e+00  0.00000000e+00  2.37125165e-01  0.00000000e+00  0.00000000e+00
  2.62675970e-01 -1.39894305e-02  2.50753872e-02  4.23918976e-02  0.00000000e+00
  0.00000000e+00 -9.36088857e-03  0.00000000e+00  0.00000000e+00 -1.24701820e-02
 -2.91945125e-04  1.23058137e-02  1.34794004e-02  0.00000000e+00  0.00000000e+00
  1.01811227e-03  0.00000000e+00  0.00000000e+00  1.61476126e-02  1.78578623e-03
  1.23058137e-02 -3.81025726e-02 -2.22305633e-02  0.00000000e+00  0.00000000e+00
  2.89514516e-03  0.00000000e+00  0.00000000e+00 -3.30265163e-02 -1.58008994e-02
  3.57979967e-02  1.34794004e-02 -2.22305633e-02 -7.05997590e-02  0.00000000e+00
  0.00000000e+00 -7.86373786e-03  0.00000000e+00  0.00000000e+00 -3.06088290e-02
 -1.70843712e-02  5.47030794e-02  1.79126629e-02  0.00000000e+00  0.00000000e+00
  0.00000000e+00 -1.53355793e-01  0.00000000e+00  0.00000000e+00 -2.37961554e-01
  0.00000000e+00  0.00000000e+00  0.00000000e+00  0.00000000e+00  0.00000000e+00
  2.20035244e-01  0.00000000e+00  0.00000000e+00  0.00000000e+00  0.00000000e+00
 -1.61592290e-01  0.00000000e+00  0.00000000e+00 -2.26991370e-01  0.00000000e+00
  0.00000000e+00  0.00000000e+00  0.00000000e+00  0.00000000e+00  2.29932600e-01
 -1.01811227e-03 -2.89514516e-03  7.86373786e-03  0.00000000e+00  0.00000000e+00
 -1.02232274e-02  0.00000000e+00  0.00000000e+00 -6.52151753e-03  1.88656290e-03
 -5.11621303e-03  2.27822481e-03  0.00000000e+00  0.00000000e+00  5.85970672e-03
  0.00000000e+00  0.00000000e+00  0.00000000e+00 -2.37961554e-01  0.00000000e+00
  0.00000000e+00 -2.85308615e-01  0.00000000e+00  0.00000000e+00  0.00000000e+00
  0.00000000e+00  0.00000000e+00  2.46573543e-01  0.00000000e+00  0.00000000e+00
  2.47536808e-01  0.00000000e+00  0.00000000e+00  0.00000000e+00  0.00000000e+00
 -2.26991370e-01  0.00000000e+00  0.00000000e+00 -2.99053382e-01  0.00000000e+00
  0.00000000e+00  0.00000000e+00  0.00000000e+00  0.00000000e+00  2.37125165e-01
  0.00000000e+00  0.00000000e+00  2.62675970e-01 -1.61476126e-02  3.30265163e-02
  3.06088290e-02  0.00000000e+00  0.00000000e+00 -6.52151753e-03  0.00000000e+00
  0.00000000e+00  2.30674425e-03  1.39894305e-02 -2.50753872e-02 -4.23918976e-02
  0.00000000e+00  0.00000000e+00 -9.36088857e-03  0.00000000e+00  0.00000000e+00
 -1.24701820e-02
Cartesian Gradient                         R   N=           6
  0.00000000e+00  0.00000000e+00  3.64914310e-01  0.00000000e+00  0.00000000e+00
 -3.64914310e-01
