Generated by Psi4
     FORCE                           UHF                       PCSEG-0
Number of atoms                            I                2
Charge                                     I                0
Multiplicity                               I                3
Number of electrons                        I               16
Number of alpha electrons                  I                9
Number of beta electrons                   I                7
Number of basis functions                  I               18
Number of independent functions            I               18
Atomic numbers                             I   N=           2
           8           8
Nuclear charges                            R   N=           2
  8.00000000e+00  8.00000000e+00
Current cartesian coordinates              R   N=           6
  0.00000000e+00  0.00000000e+00 -1.03934937e+00  0.00000000e+00  0.00000000e+00
  1.03934937e+00
Integer atomic weights                     I   N=           2
          16          16
Real atomic weights                        R   N=           2
  1.59949146e+01  1.59949146e+01
Number of primitive shells                 I               18
Number of contracted shells                I               10
Pure/Cartesian d shells                    I                0
Pure/Cartesian f shells                    I                0
Highest angular momentum                   I                1
Largest degree of contraction              I                4
Shell types                                I   N=          10
           0           0           0           1           1           0
           0           0           1           1
Number of primitives per shell             I   N=          10
           4           1           1           2           1           4
           1           1           2           1
Shell to atom map                          I   N=          10
           1           1           1           1           1           2
           2           2           2           2
Primitive exponents                        R   N=          18
  8.64900000e+02  1.30531000e+02  2.92551000e+01  7.76965000e+00  8.69788000e-01
  2.69783000e-01  8.30553000e+00  1.69516000e+00  3.57951000e-01  8.64900000e+02
  1.30531000e+02  2.92551000e+01  7.76965000e+00  8.69788000e-01  2.69783000e-01
  8.30553000e+00  1.69516000e+00  3.57951000e-01
Contraction coefficients                   R   N=          18
  1.78601010e-02  1.24649764e-01  4.38570969e-01  5.55523813e-01  1.00000000e+00
  1.00000000e+00  2.27970846e-01  8.68797958e-01  1.00000000e+00  1.78601010e-02
  1.24649764e-01  4.38570969e-01  5.55523813e-01  1.00000000e+00  1.00000000e+00
  2.27970846e-01  8.68797958e-01  1.00000000e+00
Coordinates of each shell                  R   N=          30
  0.00000000e+00  0.00000000e+00 -1.03934937e+00  0.00000000e+00  0.00000000e+00
 -1.03934937e+00  0.00000000e+00  0.00000000e+00 -1.03934937e+00  0.00000000e+00
  0.00000000e+00 -1.03934937e+00  0.00000000e+00  0.00000000e+00 -1.03934937e+00
  0.00000000e+00  0.00000000e+00  1.03934937e+00  0.00000000e+00  0.00000000e+00
  1.03934937e+00  0.00000000e+00  0.00000000e+00  1.03934937e+00  0.00000000e+00
  0.00000000e+00  1.03934937e+00  0.00000000e+00  0.00000000e+00  1.03934937e+00
Total Energy                               R     -1.496864605246914e+02
Alpha Orbital Energies                     R   N=          18
 -1.89006058e+01 -1.89001856e+01 -1.35998472e+00 -6.99459854e-01 -5.46026776e-01
 -5.46026776e-01 -4.89339372e-01 -2.10570786e-01 -2.10570786e-01  3.34027034e-01
  7.54156993e-01  9.30307818e-01  1.19778987e+00  1.19778987e+00  1.31804008e+00
  1.31804008e+00  1.35978190e+00  1.46631930e+00
Alpha MO coefficients                      R   N=         324
  6.95634080e-01  3.80211571e-02 -2.29277632e-02  0.00000000e+00  0.00000000e+00
  3.34966112e-03  0.00000000e+00  0.00000000e+00 -5.26750093e-03 -6.95634080e-01
 -3.80211571e-02  2.29277632e-02  0.00000000e+00  0.00000000e+00  3.34966112e-03
  0.00000000e+00  0.00000000e+00 -5.26750093e-03  6.96354043e-01  3.52183228e-02
 -1.11123998e-02  0.00000000e+00  0.00000000e+00  1.06881617e-03  0.00000000e+00
  0.00000000e+00 -1.52920584e-03  6.96354043e-01  3.52183228e-02 -1.11123998e-02
  0.00000000e+00  0.00000000e+00 -1.06881617e-03  0.00000000e+00  0.00000000e+00
  1.52920584e-03  2.09021673e-01 -3.94753768e-01 -1.59273678e-01  0.00000000e+00
  0.00000000e+00 -2.03899335e-01  0.00000000e+00  0.00000000e+00 -1.03550368e-01
  2.09021673e-01 -3.94753768e-01 -1.59273678e-01  0.00000000e+00  0.00000000e+00
  2.03899335e-01  0.00000000e+00  0.00000000e+00  1.03550368e-01  2.24285613e-01
 -4.30736386e-01 -5.02881770e-01  0.00000000e+00  0.00000000e+00  1.12106620e-01
  0.00000000e+00  0.00000000e+00  3.17267996e-02 -2.24285613e-01  4.30736386e-01
  5.02881770e-01  0.00000000e+00  0.00000000e+00  1.12106620e-01  0.00000000e+00
  0.00000000e+00  3.17267996e-02  0.00000000e+00  0.00000000e+00  0.00000000e+00
  3.80165927e-01  0.00000000e+00  0.00000000e+00  3.62006505e-01  0.00000000e+00
  0.00000000e+00  0.00000000e+00  0.00000000e+00  0.00000000e+00  3.80165927e-01
  0.00000000e+00  0.00000000e+00  3.62006505e-01  0.00000000e+00  0.00000000e+00
  0.00000000e+00  0.00000000e+00  0.00000000e+00  0.00000000e+00  3.80165927e-01
  0.00000000e+00  0.00000000e+00  3.62006505e-01  0.00000000e+00  0.00000000e+00
  0.00000000e+00  0.00000000e+00  0.00000000e+00  3.80165927e-01  0.00000000e+00
  0.00000000e+00  3.62006505e-01  0.00000000e+00  8.46940479e-02 -1.31217639e-01
 -3.04115483e-01  0.00000000e+00  0.00000000e+00  3.85431136e-01  0.00000000e+00
  0.00000000e+00  3.07879735e-01  8.46940479e-02 -1.31217639e-01 -3.04115483e-01
  0.00000000e+00  0.00000000e+00 -3.85431136e-01  0.00000000e+00  0.00000000e+00
 -3.07879735e-01  0.00000000e+00  0.00000000e+00  0.00000000e+00  4.42171571e-01
  0.00000000e+00  0.00000000e+00  5.31778152e-01  0.00000000e+00  0.00000000e+00
  0.00000000e+00  0.00000000e+00  0.00000000e+00 -4.42171571e-01  0.00000000e+00
  0.00000000e+00 -5.31778152e-01  0.00000000e+00  0.00000000e+00  0.00000000e+00
  0.00000000e+00  0.00000000e+00  0.00000000e+00  4.42171571e-01  0.00000000e+00
  0.00000000e+00  5.31778152e-01  0.00000000e+00  0.00000000e+00  0.00000000e+00
  0.00000000e+00  0.00000000e+00 -4.42171571e-01  0.00000000e+00  0.00000000e+00
 -5.31778152e-01  0.00000000e+00  1.43743024e-01 -3.76152720e-01 -1.26802060e+00
  0.00000000e+00  0.00000000e+00 -4.63148321e-01  0.00000000e+00  0.00000000e+00
 -1.24289090e+00 -1.43743024e-01  3.76152720e-01  1.26802060e+00  0.00000000e+00
  0.00000000e+00 -4.63148321e-01  0.00000000e+00  0.00000000e+00 -1.24289090e+00
  2.36243965e-01 -1.19600012e+00  9.65760779e-01  0.00000000e+00  0.00000000e+00
  5.78854901e-02  0.00000000e+00  0.00000000e+00  7.70174765e-02  2.36243965e-01
 -1.19600012e+00  9.65760779e-01  0.00000000e+00  0.00000000e+00 -5.78854901e-02
  0.00000000e+00  0.00000000e+00 -7.70174765e-02  2.16514553e-01 -1.17101320e+00
  2.57200502e+00  0.00000000e+00  0.00000000e+00  1.95467848e-01  0.00000000e+00
  0.00000000e+00  7.87832513e-01 -2.16514553e-01  1.17101320e+00 -2.57200502e+00
  0.00000000e+00  0.00000000e+00  1.95467848e-01  0.00000000e+00  0.00000000e+00
  7.87832513e-01  0.00000000e+00  0.00000000e+00  0.00000000e+00  7.01462227e-01
  0.00000000e+00  0.00000000e+00 -5.59604396e-01  0.00000000e+00  0.00000000e+00
  0.00000000e+00  0.00000000e+00  0.00000000e+00  7.01462227e-01  0.00000000e+00
  0.00000000e+00 -5.59604396e-01  0.00000000e+00  0.00000000e+00  0.00000000e+00
  0.00000000e+00  0.00000000e+00  0.00000000e+00  7.01462227e-01  0.00000000e+00
  0.00000000e+00 -5.59604396e-01  0.00000000e+00  0.00000000e+00  0.00000000e+00
  0.00000000e+00  0.00000000e+00  7.01462227e-01  0.00000000e+00  0.00000000e+00
 -5.59604396e-01  0.00000000e+00  0.00000000e+00  0.00000000e+00  0.00000000e+00
  0.00000000e+00  6.70136984e-01  0.00000000e+00  0.00000000e+00 -9.43630712e-01
  0.00000000e+00  0.00000000e+00  0.00000000e+00  0.00000000e+00  0.00000000e+00
 -6.70136984e-01  0.00000000e+00  0.00000000e+00  9.43630712e-01  0.00000000e+00
  0.00000000e+00  0.00000000e+00  0.00000000e+00  6.70136984e-01  0.00000000e+00
  0.00000000e+00 -9.43630712e-01  0.00000000e+00  0.00000000e+00  0.00000000e+00
  0.00000000e+00  0.00000000e+00 -6.70136984e-01  0.00000000e+00  0.00000000e+00
  9.43630712e-01  0.00000000e+00  0.00000000e+00  4.12341196e-04  1.77826071e-01
  6.60415382e-02  0.00000000e+00  0.00000000e+00  6.81061875e-01  0.00000000e+00
  0.00000000e+00 -7.78393036e-01  4.12341196e-04  1.77826071e-01  6.60415382e-02
  0.00000000e+00  0.00000000e+00 -6.81061875e-01  0.00000000e+00  0.00000000e+00
  7.78393036e-01  3.77606430e-02 -3.03004092e-01  2.86526570e+00  0.00000000e+00
  0.00000000e+00 -6.46724224e-01  0.00000000e+00  0.00000000e+00  2.32492120e+00
 -3.77606430e-02  3.03004092e-01 -2.86526570e+00  0.00000000e+00  0.00000000e+00
 -6.46724224e-01  0.00000000e+00  0.00000000e+00  2.32492120e+00
Total SCF Density                          R   N=         171
  2.13689739e+00 -2.69088608e-01  6.95960058e-01 -3.86059210e-01  6.21441758e-01
  7.36183062e-01  0.00000000e+00  0.00000000e+00  0.00000000e+00  4.72282602e-01
  0.00000000e+00  0.00000000e+00  0.00000000e+00  0.00000000e+00  4.72282602e-01
  3.66712376e-02 -3.56710346e-02 -2.83561312e-01  0.00000000e+00  0.00000000e+00
  4.03961294e-01  0.00000000e+00  0.00000000e+00  0.00000000e+00  5.09128499e-01
  0.00000000e+00  0.00000000e+00  5.54462359e-01  0.00000000e+00  0.00000000e+00
  0.00000000e+00  0.00000000e+00  5.09128499e-01  0.00000000e+00  0.00000000e+00
  5.54462359e-01  1.91754577e-02 -3.61946915e-02 -2.01121334e-01  0.00000000e+00
  0.00000000e+00  2.90476024e-01  0.00000000e+00  0.00000000e+00  2.17734059e-01
  4.01141823e-03  4.49208387e-04  1.16358685e-01  0.00000000e+00  0.00000000e+00
 -7.43358796e-02  0.00000000e+00  0.00000000e+00 -6.67667573e-03  2.13689739e+00
  4.49208387e-04 -2.17662038e-02 -2.11765697e-01  0.00000000e+00  0.00000000e+00
  1.57517423e-01  0.00000000e+00  0.00000000e+00  4.14310297e-02 -2.69088608e-01
  6.95960058e-01  1.16358685e-01 -2.11765697e-01 -2.48804169e-01  0.00000000e+00
  0.00000000e+00 -5.56386902e-02  0.00000000e+00  0.00000000e+00 -1.11129040e-01
 -3.86059210e-01  6.21441758e-01  7.36183062e-01  0.00000000e+00  0.00000000e+00
  0.00000000e+00  8.12512063e-02  0.00000000e+00  0.00000000e+00  3.88541373e-02
  0.00000000e+00  0.00000000e+00  0.00000000e+00  0.00000000e+00  0.00000000e+00
  4.72282602e-01  0.00000000e+00  0.00000000e+00  0.00000000e+00  0.00000000e+00
  8.12512063e-02  0.00000000e+00  0.00000000e+00  3.88541373e-02  0.00000000e+00
  0.00000000e+00  0.00000000e+00  0.00000000e+00  0.00000000e+00  4.72282602e-01
  7.43358796e-02 -1.57517423e-01  5.56386902e-02  0.00000000e+00  0.00000000e+00
 -3.51128177e-01  0.00000000e+00  0.00000000e+00 -2.69335082e-01 -3.66712376e-02
  3.56710346e-02  2.83561312e-01  0.00000000e+00  0.00000000e+00  4.03961294e-01
  0.00000000e+00  0.00000000e+00  0.00000000e+00  3.88541373e-02  0.00000000e+00
  0.00000000e+00 -1.11136472e-02  0.00000000e+00  0.00000000e+00  0.00000000e+00
  0.00000000e+00  0.00000000e+00  5.09128499e-01  0.00000000e+00  0.00000000e+00
  5.54462359e-01  0.00000000e+00  0.00000000e+00  0.00000000e+00  0.00000000e+00
  3.88541373e-02  0.00000000e+00  0.00000000e+00 -1.11136472e-02  0.00000000e+00
  0.00000000e+00  0.00000000e+00  0.00000000e+00  0.00000000e+00  5.09128499e-01
  0.00000000e+00  0.00000000e+00  5.54462359e-01  6.67667573e-03 -4.14310297e-02
  1.11129040e-01  0.00000000e+00  0.00000000e+00 -2.69335082e-01  0.00000000e+00
  0.00000000e+00 -2.08423967e-01 -1.91754577e-02  3.61946915e-02  2.01121334e-01
  0.00000000e+00  0.00000000e+00  2.90476024e-01  0.00000000e+00  0.00000000e+00
  2.17734059e-01
Beta Orbital Energies                      R   N=          18
 -1.88746649e+01 -1.88743431e+01 -1.31518451e+00 -6.36114124e-01 -4.76976477e-01
 -4.76976477e-01 -4.52530346e-01 -1.25850686e-01 -1.25850686e-01  3.76858855e-01
  7.88892654e-01  9.73804264e-01  1.26308221e+00  1.26308221e+00  1.37630511e+00
  1.38617730e+00  1.38617730e+00  1.49056163e+00
Beta MO coefficients                       R   N=         324
  6.95936380e-01  3.70281520e-02 -2.23640562e-02  0.00000000e+00  0.00000000e+00
  3.29510471e-03  0.00000000e+00  0.00000000e+00 -5.23834167e-03 -6.95936380e-01
 -3.70281520e-02  2.23640562e-02  0.00000000e+00  0.00000000e+00  3.29510471e-03
  0.00000000e+00  0.00000000e+00 -5.23834167e-03  6.96618163e-01  3.43346937e-02
 -1.07677525e-02  0.00000000e+00  0.00000000e+00  1.08850431e-03  0.00000000e+00
  0.00000000e+00 -1.48740693e-03  6.96618163e-01  3.43346937e-02 -1.07677525e-02
  0.00000000e+00  0.00000000e+00 -1.08850431e-03  0.00000000e+00  0.00000000e+00
  1.48740693e-03  2.04861869e-01 -3.80646964e-01 -1.63201338e-01  0.00000000e+00
  0.00000000e+00 -2.09940338e-01  0.00000000e+00  0.00000000e+00 -1.10810723e-01
  2.04861869e-01 -3.80646964e-01 -1.63201338e-01  0.00000000e+00  0.00000000e+00
  2.09940338e-01  0.00000000e+00  0.00000000e+00  1.10810723e-01  2.18871499e-01
 -4.12931719e-01 -4.88444170e-01  0.00000000e+00  0.00000000e+00  1.17586506e-01
  0.00000000e+00  0.00000000e+00  5.99438839e-02 -2.18871499e-01  4.12931719e-01
  4.88444170e-01  0.00000000e+00  0.00000000e+00  1.17586506e-01  0.00000000e+00
  0.00000000e+00  5.99438839e-02  0.00000000e+00  0.00000000e+00  0.00000000e+00
  3.63649243e-01  0.00000000e+00  0.00000000e+00  3.75000861e-01  0.00000000e+00
  0.00000000e+00  0.00000000e+00  0.00000000e+00  0.00000000e+00  3.63649243e-01
  0.00000000e+00  0.00000000e+00  3.75000861e-01  0.00000000e+00  0.00000000e+00
  0.00000000e+00  0.00000000e+00  0.00000000e+00  0.00000000e+00  3.63649243e-01
  0.00000000e+00  0.00000000e+00  3.75000861e-01  0.00000000e+00  0.00000000e+00
  0.00000000e+00  0.00000000e+00  0.00000000e+00  3.63649243e-01  0.00000000e+00
  0.00000000e+00  3.75000861e-01  0.00000000e+00  8.62383928e-02 -1.29371592e-01
 -3.14580685e-01  0.00000000e+00  0.00000000e+00  3.78596570e-01  0.00000000e+00
  0.00000000e+00  3.08679180e-01  8.62383928e-02 -1.29371592e-01 -3.14580685e-01
  0.00000000e+00  0.00000000e+00 -3.78596570e-01  0.00000000e+00  0.00000000e+00
 -3.08679180e-01  0.00000000e+00  0.00000000e+00  0.00000000e+00  0.00000000e+00
  4.27542413e-01  0.00000000e+00  0.00000000e+00  5.52106498e-01  0.00000000e+00
  0.00000000e+00  0.00000000e+00  0.00000000e+00  0.00000000e+00 -4.27542413e-01
  0.00000000e+00  0.00000000e+00 -5.52106498e-01  0.00000000e+00  0.00000000e+00
  0.00000000e+00  0.00000000e+00  4.27542413e-01  0.00000000e+00  0.00000000e+00
  5.52106498e-01  0.00000000e+00  0.00000000e+00  0.00000000e+00  0.00000000e+00
  0.00000000e+00 -4.27542413e-01  0.00000000e+00  0.00000000e+00 -5.52106498e-01
  0.00000000e+00  0.00000000e+00  1.45104750e-01 -3.67691327e-01 -1.33678384e+00
  0.00000000e+00  0.00000000e+00 -4.57141186e-01  0.00000000e+00  0.00000000e+00
 -1.27298070e+00 -1.45104750e-01  3.67691327e-01  1.33678384e+00  0.00000000e+00
  0.00000000e+00 -4.57141186e-01  0.00000000e+00  0.00000000e+00 -1.27298070e+00
  2.38501400e-01 -1.20348992e+00  9.60646901e-01  0.00000000e+00  0.00000000e+00
  4.78164944e-02  0.00000000e+00  0.00000000e+00  9.08612219e-02  2.38501400e-01
 -1.20348992e+00  9.60646901e-01  0.00000000e+00  0.00000000e+00 -4.78164944e-02
  0.00000000e+00  0.00000000e+00 -9.08612219e-02  2.19825178e-01 -1.17771690e+00
  2.53324254e+00  0.00000000e+00  0.00000000e+00  1.94879313e-01  0.00000000e+00
  0.00000000e+00  7.58140176e-01 -2.19825178e-01  1.17771690e+00 -2.53324254e+00
  0.00000000e+00  0.00000000e+00  1.94879313e-01  0.00000000e+00  0.00000000e+00
  7.58140176e-01  0.00000000e+00  0.00000000e+00  0.00000000e+00  7.10165204e-01
  0.00000000e+00  0.00000000e+00 -5.50981074e-01  0.00000000e+00  0.00000000e+00
  0.00000000e+00  0.00000000e+00  0.00000000e+00  7.10165204e-01  0.00000000e+00
  0.00000000e+00 -5.50981074e-01  0.00000000e+00  0.00000000e+00  0.00000000e+00
  0.00000000e+00  0.00000000e+00  0.00000000e+00  7.10165204e-01  0.00000000e+00
  0.00000000e+00 -5.50981074e-01  0.00000000e+00  0.00000000e+00  0.00000000e+00
  0.00000000e+00  0.00000000e+00  7.10165204e-01  0.00000000e+00  0.00000000e+00
 -5.50981074e-01  0.00000000e+00  4.27176034e-03  1.58528707e-01  8.04927663e-02
  0.00000000e+00  0.00000000e+00  6.83835755e-01  0.00000000e+00  0.00000000e+00
 -7.75578837e-01  4.27176034e-03  1.58528707e-01  8.04927663e-02  0.00000000e+00
  0.00000000e+00 -6.83835755e-01  0.00000000e+00  0.00000000e+00  7.75578837e-01
  0.00000000e+00  0.00000000e+00  0.00000000e+00  0.00000000e+00  6.79563654e-01
  0.00000000e+00  0.00000000e+00 -9.31882685e-01  0.00000000e+00  0.00000000e+00
  0.00000000e+00  0.00000000e+00  0.00000000e+00 -6.79563654e-01  0.00000000e+00
  0.00000000e+00  9.31882685e-01  0.00000000e+00  0.00000000e+00  0.00000000e+00
  0.00000000e+00  6.79563654e-01  0.00000000e+00  0.00000000e+00 -9.31882685e-01
  0.00000000e+00  0.00000000e+00  0.00000000e+00  0.00000000e+00  0.00000000e+00
 -6.79563654e-01  0.00000000e+00  0.00000000e+00  9.31882685e-01  0.00000000e+00
  0.00000000e+00  3.95803998e-02 -3.12179421e-01  2.87103861e+00  0.00000000e+00
  0.00000000e+00 -6.50193763e-01  0.00000000e+00  0.00000000e+00  2.31794600e+00
 -3.95803998e-02  3.12179421e-01 -2.87103861e+00  0.00000000e+00  0.00000000e+00
 -6.50193763e-01  0.00000000e+00  0.00000000e+00  2.31794600e+00
Spin SCF Density                           R   N=         171
  3.06841535e-03 -9.43176432e-03  2.65766990e-02 -4.99092189e-03  1.48093944e-02
  6.60408683e-03  0.00000000e+00  0.00000000e+00  0.00000000e+00  2.07801058e-01
  0.00000000e+00  0.00000000e+00  0.00000000e+00  0.00000000e+00  2.07801058e-01
 -1.85921836e-04 -7.46431685e-04  1.15164812e-03  0.00000000e+00  0.00000000e+00
  1.46341907e-03  0.00000000e+00  0.00000000e+00  0.00000000e+00  2.36390940e-01
  0.00000000e+00  0.00000000e+00  2.73211067e-01  0.00000000e+00  0.00000000e+00
  0.00000000e+00  0.00000000e+00  2.36390940e-01  0.00000000e+00  0.00000000e+00
  2.73211067e-01 -5.53935247e-03  9.30994516e-03  1.52109135e-02  0.00000000e+00
  0.00000000e+00 -3.84043866e-03  0.00000000e+00  0.00000000e+00 -4.63548951e-03
 -8.88845954e-04  1.66706597e-03  7.54510070e-03  0.00000000e+00  0.00000000e+00
  9.25033309e-04  0.00000000e+00  0.00000000e+00  6.50633489e-03  3.06841535e-03
  1.66706597e-03 -3.61480862e-03 -1.49340954e-02  0.00000000e+00  0.00000000e+00
 -1.29071931e-03  0.00000000e+00  0.00000000e+00 -1.28511222e-02 -9.43176432e-03
  2.65766990e-02  7.54510070e-03 -1.49340954e-02 -2.20717106e-02  0.00000000e+00
  0.00000000e+00 -9.58270227e-04  0.00000000e+00  0.00000000e+00 -1.14451524e-02
 -4.99092189e-03  1.48093944e-02  6.60408683e-03  0.00000000e+00  0.00000000e+00
  0.00000000e+00 -1.83230337e-01  0.00000000e+00  0.00000000e+00 -2.33883421e-01
  0.00000000e+00  0.00000000e+00  0.00000000e+00  0.00000000e+00  0.00000000e+00
  2.07801058e-01  0.00000000e+00  0.00000000e+00  0.00000000e+00  0.00000000e+00
 -1.83230337e-01  0.00000000e+00  0.00000000e+00 -2.33883421e-01  0.00000000e+00
  0.00000000e+00  0.00000000e+00  0.00000000e+00  0.00000000e+00  2.07801058e-01
 -9.25033309e-04  1.29071931e-03  9.58270227e-04  0.00000000e+00  0.00000000e+00
 -3.98007804e-03  0.00000000e+00  0.00000000e+00 -3.14394341e-03  1.85921836e-04
  7.46431685e-04 -1.15164812e-03  0.00000000e+00  0.00000000e+00  1.46341907e-03
  0.00000000e+00  0.00000000e+00  0.00000000e+00 -2.33883421e-01  0.00000000e+00
  0.00000000e+00 -2.92364939e-01  0.00000000e+00  0.00000000e+00  0.00000000e+00
  0.00000000e+00  0.00000000e+00  2.36390940e-01  0.00000000e+00  0.00000000e+00
  2.73211067e-01  0.00000000e+00  0.00000000e+00  0.00000000e+00  0.00000000e+00
 -2.33883421e-01  0.00000000e+00  0.00000000e+00 -2.92364939e-01  0.00000000e+00
  0.00000000e+00  0.00000000e+00  0.00000000e+00  0.00000000e+00  2.36390940e-01
  0.00000000e+00  0.00000000e+00  2.73211067e-01 -6.50633489e-03  1.28511222e-02
  1.14451524e-02  0.00000000e+00  0.00000000e+00 -3.14394341e-03  0.00000000e+00
  0.00000000e+00 -5.37256619e-04  5.53935247e-03 -9.30994516e-03 -1.52109135e-02
  0.00000000e+00  0.00000000e+00 -3.84043866e-03  0.00000000e+00  0.00000000e+00
 -4.63548951e-03
Cartesian Gradient                         R   N=           6
 -7.88860905e-31  0.00000000e+00  3.75244158e-01  0.00000000e+00  0.00000000e+00
 -3.75244158e-01
