Generated by Psi4
     FORCE                           UHF                       PCSEG-0
Number of atoms                            I                2
Charge                                     I                0
Multiplicity                               I                3
Number of electrons                        I               16
Number of alpha electrons                  I                9
Number of beta electrons                   I                7
Number of basis functions                  I               18
Number of independent functions            I               18
Atomic numbers                             I   N=           2
           8           8
Nuclear charges                            R   N=           2
  8.00000000e+00  8.00000000e+00
Current cartesian coordinates              R   N=           6
  0.00000000e+00  0.00000000e+00 -1.03934937e+00  0.00000000e+00  0.00000000e+00
  1.03934937e+00
Integer atomic weights                     I   N=           2
          16          16
Real atomic weights                        R   N=           2
  1.59949146e+01  1.59949146e+01
Number of primitive shells                 I               18
Number of contracted shells                I               10
Pure/Cartesian d shells                    I                0
Pure/Cartesian f shells                    I                0
Highest angular momentum                   I                1
Largest degree of contraction              I                4
Shell types                                I   N=          10
           0           0           0           1           1           0
           0           0           1           1
Number of primitives per shell             I   N=          10
           4           1           1           2           1           4
           1           1           2           1
Shell to atom map                          I   N=          10
           1           1           1           1           1           2
           2           2           2           2
Primitive exponents                        R   N=          18
  8.64900000e+02  1.30531000e+02  2.92551000e+01  7.76965000e+00  8.69788000e-01
  2.69783000e-01  8.30553000e+00  1.69516000e+00  3.57951000e-01  8.64900000e+02
  1.30531000e+02  2.92551000e+01  7.76965000e+00  8.69788000e-01  2.69783000e-01
  8.30553000e+00  1.69516000e+00  3.57951000e-01
Contraction coefficients                   R   N=          18
  1.78601010e-02  1.24649764e-01  4.38570969e-01  5.55523813e-01  1.00000000e+00
  1.00000000e+00  2.27970846e-01  8.68797958e-01  1.00000000e+00  1.78601010e-02
  1.24649764e-01  4.38570969e-01  5.55523813e-01  1.00000000e+00  1.00000000e+00
  2.27970846e-01  8.68797958e-01  1.00000000e+00
Coordinates of each shell                  R   N=          30
  0.00000000e+00  0.00000000e+00 -1.03934937e+00  0.00000000e+00  0.00000000e+00
 -1.03934937e+00  0.00000000e+00  0.00000000e+00 -1.03934937e+00  0.00000000e+00
  0.00000000e+00 -1.03934937e+00  0.00000000e+00  0.00000000e+00 -1.03934937e+00
  0.00000000e+00  0.00000000e+00  1.03934937e+00  0.00000000e+00  0.00000000e+00
  1.03934937e+00  0.00000000e+00  0.00000000e+00  1.03934937e+00  0.00000000e+00
  0.00000000e+00  1.03934937e+00  0.00000000e+00  0.00000000e+00  1.03934937e+00
Total Energy                               R     -1.491064592676017e+02
Alpha Orbital Energies                     R   N=          18
 -2.07554374e+01 -2.07549085e+01 -1.87464192e+00 -1.15399164e+00 -9.05563017e-01
 -9.05563017e-01 -7.83298814e-01 -5.26637872e-01 -5.26637872e-01  6.29072290e-01
  1.04350307e+00  1.22581710e+00  1.56667510e+00  1.56667510e+00  1.67870374e+00
  1.67870374e+00  1.74190630e+00  1.88432466e+00
Alpha MO coefficients                      R   N=         324
  6.97345313e-01  3.12515354e-02 -8.76394362e-03  0.00000000e+00  0.00000000e+00
  1.39394912e-03  0.00000000e+00  0.00000000e+00 -1.34932758e-03  6.97345313e-01
  3.12515354e-02 -8.76394362e-03  0.00000000e+00  0.00000000e+00 -1.39394912e-03
  0.00000000e+00  0.00000000e+00  1.34932758e-03  6.96856824e-01  3.33678143e-02
 -1.75891706e-02  0.00000000e+00  0.00000000e+00  2.99318341e-03  0.00000000e+00
  0.00000000e+00 -3.98212508e-03 -6.96856824e-01 -3.33678143e-02  1.75891706e-02
  0.00000000e+00  0.00000000e+00  2.99318341e-03  0.00000000e+00  0.00000000e+00
 -3.98212508e-03  2.16230207e-01 -4.13557666e-01 -1.72785127e-01  0.00000000e+00
  0.00000000e+00 -1.67718772e-01  0.00000000e+00  0.00000000e+00 -8.46078104e-02
  2.16230207e-01 -4.13557666e-01 -1.72785127e-01  0.00000000e+00  0.00000000e+00
  1.67718772e-01  0.00000000e+00  0.00000000e+00  8.46078104e-02  2.25318323e-01
 -4.40707940e-01 -5.01732449e-01  0.00000000e+00  0.00000000e+00  1.14395195e-01
  0.00000000e+00  0.00000000e+00  2.10349566e-02 -2.25318323e-01  4.40707940e-01
  5.01732449e-01  0.00000000e+00  0.00000000e+00  1.14395195e-01  0.00000000e+00
  0.00000000e+00  2.10349566e-02  0.00000000e+00  0.00000000e+00  0.00000000e+00
  3.88105436e-01  0.00000000e+00  0.00000000e+00  3.55629737e-01  0.00000000e+00
  0.00000000e+00  0.00000000e+00  0.00000000e+00  0.00000000e+00  3.88105436e-01
  0.00000000e+00  0.00000000e+00  3.55629737e-01  0.00000000e+00  0.00000000e+00
  0.00000000e+00  0.00000000e+00  0.00000000e+00  0.00000000e+00  3.88105436e-01
  0.00000000e+00  0.00000000e+00  3.55629737e-01  0.00000000e+00  0.00000000e+00
  0.00000000e+00  0.00000000e+00  0.00000000e+00  3.88105436e-01  0.00000000e+00
  0.00000000e+00  3.55629737e-01  0.00000000e+00  7.11694211e-02 -1.19828605e-01
 -2.77716604e-01  0.00000000e+00  0.00000000e+00  3.92012390e-01  0.00000000e+00
  0.00000000e+00  3.26097499e-01  7.11694211e-02 -1.19828605e-01 -2.77716604e-01
  0.00000000e+00  0.00000000e+00 -3.92012390e-01  0.00000000e+00  0.00000000e+00
 -3.26097499e-01  0.00000000e+00  0.00000000e+00  0.00000000e+00  4.43178996e-01
  0.00000000e+00  0.00000000e+00  5.30358274e-01  0.00000000e+00  0.00000000e+00
  0.00000000e+00  0.00000000e+00  0.00000000e+00 -4.43178996e-01  0.00000000e+00
  0.00000000e+00 -5.30358274e-01  0.00000000e+00  0.00000000e+00  0.00000000e+00
  0.00000000e+00  0.00000000e+00  0.00000000e+00  4.43178996e-01  0.00000000e+00
  0.00000000e+00  5.30358274e-01  0.00000000e+00  0.00000000e+00  0.00000000e+00
  0.00000000e+00  0.00000000e+00 -4.43178996e-01  0.00000000e+00  0.00000000e+00
 -5.30358274e-01  0.00000000e+00  1.39292489e-01 -3.55133391e-01 -1.49699163e+00
  0.00000000e+00  0.00000000e+00 -4.01506452e-01  0.00000000e+00  0.00000000e+00
 -1.44163738e+00 -1.39292489e-01  3.55133391e-01  1.49699163e+00  0.00000000e+00
  0.00000000e+00 -4.01506452e-01  0.00000000e+00  0.00000000e+00 -1.44163738e+00
  2.31236058e-01 -1.19217127e+00  9.70976354e-01  0.00000000e+00  0.00000000e+00
  4.79108124e-02  0.00000000e+00  0.00000000e+00  7.97319735e-02  2.31236058e-01
 -1.19217127e+00  9.70976354e-01  0.00000000e+00  0.00000000e+00 -4.79108124e-02
  0.00000000e+00  0.00000000e+00 -7.97319735e-02  2.13824931e-01 -1.17933089e+00
  2.71749006e+00  0.00000000e+00  0.00000000e+00  1.65036355e-01  0.00000000e+00
  0.00000000e+00  9.04939658e-01 -2.13824931e-01  1.17933089e+00 -2.71749006e+00
  0.00000000e+00  0.00000000e+00  1.65036355e-01  0.00000000e+00  0.00000000e+00
  9.04939658e-01  0.00000000e+00  0.00000000e+00  0.00000000e+00  6.97100824e-01
  0.00000000e+00  0.00000000e+00 -5.63678348e-01  0.00000000e+00  0.00000000e+00
  0.00000000e+00  0.00000000e+00  0.00000000e+00  6.97100824e-01  0.00000000e+00
  0.00000000e+00 -5.63678348e-01  0.00000000e+00  0.00000000e+00  0.00000000e+00
  0.00000000e+00  0.00000000e+00  0.00000000e+00  6.97100824e-01  0.00000000e+00
  0.00000000e+00 -5.63678348e-01  0.00000000e+00  0.00000000e+00  0.00000000e+00
  0.00000000e+00  0.00000000e+00  6.97100824e-01  0.00000000e+00  0.00000000e+00
 -5.63678348e-01  0.00000000e+00  0.00000000e+00  0.00000000e+00  0.00000000e+00
  0.00000000e+00  6.69471174e-01  0.00000000e+00  0.00000000e+00 -9.44429471e-01
  0.00000000e+00  0.00000000e+00  0.00000000e+00  0.00000000e+00  0.00000000e+00
 -6.69471174e-01  0.00000000e+00  0.00000000e+00  9.44429471e-01  0.00000000e+00
  0.00000000e+00  0.00000000e+00  0.00000000e+00  6.69471174e-01  0.00000000e+00
  0.00000000e+00 -9.44429471e-01  0.00000000e+00  0.00000000e+00  0.00000000e+00
  0.00000000e+00  0.00000000e+00 -6.69471174e-01  0.00000000e+00  0.00000000e+00
  9.44429471e-01  0.00000000e+00  0.00000000e+00  1.51231179e-03  1.69379752e-01
  7.19727954e-02  0.00000000e+00  0.00000000e+00  6.87916099e-01  0.00000000e+00
  0.00000000e+00 -7.72971727e-01  1.51231179e-03  1.69379752e-01  7.19727954e-02
  0.00000000e+00  0.00000000e+00 -6.87916099e-01  0.00000000e+00  0.00000000e+00
  7.72971727e-01  4.09390398e-02 -2.81559433e-01  2.60930419e+00  0.00000000e+00
  0.00000000e+00 -6.94266328e-01  0.00000000e+00  0.00000000e+00  2.16195706e+00
 -4.09390398e-02  2.81559433e-01 -2.60930419e+00  0.00000000e+00  0.00000000e+00
 -6.94266328e-01  0.00000000e+00  0.00000000e+00  2.16195706e+00
Total SCF Density                          R   N=         171
  2.14109556e+00 -2.80728402e-01  6.97564558e-01 -3.60270934e-01  6.03713514e-01
  6.81051835e-01  0.00000000e+00  0.00000000e+00  0.00000000e+00  4.57659940e-01
  0.00000000e+00  0.00000000e+00  0.00000000e+00  0.00000000e+00  4.57659940e-01
  4.18352867e-02 -5.38243135e-02 -2.77353717e-01  0.00000000e+00  0.00000000e+00
  3.88821465e-01  0.00000000e+00  0.00000000e+00  0.00000000e+00  5.05599365e-01
  0.00000000e+00  0.00000000e+00  5.66532014e-01  0.00000000e+00  0.00000000e+00
  0.00000000e+00  0.00000000e+00  5.05599365e-01  0.00000000e+00  0.00000000e+00
  5.66532014e-01  2.82492750e-02 -5.57952820e-02 -2.15529169e-01  0.00000000e+00
  0.00000000e+00  3.01163111e-01  0.00000000e+00  0.00000000e+00  2.43509542e-01
  6.04811247e-03 -4.90052927e-03  1.01017258e-01  0.00000000e+00  0.00000000e+00
 -7.39841537e-02  0.00000000e+00  0.00000000e+00 -1.47369751e-02  2.14109556e+00
 -4.90052927e-03 -8.55726990e-03 -1.85901654e-01  0.00000000e+00  0.00000000e+00
  1.52152589e-01  0.00000000e+00  0.00000000e+00  4.91794041e-02 -2.80728402e-01
  6.97564558e-01  1.01017258e-01 -1.85901654e-01 -2.13567484e-01  0.00000000e+00
  0.00000000e+00 -4.46842065e-02  0.00000000e+00  0.00000000e+00 -9.89661628e-02
 -3.60270934e-01  6.03713514e-01  6.81051835e-01  0.00000000e+00  0.00000000e+00
  0.00000000e+00  6.48446952e-02  0.00000000e+00  0.00000000e+00  3.55120697e-02
  0.00000000e+00  0.00000000e+00  0.00000000e+00  0.00000000e+00  0.00000000e+00
  4.57659940e-01  0.00000000e+00  0.00000000e+00  0.00000000e+00  0.00000000e+00
  6.48446952e-02  0.00000000e+00  0.00000000e+00  3.55120697e-02  0.00000000e+00
  0.00000000e+00  0.00000000e+00  0.00000000e+00  0.00000000e+00  4.57659940e-01
  7.39841537e-02 -1.52152589e-01  4.46842065e-02  0.00000000e+00  0.00000000e+00
 -3.27101690e-01  0.00000000e+00  0.00000000e+00 -2.67500214e-01 -4.18352867e-02
  5.38243135e-02  2.77353717e-01  0.00000000e+00  0.00000000e+00  3.88821465e-01
  0.00000000e+00  0.00000000e+00  0.00000000e+00  3.55120697e-02  0.00000000e+00
  0.00000000e+00  3.97221635e-03  0.00000000e+00  0.00000000e+00  0.00000000e+00
  0.00000000e+00  0.00000000e+00  5.05599365e-01  0.00000000e+00  0.00000000e+00
  5.66532014e-01  0.00000000e+00  0.00000000e+00  0.00000000e+00  0.00000000e+00
  3.55120697e-02  0.00000000e+00  0.00000000e+00  3.97221635e-03  0.00000000e+00
  0.00000000e+00  0.00000000e+00  0.00000000e+00  0.00000000e+00  5.05599365e-01
  0.00000000e+00  0.00000000e+00  5.66532014e-01  1.47369751e-02 -4.91794041e-02
  9.89661628e-02  0.00000000e+00  0.00000000e+00 -2.67500214e-01  0.00000000e+00
  0.00000000e+00 -2.19027696e-01 -2.82492750e-02  5.57952820e-02  2.15529169e-01
  0.00000000e+00  0.00000000e+00  3.01163111e-01  0.00000000e+00  0.00000000e+00
  2.43509542e-01
Beta Orbital Energies                      R   N=          18
 -2.07014691e+01 -2.06999773e+01 -1.74944664e+00 -9.56094767e-01 -7.16077656e-01
 -6.52758550e-01 -6.52758550e-01  1.38784708e-01  1.38784708e-01  7.17143358e-01
  1.08574483e+00  1.27914050e+00  1.71034384e+00  1.71034384e+00  1.75856109e+00
  1.82347865e+00  1.82347865e+00  1.91285728e+00
Beta MO coefficients                       R   N=         324
  6.98121592e-01  2.89140613e-02 -8.20210965e-03  0.00000000e+00  0.00000000e+00
  1.53200189e-03  0.00000000e+00  0.00000000e+00 -1.25031448e-03  6.98121592e-01
  2.89140613e-02 -8.20210965e-03  0.00000000e+00  0.00000000e+00 -1.53200189e-03
  0.00000000e+00  0.00000000e+00  1.25031448e-03  6.97791120e-01  3.06824682e-02
 -1.78803861e-02  0.00000000e+00  0.00000000e+00  2.89942528e-03  0.00000000e+00
  0.00000000e+00 -4.69989055e-03 -6.97791120e-01 -3.06824682e-02  1.78803861e-02
  0.00000000e+00  0.00000000e+00  2.89942528e-03  0.00000000e+00  0.00000000e+00
 -4.69989055e-03  2.05816460e-01 -3.79198219e-01 -1.82409252e-01  0.00000000e+00
  0.00000000e+00 -1.85750869e-01  0.00000000e+00  0.00000000e+00 -1.02635522e-01
  2.05816460e-01 -3.79198219e-01 -1.82409252e-01  0.00000000e+00  0.00000000e+00
  1.85750869e-01  0.00000000e+00  0.00000000e+00  1.02635522e-01  2.10317613e-01
 -3.95957827e-01 -4.41525902e-01  0.00000000e+00  0.00000000e+00  1.33252621e-01
  0.00000000e+00  0.00000000e+00  1.08445871e-01 -2.10317613e-01  3.95957827e-01
  4.41525902e-01  0.00000000e+00  0.00000000e+00  1.33252621e-01  0.00000000e+00
  0.00000000e+00  1.08445871e-01  7.56742429e-02 -1.16236122e-01 -3.05522089e-01
  0.00000000e+00  0.00000000e+00  3.76364984e-01  0.00000000e+00  0.00000000e+00
  3.27464691e-01  7.56742429e-02 -1.16236122e-01 -3.05522089e-01  0.00000000e+00
  0.00000000e+00 -3.76364984e-01  0.00000000e+00  0.00000000e+00 -3.27464691e-01
  0.00000000e+00  0.00000000e+00  0.00000000e+00  3.32605605e-01  0.00000000e+00
  0.00000000e+00  3.98471587e-01  0.00000000e+00  0.00000000e+00  0.00000000e+00
  0.00000000e+00  0.00000000e+00  3.32605605e-01  0.00000000e+00  0.00000000e+00
  3.98471587e-01  0.00000000e+00  0.00000000e+00  0.00000000e+00  0.00000000e+00
  0.00000000e+00  0.00000000e+00  3.32605605e-01  0.00000000e+00  0.00000000e+00
  3.98471587e-01  0.00000000e+00  0.00000000e+00  0.00000000e+00  0.00000000e+00
  0.00000000e+00  3.32605605e-01  0.00000000e+00  0.00000000e+00  3.98471587e-01
  0.00000000e+00  0.00000000e+00  0.00000000e+00  0.00000000e+00  0.00000000e+00
  3.70962361e-01  0.00000000e+00  0.00000000e+00  6.25936907e-01  0.00000000e+00
  0.00000000e+00  0.00000000e+00  0.00000000e+00  0.00000000e+00 -3.70962361e-01
  0.00000000e+00  0.00000000e+00 -6.25936907e-01  0.00000000e+00  0.00000000e+00
  0.00000000e+00  0.00000000e+00  3.70962361e-01  0.00000000e+00  0.00000000e+00
  6.25936907e-01  0.00000000e+00  0.00000000e+00  0.00000000e+00  0.00000000e+00
  0.00000000e+00 -3.70962361e-01  0.00000000e+00  0.00000000e+00 -6.25936907e-01
  0.00000000e+00  0.00000000e+00  1.44466609e-01 -3.37625963e-01 -1.66622120e+00
  0.00000000e+00  0.00000000e+00 -3.85060443e-01  0.00000000e+00  0.00000000e+00
 -1.50845014e+00 -1.44466609e-01  3.37625963e-01  1.66622120e+00  0.00000000e+00
  0.00000000e+00 -3.85060443e-01  0.00000000e+00  0.00000000e+00 -1.50845014e+00
  2.36791617e-01 -1.20757162e+00  9.59170099e-01  0.00000000e+00  0.00000000e+00
  3.54221604e-02  0.00000000e+00  0.00000000e+00  1.01421794e-01  2.36791617e-01
 -1.20757162e+00  9.59170099e-01  0.00000000e+00  0.00000000e+00 -3.54221604e-02
  0.00000000e+00  0.00000000e+00 -1.01421794e-01  2.21985369e-01 -1.19812968e+00
  2.64769025e+00  0.00000000e+00  0.00000000e+00  1.56976734e-01  0.00000000e+00
  0.00000000e+00  8.50865787e-01 -2.21985369e-01  1.19812968e+00 -2.64769025e+00
  0.00000000e+00  0.00000000e+00  1.56976734e-01  0.00000000e+00  0.00000000e+00
  8.50865787e-01  0.00000000e+00  0.00000000e+00  0.00000000e+00  7.25223345e-01
  0.00000000e+00  0.00000000e+00 -5.34252922e-01  0.00000000e+00  0.00000000e+00
  0.00000000e+00  0.00000000e+00  0.00000000e+00  7.25223345e-01  0.00000000e+00
  0.00000000e+00 -5.34252922e-01  0.00000000e+00  0.00000000e+00  0.00000000e+00
  0.00000000e+00  0.00000000e+00  0.00000000e+00  7.25223345e-01  0.00000000e+00
  0.00000000e+00 -5.34252922e-01  0.00000000e+00  0.00000000e+00  0.00000000e+00
  0.00000000e+00  0.00000000e+00  7.25223345e-01  0.00000000e+00  0.00000000e+00
 -5.34252922e-01  0.00000000e+00  7.24174681e-03  1.41279722e-01  9.13331670e-02
  0.00000000e+00  0.00000000e+00  6.92761277e-01  0.00000000e+00  0.00000000e+00
 -7.67650468e-01  7.24174681e-03  1.41279722e-01  9.13331670e-02  0.00000000e+00
  0.00000000e+00 -6.92761277e-01  0.00000000e+00  0.00000000e+00  7.67650468e-01
  0.00000000e+00  0.00000000e+00  0.00000000e+00  0.00000000e+00  7.12029635e-01
  0.00000000e+00  0.00000000e+00 -8.83985245e-01  0.00000000e+00  0.00000000e+00
  0.00000000e+00  0.00000000e+00  0.00000000e+00 -7.12029635e-01  0.00000000e+00
  0.00000000e+00  8.83985245e-01  0.00000000e+00  0.00000000e+00  0.00000000e+00
  0.00000000e+00  7.12029635e-01  0.00000000e+00  0.00000000e+00 -8.83985245e-01
  0.00000000e+00  0.00000000e+00  0.00000000e+00  0.00000000e+00  0.00000000e+00
 -7.12029635e-01  0.00000000e+00  0.00000000e+00  8.83985245e-01  0.00000000e+00
  0.00000000e+00  4.33962323e-02 -2.90385362e-01  2.58929098e+00  0.00000000e+00
  0.00000000e+00 -7.02045210e-01  0.00000000e+00  0.00000000e+00  2.13554999e+00
 -4.33962323e-02  2.90385362e-01 -2.58929098e+00  0.00000000e+00  0.00000000e+00
 -7.02045210e-01  0.00000000e+00  0.00000000e+00  2.13554999e+00
Spin SCF Density                           R   N=         171
  7.88214547e-03 -2.36829289e-02  6.58402318e-02 -1.68179389e-02  4.62698494e-02
  3.71538612e-02  0.00000000e+00  0.00000000e+00  0.00000000e+00  2.36406963e-01
  0.00000000e+00  0.00000000e+00  0.00000000e+00  0.00000000e+00  2.36406963e-01
 -9.01991135e-04 -1.94437767e-03  2.65434533e-03  0.00000000e+00  0.00000000e+00
  9.79462278e-04  0.00000000e+00  0.00000000e+00  0.00000000e+00  2.40531598e-01
  0.00000000e+00  0.00000000e+00  2.48972803e-01  0.00000000e+00  0.00000000e+00
  0.00000000e+00  0.00000000e+00  2.40531598e-01  0.00000000e+00  0.00000000e+00
  2.48972803e-01 -1.63751775e-02  2.87334508e-02  4.26976265e-02  0.00000000e+00
  0.00000000e+00 -1.23289586e-02  0.00000000e+00  0.00000000e+00 -1.55931254e-02
 -2.58152325e-03  4.67713844e-03  2.31204597e-02  0.00000000e+00  0.00000000e+00
  3.47283392e-03  0.00000000e+00  0.00000000e+00  1.87527122e-02  7.88214547e-03
  4.67713844e-03 -9.38553686e-03 -4.62372289e-02  0.00000000e+00  0.00000000e+00
 -6.66130156e-03  0.00000000e+00  0.00000000e+00 -3.86286466e-02 -2.36829289e-02
  6.58402318e-02  2.31204597e-02 -4.62372289e-02 -7.64061364e-02  0.00000000e+00
  0.00000000e+00 -2.21449619e-04  0.00000000e+00  0.00000000e+00 -3.19298683e-02
 -1.68179389e-02  4.62698494e-02  3.71538612e-02  0.00000000e+00  0.00000000e+00
  0.00000000e+00 -1.56408282e-01  0.00000000e+00  0.00000000e+00 -2.29555697e-01
  0.00000000e+00  0.00000000e+00  0.00000000e+00  0.00000000e+00  0.00000000e+00
  2.36406963e-01  0.00000000e+00  0.00000000e+00  0.00000000e+00  0.00000000e+00
 -1.56408282e-01  0.00000000e+00  0.00000000e+00 -2.29555697e-01  0.00000000e+00
  0.00000000e+00  0.00000000e+00  0.00000000e+00  0.00000000e+00  2.36406963e-01
 -3.47283392e-03  6.66130156e-03  2.21449619e-04  0.00000000e+00  0.00000000e+00
 -1.03183579e-02  0.00000000e+00  0.00000000e+00 -1.17564231e-02  9.01991135e-04
  1.94437767e-03 -2.65434533e-03  0.00000000e+00  0.00000000e+00  9.79462278e-04
  0.00000000e+00  0.00000000e+00  0.00000000e+00 -2.29555697e-01  0.00000000e+00
  0.00000000e+00 -3.13586995e-01  0.00000000e+00  0.00000000e+00  0.00000000e+00
  0.00000000e+00  0.00000000e+00  2.40531598e-01  0.00000000e+00  0.00000000e+00
  2.48972803e-01  0.00000000e+00  0.00000000e+00  0.00000000e+00  0.00000000e+00
 -2.29555697e-01  0.00000000e+00  0.00000000e+00 -3.13586995e-01  0.00000000e+00
  0.00000000e+00  0.00000000e+00  0.00000000e+00  0.00000000e+00  2.40531598e-01
  0.00000000e+00  0.00000000e+00  2.48972803e-01 -1.87527122e-02  3.86286466e-02
  3.19298683e-02  0.00000000e+00  0.00000000e+00 -1.17564231e-02  0.00000000e+00
  0.00000000e+00 -7.05541315e-03  1.63751775e-02 -2.87334508e-02 -4.26976265e-02
  0.00000000e+00  0.00000000e+00 -1.23289586e-02  0.00000000e+00  0.00000000e+00
 -1.55931254e-02
Cartesian Gradient                         R   N=           6
  0.00000000e+00 -7.51112678e-33  2.81109016e-01  0.00000000e+00  7.51112678e-33
 -2.81109016e-01
