Generated by Psi4
     FORCE                          CCSD                       PCSEG-0
Number of atoms                            I                3
Charge                                     I                0
Multiplicity                               I                2
Number of electrons                        I               17
Number of alpha electrons                  I                9
Number of beta electrons                   I                8
Number of basis functions                  I               20
Number of independent functions            I               20
Atomic numbers                             I   N=           3
           8           8           1
Nuclear charges                            R   N=           3
  8.00000000e+00  8.00000000e+00  1.00000000e+00
Current cartesian coordinates              R   N=           9
 -5.41773217e-02  1.43574534e+00  0.00000000e+00 -5.41773217e-02 -1.32325480e+00
  0.00000000e+00  1.71966682e+00 -1.78530659e+00  0.00000000e+00
Integer atomic weights                     I   N=           3
          16          16           1
Real atomic weights                        R   N=           3
  1.59949146e+01  1.59949146e+01  1.00782503e+00
Number of primitive shells                 I               21
Number of contracted shells                I               12
Pure/Cartesian d shells                    I                0
Pure/Cartesian f shells                    I                0
Highest angular momentum                   I                1
Largest degree of contraction              I                4
Shell types                                I   N=          12
           0           0           0           1           1           0
           0           0           1           1           0           0
Number of primitives per shell             I   N=          12
           4           1           1           2           1           4
           1           1           2           1           2           1
Shell to atom map                          I   N=          12
           1           1           1           1           1           2
           2           2           2           2           3           3
Primitive exponents                        R   N=          21
  8.64900000e+02  1.30531000e+02  2.92551000e+01  7.76965000e+00  8.69788000e-01
  2.69783000e-01  8.30553000e+00  1.69516000e+00  3.57951000e-01  8.64900000e+02
  1.30531000e+02  2.92551000e+01  7.76965000e+00  8.69788000e-01  2.69783000e-01
  8.30553000e+00  1.69516000e+00  3.57951000e-01  4.34473000e+00  6.60487000e-01
  1.36687000e-01
Contraction coefficients                   R   N=          21
  1.78601010e-02  1.24649764e-01  4.38570969e-01  5.55523813e-01  1.00000000e+00
  1.00000000e+00  2.27970846e-01  8.68797958e-01  1.00000000e+00  1.78601010e-02
  1.24649764e-01  4.38570969e-01  5.55523813e-01  1.00000000e+00  1.00000000e+00
  2.27970846e-01  8.68797958e-01  1.00000000e+00  1.67654352e-01  8.96889788e-01
  1.00000000e+00
Coordinates of each shell                  R   N=          36
 -5.41773217e-02  1.43574534e+00  0.00000000e+00 -5.41773217e-02  1.43574534e+00
  0.00000000e+00 -5.41773217e-02  1.43574534e+00  0.00000000e+00 -5.41773217e-02
  1.43574534e+00  0.00000000e+00 -5.41773217e-02  1.43574534e+00  0.00000000e+00
 -5.41773217e-02 -1.32325480e+00  0.00000000e+00 -5.41773217e-02 -1.32325480e+00
  0.00000000e+00 -5.41773217e-02 -1.32325480e+00  0.00000000e+00 -5.41773217e-02
 -1.32325480e+00  0.00000000e+00 -5.41773217e-02 -1.32325480e+00  0.00000000e+00
  1.71966682e+00 -1.78530659e+00  0.00000000e+00  1.71966682e+00 -1.78530659e+00
  0.00000000e+00
Total Energy                               R     -1.499661016880162e+02
Alpha Orbital Energies                     R   N=          20
 -2.07080891e+01 -2.06563201e+01 -1.50748127e+00 -1.22527983e+00 -7.35862771e-01
 -7.27980591e-01 -6.28995314e-01 -5.43223832e-01 -5.34340694e-01  1.68749650e-01
  2.54928279e-01  9.62346642e-01  1.19373866e+00  1.40846307e+00  1.57590151e+00
  1.68181760e+00  1.76981118e+00  1.90058496e+00  1.96834438e+00  2.01759849e+00
Alpha MO coefficients                      R   N=         400
  9.86175465e-01  4.48813785e-02 -1.66838598e-02  1.52858108e-04 -1.90232878e-03
  0.00000000e+00 -1.37174973e-04  2.88364173e-03  0.00000000e+00  1.04799121e-03
 -2.14369844e-04  2.94096627e-03  7.04126789e-05  2.35072736e-04  0.00000000e+00
 -1.17442253e-04  1.92804138e-03  0.00000000e+00 -4.71166936e-04  1.09929832e-03
  1.01179858e-03  3.10714410e-04 -3.19036595e-03 -4.98683020e-05  2.84237963e-04
  0.00000000e+00  8.58500616e-05  1.84448476e-03  0.00000000e+00 -9.86538513e-01
 -4.49325110e-02  2.06444787e-02 -2.08293307e-03 -1.43896053e-03  0.00000000e+00
  2.44754874e-03  2.12280930e-03  0.00000000e+00 -4.11955019e-04 -4.65628131e-03
  2.24809442e-01 -4.24124804e-01 -3.00132421e-01 -5.30050773e-03  7.54771674e-02
  0.00000000e+00 -8.46882321e-03  6.58563322e-02  0.00000000e+00  1.91786601e-01
 -3.42757700e-01 -2.69917324e-01 -3.70180665e-02 -5.37901949e-02  0.00000000e+00
 -4.35089607e-02 -4.94202058e-02  0.00000000e+00 -7.97402694e-02  1.39381852e-02
  2.21150809e-01 -4.23133748e-01 -3.83927448e-01  4.53436043e-03 -5.48005108e-02
  0.00000000e+00 -1.23290135e-03 -2.16409604e-02  0.00000000e+00 -2.14281990e-01
  3.92077436e-01  3.84835357e-01  7.49942805e-02 -6.44378608e-02  0.00000000e+00
  7.27669295e-02 -3.08267718e-02  0.00000000e+00  1.48507438e-01  1.21682995e-03
  3.91290707e-02 -8.00978136e-02 -9.03244982e-02 -2.26708348e-01 -1.81818495e-01
  0.00000000e+00 -2.38246125e-01 -1.94920946e-01  0.00000000e+00 -5.80147602e-02
  1.04993711e-01  1.54306887e-01 -3.31967616e-01  1.03453211e-01  0.00000000e+00
 -3.44174672e-01  1.00203314e-01  0.00000000e+00 -2.39626718e-01 -1.03215008e-01
  0.00000000e+00  0.00000000e+00  0.00000000e+00  0.00000000e+00  0.00000000e+00
  4.90032779e-01  0.00000000e+00  0.00000000e+00  5.13617019e-01  0.00000000e+00
  0.00000000e+00  0.00000000e+00  0.00000000e+00  0.00000000e+00  2.30845494e-01
  0.00000000e+00  0.00000000e+00  2.57325766e-01  0.00000000e+00  0.00000000e+00
  4.10991985e-02 -8.85485126e-02 -1.03009123e-01  2.92735728e-01 -3.27270320e-01
  0.00000000e+00  3.31961938e-01 -3.65806146e-01  0.00000000e+00  5.25690939e-02
 -1.14911102e-01 -1.24553951e-01  6.78943187e-02  2.34569997e-01  0.00000000e+00
  9.25490797e-02  2.72864441e-01  0.00000000e+00 -5.11811587e-02 -1.89675379e-02
  1.50779879e-03  1.35407930e-03 -3.02508193e-02 -4.14354246e-01 -1.50291670e-01
  0.00000000e+00 -4.70168789e-01 -1.65387206e-01  0.00000000e+00  7.36789241e-02
 -1.47317342e-01 -2.10058318e-01  2.79215119e-01  1.12567100e-01  0.00000000e+00
  3.18086097e-01  1.42596110e-01  0.00000000e+00  1.65951522e-01  6.91797314e-02
  0.00000000e+00  0.00000000e+00  0.00000000e+00  0.00000000e+00  0.00000000e+00
  2.96614365e-01  0.00000000e+00  0.00000000e+00  3.28571551e-01  0.00000000e+00
  0.00000000e+00  0.00000000e+00  0.00000000e+00  0.00000000e+00 -4.87019855e-01
  0.00000000e+00  0.00000000e+00 -5.88173526e-01  0.00000000e+00  0.00000000e+00
  3.47464264e-02 -7.61646550e-02 -1.23842011e-01 -1.49405521e-03  2.16964913e-01
  0.00000000e+00  1.67824010e-02  3.79612288e-01  0.00000000e+00 -1.03520098e-01
  1.52068840e-01  8.67539995e-01  1.80706068e-01  1.80766843e-01  0.00000000e+00
  4.14622336e-01  3.16979134e-01  0.00000000e+00 -8.84648870e-02 -1.18121156e+00
  8.73016144e-02 -2.04982150e-01 -3.29855851e-01 -1.04709430e-02  3.10448428e-01
  0.00000000e+00 -2.09716092e-02  5.77162730e-01  0.00000000e+00 -2.88688522e-02
  9.11686845e-02 -1.48883761e-01 -1.12844236e-01  3.84198914e-01  0.00000000e+00
 -2.61325396e-01  7.59317120e-01  0.00000000e+00  3.91058171e-02  8.09634368e-01
  6.22126573e-02 -2.80446640e-01  2.47763335e-01 -1.11173127e-01  2.29398687e-02
  0.00000000e+00 -4.34766426e-02 -2.88155151e-02  0.00000000e+00 -7.94508664e-02
  2.39786182e-01 -9.87972178e-02  2.92194397e-01 -1.56936386e-02  0.00000000e+00
  4.63258886e-01 -1.99464774e-01  0.00000000e+00 -1.35551105e+00  7.15212352e-01
  3.10730705e-01 -1.56720275e+00  1.67747476e+00  3.19747237e-02 -2.01716927e-01
  0.00000000e+00  7.35869002e-03 -1.60071250e-02  0.00000000e+00  1.14216738e-01
 -4.85578046e-01  2.81851569e-01  1.95228247e-02 -4.96557498e-02  0.00000000e+00
 -3.48714381e-02 -2.40232557e-01  0.00000000e+00  2.11103688e-01 -4.05064129e-01
  6.71760125e-02 -4.37171747e-01  8.35684141e-01 -9.95014306e-02 -1.65966266e-01
  0.00000000e+00  6.92870617e-02 -2.47212142e-01  0.00000000e+00 -3.00358388e-01
  1.65472582e+00 -2.25026384e+00 -2.39518077e-01 -2.34060151e-01  0.00000000e+00
 -7.21191732e-02 -6.07872290e-02  0.00000000e+00  2.94291733e-01  4.00238734e-01
  0.00000000e+00  0.00000000e+00  0.00000000e+00  0.00000000e+00  0.00000000e+00
  8.17368661e-01  0.00000000e+00  0.00000000e+00 -7.42376059e-01  0.00000000e+00
  0.00000000e+00  0.00000000e+00  0.00000000e+00  0.00000000e+00  5.47608884e-01
  0.00000000e+00  0.00000000e+00 -3.91564026e-01  0.00000000e+00  0.00000000e+00
 -3.86706633e-04  2.50035612e-02 -1.20164367e-01 -9.04352151e-01  1.67286489e-02
  0.00000000e+00  8.56855640e-01  8.90080811e-02  0.00000000e+00  7.02989709e-02
 -4.21428531e-01  7.02294384e-01 -3.58994939e-01  4.39074811e-04  0.00000000e+00
  3.13553306e-01  3.87530943e-02  0.00000000e+00 -4.62266768e-02 -3.61517475e-01
  0.00000000e+00  0.00000000e+00  0.00000000e+00  0.00000000e+00  0.00000000e+00
  5.28022653e-01  0.00000000e+00  0.00000000e+00 -6.68429997e-01  0.00000000e+00
  0.00000000e+00  0.00000000e+00  0.00000000e+00  0.00000000e+00 -8.27440744e-01
  0.00000000e+00  0.00000000e+00  8.96769507e-01  0.00000000e+00  0.00000000e+00
  6.02417284e-02 -4.85384017e-01  1.16181730e+00  1.63637221e-01  6.94903283e-01
  0.00000000e+00 -2.38243109e-01 -1.34090771e+00  0.00000000e+00 -5.23413408e-03
  1.71174739e-01 -7.57081291e-01 -4.81439584e-01  4.26340621e-01  0.00000000e+00
  6.10640484e-01 -1.15085026e+00  0.00000000e+00 -8.67031596e-02 -2.55845492e-01
  3.38837968e-02 -3.10273243e-01  8.18333347e-01 -3.14576424e-01  4.37394041e-01
  0.00000000e+00  4.76779942e-01 -9.42592722e-01  0.00000000e+00 -6.56097682e-02
  5.88202354e-01 -1.49767060e+00  7.56761121e-01  1.46772366e-01  0.00000000e+00
 -1.19742357e+00 -5.62937661e-01  0.00000000e+00  6.35034949e-01  2.19472506e-01
  3.25444625e-02 -9.09404690e-02 -3.13945544e-01  4.81279297e-02  5.32759634e-01
  0.00000000e+00 -6.63870237e-02 -1.89503458e-01  0.00000000e+00  6.38467143e-02
 -3.70255762e-01  4.33543225e-01 -4.26562188e-02 -9.03542586e-01  0.00000000e+00
  8.70517092e-02  9.40857830e-01  0.00000000e+00 -7.23732004e-02  2.33186824e-02
Total SCF Density                          R   N=         210
  2.14596399e+00 -2.87608656e-01  7.03961827e-01 -3.59796930e-01  6.15494690e-01
  5.65189420e-01  3.16683010e-03 -1.14236630e-02  9.88778160e-03  6.00944046e-01
 -4.11758931e-02  7.79282092e-02  1.22959548e-01  4.27886770e-03  2.54624225e-01
  0.00000000e+00  0.00000000e+00  0.00000000e+00  0.00000000e+00  0.00000000e+00
  3.35417905e-01  1.07512082e-03 -9.75204645e-03  1.39989838e-02  6.90260118e-01
  8.87069947e-05  0.00000000e+00  7.93991103e-01 -2.87556339e-02  7.29748572e-02
  1.19215578e-01 -1.70122029e-03  2.73465723e-01  0.00000000e+00 -7.66464844e-03
  2.96349769e-01  0.00000000e+00  0.00000000e+00  0.00000000e+00  0.00000000e+00
  0.00000000e+00  3.59522160e-01  0.00000000e+00  0.00000000e+00  3.86492493e-01
 -8.35996665e-03  1.86448980e-02  4.96915647e-02 -6.31490762e-03  2.55591193e-02
  0.00000000e+00 -8.12665049e-03  6.30432298e-03  0.00000000e+00  2.13436630e+00
  1.74773902e-02 -3.97126500e-02 -7.95491942e-02  1.17920571e-02 -3.46382376e-02
  0.00000000e+00  1.46179597e-02 -4.52350267e-03  0.00000000e+00 -2.55901736e-01
  6.37889451e-01  5.39170606e-02 -9.64004762e-02 -1.23446714e-01  2.90778127e-02
 -3.24087844e-02  0.00000000e+00  3.65538274e-02 -4.88310275e-03  0.00000000e+00
 -3.65568956e-01  5.96215718e-01  5.86173367e-01 -7.08934649e-04  5.58702617e-03
 -1.59556709e-02 -4.04415611e-02 -1.35169508e-02  0.00000000e+00 -6.05647860e-02
 -6.40269936e-03  0.00000000e+00  4.16160528e-02 -7.71855426e-02 -1.48127868e-01
  4.03268154e-01 -1.75597151e-02  2.68025586e-02 -2.96564963e-02 -9.47435759e-03
 -2.20902464e-01  0.00000000e+00 -6.89683021e-03 -2.41902276e-01  0.00000000e+00
  3.35111681e-02 -6.96211912e-02 -6.93512446e-02  3.48990202e-02  2.53039555e-01
  0.00000000e+00  0.00000000e+00  0.00000000e+00  0.00000000e+00  0.00000000e+00
  1.16299909e-02  0.00000000e+00  0.00000000e+00  1.95550347e-02  0.00000000e+00
  0.00000000e+00  0.00000000e+00  0.00000000e+00  0.00000000e+00  5.43158800e-01
 -3.01715881e-03  9.14775239e-03 -1.83536838e-02 -5.18426774e-02 -3.27250011e-02
  0.00000000e+00 -7.43148076e-02 -2.70088651e-02  0.00000000e+00  3.98526723e-02
 -9.25441816e-02 -1.68319053e-01  4.36103429e-01  5.74762829e-02  0.00000000e+00
  4.73400877e-01  5.67341377e-03 -1.13022113e-02 -7.46301634e-02 -1.46059519e-02
 -2.60669867e-01  0.00000000e+00 -1.34804659e-02 -2.83123020e-01  0.00000000e+00
  2.52572378e-02 -7.04884350e-02 -7.16848545e-02  6.76116331e-02  2.92776182e-01
  0.00000000e+00  9.55989694e-02  3.43735151e-01  0.00000000e+00  0.00000000e+00
  0.00000000e+00  0.00000000e+00  0.00000000e+00  4.43991501e-03  0.00000000e+00
  0.00000000e+00  1.38883770e-02  0.00000000e+00  0.00000000e+00  0.00000000e+00
  0.00000000e+00  0.00000000e+00  6.56389523e-01  0.00000000e+00  0.00000000e+00
  7.93799825e-01  6.53749831e-03 -1.00715666e-02 -1.98856489e-02 -5.73846384e-02
  4.15923349e-02  0.00000000e+00 -7.71128127e-02  5.84614577e-02  0.00000000e+00
 -4.50530987e-02  8.15727183e-02  2.24438115e-02  2.72087398e-01 -5.31589261e-02
  0.00000000e+00  2.87878061e-01 -3.93806554e-02  0.00000000e+00  2.30636129e-01
 -3.34415880e-03  1.27698979e-02  1.70104975e-02 -1.82485141e-02  3.46147136e-02
  0.00000000e+00 -2.50438695e-02  3.78706750e-02  0.00000000e+00  3.47096400e-02
 -4.64792589e-02 -6.39639550e-02  1.00172249e-01 -2.62782436e-02  0.00000000e+00
  1.05888892e-01 -2.50181602e-02  0.00000000e+00  7.18550701e-02  3.24386665e-02
Total CC Density                           R   N=         210
  2.14330256e+00 -2.80824369e-01  6.99463955e-01 -3.62021611e-01  5.91875669e-01
  6.33020221e-01  2.96862222e-03 -1.06288330e-02  9.24487100e-03  5.98498465e-01
 -3.62761364e-02  6.64918573e-02  1.16471555e-01  3.77027244e-03  2.60715514e-01
  0.00000000e+00  0.00000000e+00  0.00000000e+00  0.00000000e+00  0.00000000e+00
  3.61612350e-01  1.16133662e-03 -9.59296368e-03  1.32117030e-02  6.71054761e-01
 -2.53959312e-04  0.00000000e+00  8.07231816e-01 -2.24866795e-02  5.71958547e-02
  1.06324514e-01 -2.41765395e-03  2.53010584e-01  0.00000000e+00 -8.03156658e-03
  2.60843277e-01  0.00000000e+00  0.00000000e+00  0.00000000e+00  0.00000000e+00
  0.00000000e+00  3.88675282e-01  0.00000000e+00  0.00000000e+00  4.45018208e-01
 -9.42404952e-03  2.03807881e-02  5.25080057e-02 -6.45816989e-03  2.54141368e-02
  0.00000000e+00 -8.42729855e-03  7.03476474e-03  0.00000000e+00  2.13434432e+00
  2.04110649e-02 -4.46631376e-02 -8.55921180e-02  1.14917372e-02 -3.87722801e-02
  0.00000000e+00  1.45527300e-02 -1.29463795e-02  0.00000000e+00 -2.58579158e-01
  6.60689386e-01  5.65161932e-02 -9.80711278e-02 -1.40604294e-01  3.06984363e-02
 -2.59067274e-02  0.00000000e+00  3.92787324e-02  3.41277134e-03  0.00000000e+00
 -3.62792632e-01  5.67924536e-01  6.39716841e-01 -5.46861137e-04  5.62871497e-03
 -1.55488835e-02 -4.01927671e-02 -1.37179398e-02  0.00000000e+00 -6.09210338e-02
 -6.78151809e-03  0.00000000e+00  3.87260276e-02 -6.69394453e-02 -1.55176325e-01
  4.24312362e-01 -1.25121112e-02  2.11188226e-02 -5.56366993e-02 -1.04050961e-02
 -2.20998040e-01  0.00000000e+00 -8.62484552e-03 -2.23591455e-01  0.00000000e+00
  2.79162599e-02 -5.60772748e-02 -5.96967894e-02  3.36689961e-02  3.05934480e-01
  0.00000000e+00  0.00000000e+00  0.00000000e+00  0.00000000e+00  0.00000000e+00
  4.37331236e-02  0.00000000e+00  0.00000000e+00  5.55316970e-02  0.00000000e+00
  0.00000000e+00  0.00000000e+00  0.00000000e+00  0.00000000e+00  5.19127860e-01
 -3.08944630e-03  9.92095056e-03 -1.72234628e-02 -4.38114220e-02 -3.31232278e-02
  0.00000000e+00 -6.32628465e-02 -2.73292645e-02  0.00000000e+00  3.79453026e-02
 -7.98842610e-02 -1.84694912e-01  4.18894683e-01  5.49415700e-02  0.00000000e+00
  4.41923808e-01  1.01639704e-02 -1.26955154e-02 -1.02805276e-01 -1.59937231e-02
 -2.48690149e-01  0.00000000e+00 -1.58184785e-02 -2.50165848e-01  0.00000000e+00
  2.12906545e-02 -5.65298276e-02 -6.82991323e-02  6.48939800e-02  3.21867648e-01
  0.00000000e+00  9.28025926e-02  3.62350429e-01  0.00000000e+00  0.00000000e+00
  0.00000000e+00  0.00000000e+00  0.00000000e+00  5.19346456e-02  0.00000000e+00
  0.00000000e+00  6.97337389e-02  0.00000000e+00  0.00000000e+00  0.00000000e+00
  0.00000000e+00  0.00000000e+00  5.92582366e-01  0.00000000e+00  0.00000000e+00
  7.27247656e-01  6.42008436e-03 -1.01450708e-02 -1.90770767e-02 -6.28233652e-02
  3.67776322e-02  0.00000000e+00 -8.72505309e-02  4.92762724e-02  0.00000000e+00
 -4.14898854e-02  7.59613045e-02  1.19621104e-03  2.70792739e-01 -5.25637410e-02
  0.00000000e+00  2.77528001e-01 -3.34742814e-02  0.00000000e+00  2.57529401e-01
 -5.56183957e-03  1.60555311e-02  2.25944150e-02 -1.62136176e-02  3.27011364e-02
  0.00000000e+00 -2.20959572e-02  3.36552797e-02  0.00000000e+00  3.62939291e-02
 -4.62225355e-02 -8.06565730e-02  1.03416931e-01 -2.55563576e-02  0.00000000e+00
  1.12035666e-01 -2.05900396e-02  0.00000000e+00  8.39427809e-02  4.23194415e-02
Beta Orbital Energies                      R   N=          20
 -2.06614096e+01 -2.06590626e+01 -1.45693575e+00 -1.11461107e+00 -7.14567989e-01
 -6.07503635e-01 -5.71206958e-01 -5.06577283e-01  1.24321531e-01  1.79035144e-01
  2.80412092e-01  9.61904429e-01  1.24384700e+00  1.40844984e+00  1.69018904e+00
  1.70785232e+00  1.88903330e+00  1.91336361e+00  1.96499401e+00  2.03713301e+00
Beta MO coefficients                       R   N=         400
  3.98733924e-02  1.32931650e-03  2.74458384e-03  4.93524857e-05 -3.26631532e-04
  0.00000000e+00 -9.29388338e-05 -1.90423613e-03  0.00000000e+00  9.85559711e-01
  4.54476734e-02 -2.08130836e-02  2.10400143e-03  1.49886683e-03  0.00000000e+00
 -2.45244631e-03 -2.18278987e-03  0.00000000e+00  3.78028118e-04  4.73465821e-03
  9.86581409e-01  4.12883421e-02 -1.59755876e-02  1.56951760e-04 -1.83582795e-03
  0.00000000e+00 -1.30445362e-04  2.90136047e-03  0.00000000e+00 -3.98043491e-02
 -2.09293027e-03  3.77858896e-03 -3.08189147e-05  1.52643862e-04  0.00000000e+00
  4.76622942e-06  2.01658640e-03  0.00000000e+00 -4.81708572e-04  8.35131289e-04
  1.36446682e-01 -2.44575634e-01 -1.74638384e-01 -7.56536811e-03  6.66097024e-02
  0.00000000e+00 -8.28753695e-03  5.31550625e-02  0.00000000e+00  2.53243910e-01
 -4.57150959e-01 -3.85502009e-01 -5.92044084e-02 -5.65398289e-02  0.00000000e+00
 -6.46206581e-02 -6.05455386e-02  0.00000000e+00 -1.11546897e-01  1.57960205e-02
  2.60640069e-01 -4.80567219e-01 -4.54688239e-01 -2.09725845e-04 -1.65578397e-02
  0.00000000e+00 -6.47168634e-03 -1.71638046e-03  0.00000000e+00 -1.42750812e-01
  2.68317723e-01  2.63360459e-01  7.24479786e-02 -1.21972103e-01  0.00000000e+00
  6.70620150e-02 -1.05795484e-01  0.00000000e+00  1.33227104e-01  8.08101005e-03
  5.02664396e-02 -9.94475602e-02 -1.12475701e-01 -1.87543875e-01 -9.68500117e-02
  0.00000000e+00 -2.06083267e-01 -1.09497076e-01  0.00000000e+00 -8.18883766e-02
  1.53309658e-01  2.18881695e-01 -3.71620136e-01  7.40856421e-02  0.00000000e+00
 -3.91336199e-01  6.99202869e-02  0.00000000e+00 -2.48379864e-01 -1.12222663e-01
  8.18982578e-02 -1.62353102e-01 -2.34561832e-01  1.68522891e-01 -2.58335619e-01
  0.00000000e+00  2.00062270e-01 -2.75488029e-01  0.00000000e+00  2.88800609e-02
 -6.82568670e-02 -4.03372932e-02  8.88806126e-02  3.61323075e-01  0.00000000e+00
  1.17478132e-01  4.37948089e-01  0.00000000e+00 -4.96914295e-02 -3.67972164e-02
  0.00000000e+00  0.00000000e+00  0.00000000e+00  0.00000000e+00  0.00000000e+00
  8.54733794e-02  0.00000000e+00  0.00000000e+00  1.21370451e-01  0.00000000e+00
  0.00000000e+00  0.00000000e+00  0.00000000e+00  0.00000000e+00  5.02673670e-01
  0.00000000e+00  0.00000000e+00  6.17766282e-01  0.00000000e+00  0.00000000e+00
  5.80551191e-03 -6.93594691e-03 -5.06347750e-02 -4.78001116e-01 -4.83477440e-02
  0.00000000e+00 -5.68588942e-01 -4.05919805e-02  0.00000000e+00  4.34501842e-02
 -8.67072962e-02 -1.15679830e-01  2.20763501e-01  1.16084199e-01  0.00000000e+00
  2.49764339e-01  1.54758749e-01  0.00000000e+00  1.42436104e-01  4.62081180e-02
  0.00000000e+00  0.00000000e+00  0.00000000e+00  0.00000000e+00  0.00000000e+00
  4.29556350e-01  0.00000000e+00  0.00000000e+00  7.23774507e-01  0.00000000e+00
  0.00000000e+00  0.00000000e+00  0.00000000e+00  0.00000000e+00 -1.66170382e-01
  0.00000000e+00  0.00000000e+00 -2.15028016e-01  0.00000000e+00  0.00000000e+00
  1.51741247e-02 -3.01653533e-02 -4.04203592e-02  8.03596858e-03  1.76465249e-01
  0.00000000e+00  3.24587652e-02  3.09827536e-01  0.00000000e+00 -9.94266774e-02
  1.45467789e-01  8.80049034e-01  1.89611019e-01  6.93838271e-02  0.00000000e+00
  4.37753476e-01  1.04922057e-01  0.00000000e+00 -9.26625757e-02 -1.31344256e+00
  9.09073290e-02 -1.98004731e-01 -3.51816805e-01  3.80892165e-03  3.93572656e-01
  0.00000000e+00  3.55042150e-03  7.54426956e-01  0.00000000e+00 -5.76686390e-02
  1.47711601e-01  4.41407101e-02 -9.30913618e-02  3.58955596e-01  0.00000000e+00
 -2.12938419e-01  6.97544408e-01  0.00000000e+00  3.61039349e-02  5.63789655e-01
  5.30913129e-02 -2.29250612e-01  1.86076900e-01 -1.08775932e-01  3.00521628e-02
  0.00000000e+00 -5.10800050e-02 -2.09373046e-02  0.00000000e+00 -8.19335699e-02
  2.52826687e-01 -1.08820838e-01  2.93111952e-01 -8.24628008e-03  0.00000000e+00
  4.58741584e-01 -1.93691280e-01  0.00000000e+00 -1.36241651e+00  7.34532910e-01
  3.12247988e-01 -1.54587501e+00  1.58460931e+00  3.23358844e-02 -1.85550243e-01
  0.00000000e+00  4.98209487e-03  4.39641252e-03  0.00000000e+00  1.37872070e-01
 -6.25548882e-01  4.84977628e-01  4.69801755e-02 -3.23163282e-02  0.00000000e+00
 -9.80440382e-03 -2.19803174e-01  0.00000000e+00  1.37846507e-01 -4.11658649e-01
  9.66171570e-02 -5.80547676e-01  9.70082592e-01 -8.65231664e-02 -1.69062105e-01
  0.00000000e+00  5.47710615e-02 -2.64601974e-01  0.00000000e+00 -2.88059864e-01
  1.59923830e+00 -2.21601421e+00 -2.33455405e-01 -2.59588374e-01  0.00000000e+00
 -6.98968489e-02 -5.01735990e-02  0.00000000e+00  2.99866430e-01  3.76042996e-01
  0.00000000e+00  0.00000000e+00  0.00000000e+00  0.00000000e+00  0.00000000e+00
  4.77916194e-01  0.00000000e+00  0.00000000e+00 -2.58800749e-01  0.00000000e+00
  0.00000000e+00  0.00000000e+00  0.00000000e+00  0.00000000e+00  8.89388262e-01
  0.00000000e+00  0.00000000e+00 -7.89384683e-01  0.00000000e+00  0.00000000e+00
  1.89769891e-04  2.26602117e-02 -1.22142181e-01 -8.93989651e-01  3.12005013e-02
  0.00000000e+00  8.19257039e-01  7.76531936e-02  0.00000000e+00  6.93254211e-02
 -4.23456468e-01  7.18888806e-01 -4.04466053e-01 -1.03642599e-02  0.00000000e+00
  3.85175348e-01  4.56777505e-02  0.00000000e+00 -8.08458484e-02 -3.66040265e-01
  0.00000000e+00  0.00000000e+00  0.00000000e+00  0.00000000e+00  0.00000000e+00
  9.24544975e-01  0.00000000e+00  0.00000000e+00 -8.74142111e-01  0.00000000e+00
  0.00000000e+00  0.00000000e+00  0.00000000e+00  0.00000000e+00 -4.51338854e-01
  0.00000000e+00  0.00000000e+00  5.64519421e-01  0.00000000e+00  0.00000000e+00
  4.11830942e-02 -3.91366846e-01  1.12801860e+00  1.87185391e-01  3.93618550e-01
  0.00000000e+00 -2.58652106e-01 -1.06299023e+00  0.00000000e+00 -2.56126291e-02
  2.61937732e-01 -7.50129197e-01 -4.94149853e-01  7.13770972e-01  0.00000000e+00
  6.33509168e-01 -1.37463634e+00  0.00000000e+00 -1.06971569e-01 -2.56545317e-01
  9.84647786e-03 -1.94250054e-01  7.76160788e-01 -3.60887562e-01  6.51163328e-02
  0.00000000e+00  5.12870087e-01 -6.18364244e-01  0.00000000e+00 -8.53117974e-02
  6.70333592e-01 -1.45010970e+00  7.10449063e-01  4.90763216e-01  0.00000000e+00
 -1.14315605e+00 -8.33980823e-01  0.00000000e+00  6.07331495e-01  1.92920456e-01
  6.42124970e-02 -3.87369957e-01  5.27421716e-01 -3.27709969e-02  9.21256067e-01
  0.00000000e+00  6.72917092e-02 -1.06179119e+00  0.00000000e+00  2.20734649e-02
  1.36862641e-02 -5.76225712e-01  1.42141416e-01 -4.71956285e-01  0.00000000e+00
 -2.49637870e-01  7.65989226e-02  0.00000000e+00  1.88759709e-01  2.46236639e-02
Spin SCF Density                           R   N=         210
  4.46108887e-03 -1.52589175e-02  4.64317434e-02  6.50007574e-03 -4.87145888e-03
 -5.02838379e-02  1.82801340e-03 -4.55085300e-03 -4.47774120e-03  1.67139617e-02
  5.53892104e-03 -9.06826310e-03 -1.67634566e-02  9.80351140e-03  8.82857994e-02
  0.00000000e+00  0.00000000e+00  0.00000000e+00  0.00000000e+00  0.00000000e+00
  3.20806508e-01  1.52563900e-03 -3.92994908e-03 -4.87003884e-03  1.83030684e-03
  9.44601537e-03  0.00000000e+00 -1.78072991e-02  8.66376750e-03 -1.47026650e-02
 -2.16564807e-02  1.20766545e-02  9.88656184e-02  0.00000000e+00  1.21327756e-02
  1.11606922e-01  0.00000000e+00  0.00000000e+00  0.00000000e+00  0.00000000e+00
  0.00000000e+00  3.38774275e-01  0.00000000e+00  0.00000000e+00  3.57030921e-01
 -1.12622796e-04 -3.23501888e-04  1.17544529e-03 -1.53855940e-03 -9.14633880e-03
  0.00000000e+00 -1.50066300e-03 -1.56170432e-02  0.00000000e+00  6.65728388e-04
 -3.58123640e-04  1.73910134e-03 -1.85041726e-03  2.60163918e-03  2.12161897e-02
  0.00000000e+00  2.42022528e-03  3.41093519e-02  0.00000000e+00 -9.18625150e-04
  4.24895612e-04  1.98289201e-03 -3.26912140e-03  2.34895018e-04  8.46139964e-03
  3.80397543e-02  0.00000000e+00  8.37709876e-03  5.32201071e-02  0.00000000e+00
 -5.57092320e-03  1.16490423e-02  2.35011474e-02 -2.18669603e-03  4.26537558e-03
  9.69170643e-03  3.96226412e-04 -7.94328781e-03  0.00000000e+00  1.70667354e-03
 -1.43408746e-02  0.00000000e+00  2.95576468e-03 -6.02282400e-03 -1.09188906e-02
 -3.72406910e-03 -6.94881756e-03  1.55672758e-02  3.76002119e-02  6.60174801e-03
 -5.14746129e-03  0.00000000e+00  8.55738359e-03 -1.15765369e-02  0.00000000e+00
  5.55805684e-03 -9.25654518e-03 -2.50623745e-02 -1.45489355e-02 -8.21500534e-02
  0.00000000e+00  0.00000000e+00  0.00000000e+00  0.00000000e+00  0.00000000e+00
 -7.43004438e-02  0.00000000e+00  0.00000000e+00 -1.02464425e-01  0.00000000e+00
  0.00000000e+00  0.00000000e+00  0.00000000e+00  0.00000000e+00  3.77971631e-02
 -2.95490981e-03  5.77593641e-03  1.24477216e-02 -3.97723096e-04 -1.28502303e-02
  0.00000000e+00  1.20656839e-03 -2.06140376e-02  0.00000000e+00  3.98107044e-03
 -8.05049431e-03 -1.49913748e-02 -3.27250054e-03 -1.83619779e-02  0.00000000e+00
 -2.61215298e-03 -7.02057539e-03  1.54955213e-02  4.49440037e-02  1.10005529e-02
 -1.31832256e-03  0.00000000e+00  1.37200097e-02 -7.89462779e-03  0.00000000e+00
  2.88790077e-03 -3.68044032e-03 -2.22194439e-02 -1.84316275e-02 -1.02644325e-01
  0.00000000e+00 -2.35274261e-02 -1.27274695e-01  0.00000000e+00  0.00000000e+00
  0.00000000e+00  0.00000000e+00  0.00000000e+00 -1.01165229e-01  0.00000000e+00
  0.00000000e+00 -1.36068767e-01  0.00000000e+00  0.00000000e+00  0.00000000e+00
  0.00000000e+00  0.00000000e+00  3.53198350e-02  0.00000000e+00  0.00000000e+00
  3.05294674e-02 -9.45970619e-05 -1.07741880e-04 -2.47064429e-03  7.36847078e-04
  8.50541212e-04  0.00000000e+00  2.24672185e-03  5.72595394e-04  0.00000000e+00
 -1.48930091e-03  2.12941346e-03  3.96332390e-03  9.11478623e-04  6.36930422e-03
  0.00000000e+00  1.71882592e-03  9.47690476e-03  0.00000000e+00  1.35135895e-03
  2.88011788e-03 -5.44590199e-03 -7.95056002e-03 -3.52278404e-03 -3.49733467e-03
  0.00000000e+00 -3.66046273e-03 -4.86681005e-03  0.00000000e+00 -5.19357625e-04
  5.99126475e-04  9.98245185e-04  3.58244325e-03  9.95631041e-03  0.00000000e+00
  4.59962360e-03  1.22433686e-02  0.00000000e+00  6.54949579e-04 -4.03498934e-04
Spin CC Density                            R   N=         210
  3.74544918e-03 -1.14308455e-02  3.28082532e-02 -2.93041568e-04  6.15946822e-03
 -1.86033068e-02  4.22791075e-04 -1.09061659e-03 -1.01743317e-03  1.08254521e-02
  2.68064760e-03 -4.43262030e-03 -7.15584612e-03  2.45605498e-03  2.37017341e-02
  0.00000000e+00  0.00000000e+00  0.00000000e+00  0.00000000e+00  0.00000000e+00
  2.81143117e-01  2.73771472e-04 -7.12639087e-04 -1.16782302e-03  1.78542335e-03
  2.38547132e-03  0.00000000e+00 -1.14164274e-02  6.89505857e-03 -1.22486454e-02
 -1.52702826e-02  3.12743558e-03  2.24744015e-02  0.00000000e+00  3.44204850e-03
  2.27950110e-02  0.00000000e+00  0.00000000e+00  0.00000000e+00  0.00000000e+00
  0.00000000e+00  2.92934655e-01  0.00000000e+00  0.00000000e+00  3.21468018e-01
 -2.18152157e-04  7.33887059e-05  1.68612940e-03 -2.51746992e-04 -2.79461948e-03
  0.00000000e+00 -4.55452147e-05 -6.01241765e-03  0.00000000e+00  1.38900477e-03
 -1.00241765e-03  2.55861094e-03 -8.12267788e-04  4.80477889e-04  5.96910314e-03
  0.00000000e+00  1.04646230e-04  1.20614361e-02  0.00000000e+00 -3.45991114e-03
  8.77942555e-03  5.26909930e-03 -9.90517219e-03 -9.39296427e-03  1.29611060e-03
  1.13357757e-02  0.00000000e+00  4.90489964e-04  1.88141709e-02  0.00000000e+00
 -3.03016934e-03  6.55938565e-03  8.20047953e-03 -5.63349203e-04  1.00250393e-03
  2.85561262e-03 -1.56785077e-04 -2.12835598e-03  0.00000000e+00  4.63868987e-04
 -3.83270224e-03  0.00000000e+00  4.09985052e-04 -1.32659043e-03 -5.34267377e-04
  3.20979890e-03 -5.63956183e-04  1.47233916e-03  6.94592422e-03  1.79258619e-03
 -2.68219057e-03  0.00000000e+00  2.41638935e-03 -2.81212053e-03  0.00000000e+00
  7.82131893e-04 -1.24928066e-03 -5.00881914e-03 -4.19050448e-03 -1.75133834e-02
  0.00000000e+00  0.00000000e+00  0.00000000e+00  0.00000000e+00  0.00000000e+00
 -1.07662337e-01  0.00000000e+00  0.00000000e+00 -1.42065246e-01  0.00000000e+00
  0.00000000e+00  0.00000000e+00  0.00000000e+00  0.00000000e+00  8.37702985e-02