
    -----------------------------------------------------------------------
          Psi4: An Open-Source Ab Initio Electronic Structure Package
                               Psi4 1.1rc3.dev5 

                         Git: Rev {master} 3fbd859 


    R. M. Parrish, L. A. Burns, D. G. A. Smith, A. C. Simmonett,
    A. E. DePrince III, E. G. Hohenstein, U. Bozkaya, A. Yu. Sokolov,
    R. Di Remigio, R. M. Richard, J. F. Gonthier, A. M. James,
    H. R. McAlexander, A. Kumar, M. Saitow, X. Wang, B. P. Pritchard,
    P. Verma, H. F. Schaefer III, K. Patkowski, R. A. King, E. F. Valeev,
    F. A. Evangelista, J. M. Turney, T. D. Crawford, and C. D. Sherrill,
    J. Chem. Theory Comput. in press (2017).
    (doi: 10.1021/acs.jctc.7b00174)

    -----------------------------------------------------------------------


    Psi4 started on: Monday, 15 May 2017 03:34PM

    Process ID:  12616
    PSIDATADIR: /home/psilocaluser/gits/hrw-direct/objdir4/stage/usr/local/psi4/share/psi4
    Memory:     500.0 MiB
    Threads:    1
    
  ==> Input File <==

--------------------------------------------------------------------------
#! Single point gradient of 1-2B2 state of H2O+ with EOM-CCSD

molecule h2o {
  1 2
  H -0.107055195862289   0.000000000000000  -1.832806614599657
  O -0.107055195862289   0.000000000000000   0.094714436481352
  H  1.806098405595803   0.000000000000000   0.329620161376194
  units bohr
}

set {
  reference uhf
  basis DZ
  roots_per_irrep [0, 0, 0, 1]
}

analytic_grad = gradient('eom-ccsd')
findif_grad = gradient('eom-ccsd', dertype=0)

compare_matrices(analytic_grad, findif_grad, 5, "UHF-EOM-CCSD finite-diff. (3-pt.) vs. analytic gradient to 10^-5") #TEST

set findif points 5

findif_grad = gradient('eom-ccsd', dertype=0)

compare_matrices(analytic_grad, findif_grad, 6, "UHF-EOM-CCSD finite-diff. (5-pt.) vs. analytic gradient to 10^-7") #TEST
--------------------------------------------------------------------------
gradient() will perform analytic gradient computation.

*** tstart() called on psinet
*** at Mon May 15 15:34:21 2017

   => Loading Basis Set <=

    Name: DZ
    Role: ORBITAL
    Keyword: BASIS
    atoms 1, 3 entry H          line    11 file /home/psilocaluser/gits/hrw-direct/objdir4/stage/usr/local/psi4/share/psi4/basis/dz.gbs 
    atoms 2    entry O          line   106 file /home/psilocaluser/gits/hrw-direct/objdir4/stage/usr/local/psi4/share/psi4/basis/dz.gbs 


         ---------------------------------------------------------
                                   SCF
            by Justin Turney, Rob Parrish, and Andy Simmonett
                              UHF Reference
                        1 Threads,    500 MiB Core
         ---------------------------------------------------------

  ==> Geometry <==

    Molecular point group: c2v
    Full point group: C2v

    Geometry (in Bohr), charge = 1, multiplicity = 2:

       Center              X                  Y                   Z               Mass       
    ------------   -----------------  -----------------  -----------------  -----------------
           H          0.000000000000    -1.443627918148     1.134274838578     1.007825032070
           O          0.000000000000     0.000000000000    -0.142939253226    15.994914619560
           H         -0.000000000000     1.443627918148     1.134274838578     1.007825032070

  Running in c2v symmetry.

  Rotational constants: A =     20.61565  B =     14.33074  C =      8.45402 [cm^-1]
  Rotational constants: A = 618041.72688  B = 429624.71072  C = 253445.16976 [MHz]
  Nuclear repulsion =    8.647166888151858

  Charge       = 1
  Multiplicity = 2
  Electrons    = 9
  Nalpha       = 5
  Nbeta        = 4

  ==> Algorithm <==

  SCF Algorithm Type is PK.
  DIIS enabled.
  MOM disabled.
  Fractional occupation disabled.
  Guess Type is GWH.
  Energy threshold   = 1.00e-10
  Density threshold  = 1.00e-10
  Integral threshold = 0.00e+00

  ==> Primary Basis <==

  Basis Set: DZ
    Blend: DZ
    Number of shells: 10
    Number of basis function: 14
    Number of Cartesian functions: 14
    Spherical Harmonics?: false
    Max angular momentum: 1

  ==> Pre-Iterations <==

   -------------------------------------------------------
    Irrep   Nso     Nmo     Nalpha   Nbeta   Ndocc  Nsocc
   -------------------------------------------------------
     A1         8       8       0       0       0       0
     A2         0       0       0       0       0       0
     B1         2       2       0       0       0       0
     B2         4       4       0       0       0       0
   -------------------------------------------------------
    Total      14      14       5       4       4       1
   -------------------------------------------------------

  ==> Integral Setup <==

  Using in-core PK algorithm.
   Calculation information:
      Number of atoms:                   3
      Number of AO shells:              10
      Number of primitives:             22
      Number of atomic orbitals:        14
      Number of basis functions:        14

      Integral cutoff                 1.00e-12
      Number of threads:                 1

  Performing in-core PK
  Using 11130 doubles for integral storage.
  We computed 1540 shell quartets total.
  Whereas there are 1540 unique shell quartets.
  ==> DiskJK: Disk-Based J/K Matrices <==

    J tasked:                  Yes
    K tasked:                  Yes
    wK tasked:                  No
    Memory (MB):               375
    Schwarz Cutoff:          1E-12

    OpenMP threads:              1
  Minimum eigenvalue in the overlap matrix is 6.0756533921E-02.
  Using Symmetric Orthogonalization.

  SCF Guess: Generalized Wolfsberg-Helmholtz.

  ==> Iterations <==

                        Total Energy        Delta E     RMS |[F,P]|

   @UHF iter   1:   -75.16982263377544   -7.51698e+01   2.72099e-01 
   @UHF iter   2:   -75.56759020879447   -3.97768e-01   3.03391e-02 DIIS
   @UHF iter   3:   -75.59407174640072   -2.64815e-02   1.05541e-02 DIIS
   @UHF iter   4:   -75.59854280612535   -4.47106e-03   2.06384e-03 DIIS
   @UHF iter   5:   -75.59892327077057   -3.80465e-04   6.99512e-04 DIIS
   @UHF iter   6:   -75.59899404722412   -7.07765e-05   2.99173e-04 DIIS
   @UHF iter   7:   -75.59901032965357   -1.62824e-05   7.63927e-05 DIIS
   @UHF iter   8:   -75.59901131413449   -9.84481e-07   1.02060e-05 DIIS
   @UHF iter   9:   -75.59901132846699   -1.43325e-08   1.88233e-06 DIIS
   @UHF iter  10:   -75.59901132892520   -4.58215e-10   4.76722e-07 DIIS
   @UHF iter  11:   -75.59901132895106   -2.58638e-11   1.13521e-07 DIIS
   @UHF iter  12:   -75.59901132895274   -1.67688e-12   1.83821e-08 DIIS
   @UHF iter  13:   -75.59901132895271    2.84217e-14   2.37842e-09 DIIS
   @UHF iter  14:   -75.59901132895268    2.84217e-14   4.86632e-10 DIIS
   @UHF iter  15:   -75.59901132895274   -5.68434e-14   4.58794e-11 DIIS

  ==> Post-Iterations <==

   @Spin Contamination Metric:   7.858243025E-03
   @S^2 Expected:                7.500000000E-01
   @S^2 Observed:                7.578582430E-01
   @S   Expected:                5.000000000E-01
   @S   Observed:                5.000000000E-01

    Orbital Energies (a.u.)
    -----------------------

    Alpha Occupied:                                                       

       1A1   -21.127378     2A1    -1.897375     1B2    -1.171438  
       1B1    -1.120785     3A1    -1.083701  

    Alpha Virtual:                                                        

       4A1    -0.149016     2B2    -0.068811     2B1     0.400237  
       5A1     0.490453     3B2     0.541388     4B2     0.753325  
       6A1     0.780070     7A1     1.219529     8A1    42.767900  

    Beta Occupied:                                                        

       1A1   -21.080447     2A1    -1.732106     1B2    -1.124101  
       3A1    -1.019797  

    Beta Virtual:                                                         

       1B1    -0.314680     4A1    -0.133451     2B2    -0.058463  
       5A1     0.514061     3B2     0.548608     2B1     0.573829  
       4B2     0.761489     6A1     0.786848     7A1     1.268901  
       8A1    42.796829  

    Final Occupation by Irrep:
             A1    A2    B1    B2 
    DOCC [     3,    0,    0,    1 ]
    SOCC [     0,    0,    1,    0 ]

  Energy converged.

  @UHF Final Energy:   -75.59901132895274

   => Energetics <=

    Nuclear Repulsion Energy =              8.6471668881518582
    One-Electron Energy =                -117.1352278030337430
    Two-Electron Energy =                  32.8890495859291363
    DFT Exchange-Correlation Energy =       0.0000000000000000
    Empirical Dispersion Energy =           0.0000000000000000
    PCM Polarization Energy =               0.0000000000000000
    EFP Energy =                            0.0000000000000000
    Total Energy =                        -75.5990113289527415


  UHF NO Occupations:
  HONO-2 :    3 A1 1.9983633
  HONO-1 :    1 B2 1.9980894
  HONO-0 :    1 B1 1.0000000
  LUNO+0 :    2 B2 0.0019106
  LUNO+1 :    4 A1 0.0016367
  LUNO+2 :    5 A1 0.0003848
  LUNO+3 :    6 A1 0.0000003



Properties will be evaluated at   0.000000,   0.000000,   0.000000 Bohr

Properties computed using the SCF density matrix

  Nuclear Dipole Moment: (a.u.)
     X:     0.0000      Y:     0.0000      Z:     1.1250

  Electronic Dipole Moment: (a.u.)
     X:     0.0000      Y:     0.0000      Z:     0.2115

  Dipole Moment: (a.u.)
     X:     0.0000      Y:     0.0000      Z:     1.3365     Total:     1.3365

  Dipole Moment: (Debye)
     X:     0.0000      Y:     0.0000      Z:     3.3971     Total:     3.3971


*** tstop() called on psinet at Mon May 15 15:34:22 2017
Module time:
	user time   =       0.16 seconds =       0.00 minutes
	system time =       0.01 seconds =       0.00 minutes
	total time  =          1 seconds =       0.02 minutes
Total time:
	user time   =       0.16 seconds =       0.00 minutes
	system time =       0.01 seconds =       0.00 minutes
	total time  =          1 seconds =       0.02 minutes
 MINTS: Wrapper to libmints.
   by Justin Turney

   Calculation information:
      Number of threads:                 1
      Number of atoms:                   3
      Number of AO shells:              10
      Number of SO shells:               8
      Number of primitives:             22
      Number of atomic orbitals:        14
      Number of basis functions:        14

      Number of irreps:                  4
      Integral cutoff                 0.00e+00
      Number of functions per irrep: [   8    0    2    4 ]

 OEINTS: Overlap, kinetic, potential, dipole, and quadrupole integrals
         stored in file 35.

      Computing two-electron integrals...done
      Computed 1709 non-zero two-electron integrals.
        Stored in file 33.


*** tstart() called on psinet
*** at Mon May 15 15:34:22 2017


	Wfn Parameters:
	--------------------
	Wavefunction         = CCSD
	Number of irreps     = 4
	Number of MOs        = 14
	Number of active MOs = 14
	AO-Basis             = NONE
	Semicanonical        = false
	Reference            = UHF
	Print Level          = 1

	IRREP	# MOs	# FZDC	# DOCC	# SOCC	# VIRT	# FZVR
	-----	-----	------	------	------	------	------
	 A1	   8	    0	    3	    0	    5	    0
	 A2	   0	    0	    0	    0	    0	    0
	 B1	   2	    0	    0	    1	    1	    0
	 B2	   4	    0	    1	    0	    3	    0
	Transforming integrals...
	IWL integrals will be deleted.
	(OO|OO)...
	Presorting SO-basis two-electron integrals.
	Sorting File: SO Ints (nn|nn) nbuckets = 1
	Transforming the one-electron integrals and constructing Fock matrices
	Starting AA/AB first half-transformation.
	Sorting AA/AB half-transformed integrals.
	Starting BB first half-transformation.
	Sorting BB half-transformed integrals.
	First half integral transformation complete.
	Starting AA second half-transformation.
	Starting AB second half-transformation.
	Starting BB second half-transformation.
	Two-electron integral transformation complete.
	(OO|OV)...
	Starting AA second half-transformation.
	Starting AB second half-transformation.
	Starting BB second half-transformation.
	Two-electron integral transformation complete.
	(OO|VV)...
	Starting AA second half-transformation.
	Starting AB second half-transformation.
	Starting BB second half-transformation.
	Two-electron integral transformation complete.
	(OV|OO)...
	Starting AA/AB first half-transformation.
	Sorting AA/AB half-transformed integrals.
	Starting BB first half-transformation.
	Sorting BB half-transformed integrals.
	First half integral transformation complete.
	Starting AA second half-transformation.
	Starting AB second half-transformation.
	Starting BB second half-transformation.
	Two-electron integral transformation complete.
	(OV|OV)...
	Starting AA second half-transformation.
	Starting AB second half-transformation.
	Starting BB second half-transformation.
	Two-electron integral transformation complete.
	(OV|VV)...
	Starting AA second half-transformation.
	Starting AB second half-transformation.
	Starting BB second half-transformation.
	Two-electron integral transformation complete.
	(VV|OO)...
	Starting AA/AB first half-transformation.
	Sorting AA/AB half-transformed integrals.
	Starting BB first half-transformation.
	Sorting BB half-transformed integrals.
	First half integral transformation complete.
	Starting AA second half-transformation.
	Starting AB second half-transformation.
	Starting BB second half-transformation.
	Two-electron integral transformation complete.
	(VV|OV)...
	Starting AA second half-transformation.
	Starting AB second half-transformation.
	Starting BB second half-transformation.
	Two-electron integral transformation complete.
	(VV|VV)...
	Starting AA second half-transformation.
	Starting AB second half-transformation.
	Starting BB second half-transformation.
	Two-electron integral transformation complete.
	Frozen core energy     =      0.00000000000000

	Size of irrep 0 of <AB|CD> integrals:      0.000 (MW) /      0.001 (MB)
	Size of irrep 1 of <AB|CD> integrals:      0.000 (MW) /      0.000 (MB)
	Size of irrep 2 of <AB|CD> integrals:      0.000 (MW) /      0.000 (MB)
	Size of irrep 3 of <AB|CD> integrals:      0.000 (MW) /      0.002 (MB)
	Total:                                     0.000 (MW) /      0.003 (MB)

	Size of irrep 0 of <ab|cd> integrals:      0.000 (MW) /      0.002 (MB)
	Size of irrep 1 of <ab|cd> integrals:      0.000 (MW) /      0.000 (MB)
	Size of irrep 2 of <ab|cd> integrals:      0.000 (MW) /      0.001 (MB)
	Size of irrep 3 of <ab|cd> integrals:      0.000 (MW) /      0.002 (MB)
	Total:                                     0.001 (MW) /      0.004 (MB)

	Size of irrep 0 of <Ab|Cd> integrals:      0.001 (MW) /      0.010 (MB)
	Size of irrep 1 of <Ab|Cd> integrals:      0.000 (MW) /      0.001 (MB)
	Size of irrep 2 of <Ab|Cd> integrals:      0.000 (MW) /      0.002 (MB)
	Size of irrep 3 of <Ab|Cd> integrals:      0.001 (MW) /      0.007 (MB)
	Total:                                     0.003 (MW) /      0.020 (MB)

	Size of irrep 0 of <IA|BC> integrals:      0.001 (MW) /      0.005 (MB)
	Size of irrep 1 of <IA|BC> integrals:      0.000 (MW) /      0.000 (MB)
	Size of irrep 2 of <IA|BC> integrals:      0.000 (MW) /      0.001 (MB)
	Size of irrep 3 of <IA|BC> integrals:      0.000 (MW) /      0.003 (MB)
	Total:                                     0.001 (MW) /      0.010 (MB)

	Size of irrep 0 of <ia|bc> integrals:      0.001 (MW) /      0.005 (MB)
	Size of irrep 1 of <ia|bc> integrals:      0.000 (MW) /      0.000 (MB)
	Size of irrep 2 of <ia|bc> integrals:      0.000 (MW) /      0.001 (MB)
	Size of irrep 3 of <ia|bc> integrals:      0.000 (MW) /      0.003 (MB)
	Total:                                     0.001 (MW) /      0.010 (MB)

	Size of irrep 0 of <Ia|Bc> integrals:      0.001 (MW) /      0.006 (MB)
	Size of irrep 1 of <Ia|Bc> integrals:      0.000 (MW) /      0.000 (MB)
	Size of irrep 2 of <Ia|Bc> integrals:      0.000 (MW) /      0.001 (MB)
	Size of irrep 3 of <Ia|Bc> integrals:      0.000 (MW) /      0.003 (MB)
	Total:                                     0.001 (MW) /      0.011 (MB)

	Size of irrep 0 of <iA|bC> integrals:      0.001 (MW) /      0.005 (MB)
	Size of irrep 1 of <iA|bC> integrals:      0.000 (MW) /      0.000 (MB)
	Size of irrep 2 of <iA|bC> integrals:      0.000 (MW) /      0.000 (MB)
	Size of irrep 3 of <iA|bC> integrals:      0.000 (MW) /      0.003 (MB)
	Total:                                     0.001 (MW) /      0.009 (MB)

	Size of irrep 0 of tIjAb amplitudes:       0.000 (MW) /      0.003 (MB)
	Size of irrep 1 of tIjAb amplitudes:       0.000 (MW) /      0.000 (MB)
	Size of irrep 2 of tIjAb amplitudes:       0.000 (MW) /      0.000 (MB)
	Size of irrep 3 of tIjAb amplitudes:       0.000 (MW) /      0.001 (MB)
	Total:                                     0.001 (MW) /      0.005 (MB)

	Nuclear Rep. energy          =      8.64716688815186
	SCF energy                   =    -75.59901132895274
	One-electron energy          =   -117.13522780309863
	Two-electron (AA) energy     =      7.82966392097105
	Two-electron (BB) energy     =      4.56875562664247
	Two-electron (AB) energy     =     20.49063003838048
	Two-electron energy          =     32.88904958599399
	Reference energy             =    -75.59901132895278

*** tstop() called on psinet at Mon May 15 15:34:22 2017
Module time:
	user time   =       0.01 seconds =       0.00 minutes
	system time =       0.04 seconds =       0.00 minutes
	total time  =          0 seconds =       0.00 minutes
Total time:
	user time   =       0.19 seconds =       0.00 minutes
	system time =       0.06 seconds =       0.00 minutes
	total time  =          1 seconds =       0.02 minutes

*** tstart() called on psinet
*** at Mon May 15 15:34:22 2017

            **************************
            *                        *
            *        CCENERGY        *
            *                        *
            **************************

    Nuclear Rep. energy (wfn)     =    8.647166888151858
    SCF energy          (wfn)     =  -75.599011328952741
    Reference energy    (file100) =  -75.599011328952784

    Input parameters:
    -----------------
    Wave function   =     CCSD
    Reference wfn   =     UHF
    Brueckner       =     No
    Memory (Mbytes) =     524.3
    Maxiter         =     50
    R_Convergence   =     1.0e-07
    E_Convergence   =     1.0e-08
    Restart         =     Yes
    DIIS            =     Yes
    AO Basis        =     NONE
    ABCD            =     NEW
    Cache Level     =     2
    Cache Type      =     LRU
    Print Level     =     1
    Num. of threads =     1
    # Amps to Print =     10
    Print MP2 Amps? =     No
    Analyze T2 Amps =     No
    Print Pair Ener =     No
    Local CC        =     No
    SCS-MP2         =     False
    SCSN-MP2        =     False
    SCS-CCSD        =     False

MP2 correlation energy -0.1016366397059524
                Solving CC Amplitude Equations
                ------------------------------
  Iter             Energy              RMS        T1Diag      D1Diag    New D1Diag    D2Diag
  ----     ---------------------    ---------   ----------  ----------  ----------   --------
     0        -0.101636639705952    0.000e+00    0.000000    0.000000    0.000000    0.000000
     1        -0.109451106889833    3.889e-02    0.009110    0.000000    0.000000    0.000000
     2        -0.113590651278150    1.483e-02    0.011473    0.000000    0.000000    0.000000
     3        -0.114616177622797    6.070e-03    0.012698    0.000000    0.000000    0.000000
     4        -0.114752165712235    2.721e-03    0.012831    0.000000    0.000000    0.000000
     5        -0.114789454329490    9.356e-04    0.012860    0.000000    0.000000    0.000000
     6        -0.114797031702650    2.667e-04    0.012850    0.000000    0.000000    0.000000
     7        -0.114796887946271    9.186e-05    0.012846    0.000000    0.000000    0.000000
     8        -0.114797095769565    3.218e-05    0.012847    0.000000    0.000000    0.000000
     9        -0.114796961430402    1.028e-05    0.012848    0.000000    0.000000    0.000000
    10        -0.114796944763924    3.047e-06    0.012849    0.000000    0.000000    0.000000
    11        -0.114796943321296    7.299e-07    0.012849    0.000000    0.000000    0.000000
    12        -0.114796923553483    2.387e-07    0.012849    0.000000    0.000000    0.000000
    13        -0.114796918258749    6.150e-08    0.012849    0.000000    0.000000    0.000000
    14        -0.114796917590934    1.975e-08    0.012849    0.000000    0.000000    0.000000

    Iterations converged.


    Largest TIA Amplitudes:
              4   6         0.0217510786
              2   0         0.0173692422
              3   5        -0.0142222997
              2   1         0.0090337345
              1   0         0.0080949275
              4   8         0.0052499526
              2   3         0.0044971533
              1   2         0.0043598934
              4   7         0.0043144514
              2   2         0.0037931161

    Largest Tia Amplitudes:
              2   0         0.0091505301
              3   7         0.0072452590
              3   8         0.0064625986
              1   1         0.0045057358
              2   1        -0.0041929198
              2   3         0.0041592541
              1   3         0.0030264179
              3   9        -0.0025669851
              2   2         0.0011599705
              1   0         0.0006076170

    Largest TIJAB Amplitudes:
      3   2   5   1         0.0231635476
      4   3   6   5         0.0195133296
      4   2   6   1        -0.0177019078
      4   3   8   5         0.0139652597
      4   3   7   5        -0.0132528680
      4   2   8   1        -0.0128142923
      3   2   5   0         0.0123150094
      4   2   7   1         0.0116507688
      3   1   5   0         0.0108156359
      3   1   5   3        -0.0099905916

    Largest Tijab Amplitudes:
      3   2   7   1         0.0181412416
      3   2   9   1         0.0136532709
      3   2   8   1        -0.0105366357
      2   1   1   0         0.0091726840
      3   2   7   0        -0.0088491741
      2   1   3   1         0.0086642999
      3   1   8   0         0.0074347088
      3   1   7   0        -0.0073067959
      3   1   7   3         0.0064433067
      3   2   9   0        -0.0059868550

    Largest TIjAb Amplitudes:
      4   3   6   7        -0.0525749779
      2   2   1   1         0.0435553834
      4   3   6   9        -0.0357322495
      4   3   8   7        -0.0343036782
      3   2   5   1        -0.0314723547
      4   3   8   9        -0.0299403589
      3   3   6   5         0.0298201107
      3   1   0   5         0.0274315903
      4   2   6   1         0.0270739998
      2   3   1   7        -0.0268542914

    SCF energy       (wfn)                    =  -75.599011328952741
    Reference energy (file100)                =  -75.599011328952784

    Opposite-spin MP2 correlation energy      =   -0.082834809227258
    Same-spin MP2 correlation energy          =   -0.018801830478694
    MP2 correlation energy                    =   -0.101636639705952
      * MP2 total energy                      =  -75.700647968658743

    Opposite-spin CCSD correlation energy     =   -0.098592506170889
    Same-spin CCSD correlation energy         =   -0.016204411417147
    CCSD correlation energy                   =   -0.114796917590934
      * CCSD total energy                     =  -75.713808246543721


*** tstop() called on psinet at Mon May 15 15:34:22 2017
Module time:
	user time   =       0.12 seconds =       0.00 minutes
	system time =       0.22 seconds =       0.00 minutes
	total time  =          0 seconds =       0.00 minutes
Total time:
	user time   =       0.31 seconds =       0.01 minutes
	system time =       0.28 seconds =       0.00 minutes
	total time  =          1 seconds =       0.02 minutes

*** tstart() called on psinet
*** at Mon May 15 15:34:22 2017


			**************************
			*                        *
			*         CCHBAR         *
			*                        *
			**************************


*** tstop() called on psinet at Mon May 15 15:34:22 2017
Module time:
	user time   =       0.01 seconds =       0.00 minutes
	system time =       0.02 seconds =       0.00 minutes
	total time  =          0 seconds =       0.00 minutes
Total time:
	user time   =       0.32 seconds =       0.01 minutes
	system time =       0.30 seconds =       0.01 minutes
	total time  =          1 seconds =       0.02 minutes

*** tstart() called on psinet
*** at Mon May 15 15:34:22 2017


	**********************************************************
	*  CCEOM: An Equation of Motion Coupled Cluster Program  *
	**********************************************************

	Nuclear Rep. energy (wfn)     =    8.647166888151858
	SCF energy          (wfn)     =  -75.599011328952741
	Reference energy    (file100) =  -75.599011328952784
	CCSD energy         (file100) =   -0.114796917590934

	Input parameters:
	-----------------
	Reference wfn   =     UHF
	Reference EOM wfn=     UHF
	Memory (Mbytes) =  524.3
	ABCD            =     NEW
	Cache Level     =    2
	Cache Type      =     LRU
	Num. of threads =     1
	Local CC        =     No


	CCEOM parameters:
	-----------------
	States sought per irrep     = A1 0, A2 0, B1 0, B2 1,
	Max. number of iterations   =    80
	Vectors stored per root     =    12
	Print HbarSS iterations?    =     0
	Excitation range for HBarSS =     2
	Eigenvalue tolerance        = 1.0e-08
	Eigenvalue toleranceSS      = 1.0e-06
	Residual vector tolerance   = 1.0e-06
	Residual vector toleranceSS = 1.0e-06
	Complex tolerance           = 1.0e-12
	Root for properties         =     1
	Sym of state for properties =     A2
	Guess vectors taken from    = SINGLES
	Restart EOM CC3             = NO
	Collapse with last vector   = YES


Symmetry of ground state: B1
Symmetry of excited state: B2
Symmetry of right eigenvector: A2
Obtaining initial guess from singles-singles block of Hbar...Done.

Iter=1    L=1     Root    EOM Energy     Delta E   Res. Norm    Conv?
                     1   0.2640202428   2.64e-01    2.99e-01      N
Iter=2    L=2     Root    EOM Energy     Delta E   Res. Norm    Conv?
                     1   0.2226280034  -4.14e-02    7.09e-02      N
Iter=3    L=3     Root    EOM Energy     Delta E   Res. Norm    Conv?
                     1   0.2200645476  -2.56e-03    2.72e-02      N
Iter=4    L=4     Root    EOM Energy     Delta E   Res. Norm    Conv?
                     1   0.2197395046  -3.25e-04    8.36e-03      N
Iter=5    L=5     Root    EOM Energy     Delta E   Res. Norm    Conv?
                     1   0.2196779803  -6.15e-05    4.40e-03      N
Iter=6    L=6     Root    EOM Energy     Delta E   Res. Norm    Conv?
                     1   0.2196761075  -1.87e-06    1.23e-03      N
Iter=7    L=7     Root    EOM Energy     Delta E   Res. Norm    Conv?
                     1   0.2196775319   1.42e-06    3.93e-04      N
Iter=8    L=8     Root    EOM Energy     Delta E   Res. Norm    Conv?
                     1   0.2196772195  -3.12e-07    1.38e-04      N
Iter=9    L=9     Root    EOM Energy     Delta E   Res. Norm    Conv?
                     1   0.2196771833  -3.62e-08    4.23e-05      N
Iter=10   L=10    Root    EOM Energy     Delta E   Res. Norm    Conv?
                     1   0.2196772478   6.45e-08    1.74e-05      N
Iter=11   L=11    Root    EOM Energy     Delta E   Res. Norm    Conv?
                     1   0.2196772574   9.62e-09    6.32e-06      N
Iter=12   L=12    Root    EOM Energy     Delta E   Res. Norm    Conv?
                     1   0.2196772571  -3.50e-10    2.32e-06      N
Iter=13   L=2     Root    EOM Energy     Delta E   Res. Norm    Conv?
                     1   0.2196772571  -1.97e-15    2.32e-06      N
Iter=14   L=3     Root    EOM Energy     Delta E   Res. Norm    Conv?
                     1   0.2196772578   7.68e-10    7.97e-07      Y
Collapsing to only 1 vector(s).

Procedure converged for 1 root(s).
Energy written to CC_INFO:Etot  -75.4941309887
States per irrep written to CC_INFO.
<R|R> =   1.0000000000000004
EOM CCSD R0 for root 0 =   0.00000000000

Final Energetic Summary for Converged Roots of Irrep B2
                     Excitation Energy              Total Energy
                (eV)     (cm^-1)     (au)             (au)
EOM State 1      5.978    48213.6   0.2196772578   -75.494130988720

Largest components of excited wave function #1:
 RIA (libdpd indices) : (cscf notation)
         0 >   0      :       1b1 >    2b2 :    0.0356947683
         0 >   2      :       1b1 >    4b2 :    0.0143476983
         0 >   0      :       1b2 >    2b1 :   -0.0108934362
         0 >   1      :       1b1 >    3b2 :   -0.0004337222
 Ria (libdpd indices) : (cscf notation)
         0 >   0      :       1b2 >    1b1 :    0.9715569672
         0 >   1      :       1b2 >    2b1 :    0.1753113344
 RIjAb (libdpd indices)     : (cscf notation)
        0   0 >   0   1     :    1b1    1b2 >    2b1    2b1 :   -0.0572383993
        2   0 >   0   0     :    3a1    1b2 >    4a1    1b1 :    0.0408059736
        2   1 >   0   0     :    3a1    2a1 >    2b2    1b1 :    0.0378727883
        0   0 >   0   1     :    1b2    1b2 >    2b2    2b1 :    0.0366065023
        2   0 >   1   1     :    3a1    1b2 >    5a1    2b1 :    0.0362771237
 RIJAB (libdpd indices)     : (cscf notation)
        0   2 >   0   0     :    1b1    3a1 >    2b2    4a1 :   -0.0010484476
        0   0 >   1   0     :    1b2    1b1 >    3b2    2b2 :    0.0009968732
        0   0 >   2   0     :    1b2    1b1 >    4b2    2b2 :   -0.0008081162
        2   1 >   0   0     :    3a1    2a1 >    2b2    2b1 :   -0.0006808236
        0   2 >   0   2     :    1b1    3a1 >    2b2    6a1 :   -0.0006456508
 Rijab (libdpd indices)     : (cscf notation)
        0   2 >   1   1     :    1b2    3a1 >    2b1    5a1 :   -0.0253120675
        2   1 >   0   0     :    3a1    2a1 >    2b2    1b1 :    0.0212904323
        0   1 >   0   2     :    1b2    2a1 >    1b1    6a1 :   -0.0196073489
        0   1 >   0   0     :    1b2    2a1 >    1b1    4a1 :   -0.0173594437
        0   2 >   1   0     :    1b2    3a1 >    2b1    4a1 :    0.0169955165

	Putting into environment energy for root of R irrep 2 and root 1.
	Putting into environment CURRENT ENERGY:              -75.4941309887

	Total # of sigma evaluations: 13

*** tstop() called on psinet at Mon May 15 15:34:22 2017
Module time:
	user time   =       0.08 seconds =       0.00 minutes
	system time =       0.08 seconds =       0.00 minutes
	total time  =          0 seconds =       0.00 minutes
Total time:
	user time   =       0.40 seconds =       0.01 minutes
	system time =       0.38 seconds =       0.01 minutes
	total time  =          1 seconds =       0.02 minutes

*** tstart() called on psinet
*** at Mon May 15 15:34:22 2017


			**************************
			*        CCLAMBDA        *
			**************************


	Nuclear Rep. energy (wfn)     =    8.647166888151858
	Reference           (wfn)     =                    2
	SCF energy          (wfn)     =  -75.599011328952741
	Reference energy    (CC_INFO) =  -75.599011328952784
	CCSD energy         (CC_INFO) =   -0.114796917590934
	Total CCSD energy   (CC_INFO) =  -75.713808246543721

	Input parameters:
	-----------------
	Maxiter           =     50
	Convergence       = 1.0e-07
	Restart           =     No
	Cache Level       =     2
	Model III         =     No
	DIIS              =     Yes
	AO Basis          =     No
	ABCD              =     NEW
	Local CC          =     No
	Paramaters for left-handed eigenvectors:
	    Irr   Root  Ground-State?    EOM energy        R0
	  1   1     1         No       0.2196772578   0.0000000000
	Labels for eigenvector 1:
	LIA 1 0, Lia 1 0, LIJAB 1 0, Lijab 1 0, LIjAb 1 0, 2LIjAb - LIjbA 1 0
	Deleting old CC_LAMBDA data.
	Symmetry of left-hand state: B2
	Symmetry of left-hand eigenvector: A2
	Initial overlap of initial guess <L|R> =    1.0000000000
	Checking overlap of initial guess <L|R> =    1.0000000000

	          Solving Lambda Equations
	          ------------------------
	Iter     PseudoEnergy or Norm         RMS  
	----     ---------------------     --------
	   0         1.000000000000000    0.000e+00
	   1         0.995465779778075    1.521e-02
	   2         0.993946706793121    5.476e-03
	   3         0.993349276250405    2.161e-03
	   4         0.993129739673014    7.852e-04
	   5         0.993123528858666    1.940e-04
	   6         0.993128676535652    6.780e-05
	   7         0.993131689791723    2.226e-05
	   8         0.993131481351770    5.917e-06
	   9         0.993131231594996    2.123e-06
	  10         0.993131180088582    9.043e-07
	  11         0.993131209157657    2.702e-07
	  12         0.993131211883873    8.031e-08

	Initial  <L|R>  =        0.9928103007
	Normalizing L...
	L0 * R0 =        0.0000000000
	L1 * R1 =        0.9735793162
	L2 * R2 =        0.0264206838
	 <L|R>  =        1.0000000000
	Pseudoenergy or Norm of normalized L =    1.000323235176432

	Largest LIA Amplitudes:
	          3   6         0.0371643017
	          3   8         0.0148427896
	          4   5        -0.0123996381
	          3   7        -0.0008517401

	Largest Lia Amplitudes:
	          3   5         0.9688919153
	          3   6         0.1743792009

	Largest LIJAB Amplitudes:
	  4   3   7   6         0.0012907055
	  4   3   8   6        -0.0011268778
	  3   2   6   0        -0.0010842131
	  3   2   7   1        -0.0007381018
	  3   2   6   2        -0.0007283853
	  3   2   8   1         0.0006972852
	  2   1   6   5        -0.0006804372
	  3   2   6   1        -0.0006054999
	  3   2   7   0        -0.0005940328
	  3   1   6   3         0.0005694413

	Largest Lijab Amplitudes:
	  3   2   6   1        -0.0317030399
	  2   1   7   5         0.0227559086
	  3   1   5   2        -0.0217359578
	  3   2   6   0         0.0215684679
	  3   1   5   0        -0.0198687363
	  3   2   5   0         0.0158140924
	  3   1   6   3        -0.0139953369
	  2   1   9   5         0.0119581127
	  3   1   6   0         0.0111939987
	  2   1   8   5         0.0089019183

	Largest LIjAb Amplitudes:
	  3   3   5   6        -0.0612874482
	  2   3   0   5         0.0467370540
	  4   3   6   6         0.0427734328
	  2   3   1   6         0.0411444388
	  4   3   6   5         0.0395481370
	  2   1   6   5         0.0385713180
	  3   3   5   5        -0.0373075288
	  2   3   0   6         0.0298742675
	  4   3   8   6         0.0294214578
	  2   3   2   5         0.0290268222

	Iterations converged.


*** tstop() called on psinet at Mon May 15 15:34:22 2017
Module time:
	user time   =       0.02 seconds =       0.00 minutes
	system time =       0.04 seconds =       0.00 minutes
	total time  =          0 seconds =       0.00 minutes
Total time:
	user time   =       0.42 seconds =       0.01 minutes
	system time =       0.42 seconds =       0.01 minutes
	total time  =          1 seconds =       0.02 minutes

*** tstart() called on psinet
*** at Mon May 15 15:34:22 2017


			**************************
			*                        *
			*        CCDENSITY       *
			*                        *
			**************************


	Input parameters:
	-----------------
	Wave function    = EOM_CCSD
	Reference wfn    =   UHF
	Dertype          = 1
	Tolerance        = 1.0e-14
	Cache Level      = 2
	AO Basis         = No
	OPDM Only        = No
	Relax OPDM       = Yes
	Compute Xi       = Yes
	Use Zeta         = No
	Xi connected     = Yes
	Compute NO       = No

	Nuclear Rep. energy (wfn)     =    8.647166888151858
	SCF energy          (wfn)     =  -75.599011328952741
	Reference energy    (file100) =  -75.599011328952784
	CCSD energy         (CC_INFO) =   -0.114796917590934
	Total CCSD energy   (CC_INFO) =  -75.713808246543721
	Number of States = 1

	Ground?  State     EOM Energy       R0
	   No     1 A2    0.2196772578   0.00000000

energy:    0.2196772578
XIA amplitudes: norm=   0.109283442058403 dot=   0.011942870708132
X1 amplitudes:  norm=   0.126232204129950 dot=   0.015934569359505
Norm of Xi:    1.267014994451109

*** tstop() called on psinet at Mon May 15 15:34:22 2017
Module time:
	user time   =       0.01 seconds =       0.00 minutes
	system time =       0.04 seconds =       0.00 minutes
	total time  =          0 seconds =       0.00 minutes
Total time:
	user time   =       0.44 seconds =       0.01 minutes
	system time =       0.46 seconds =       0.01 minutes
	total time  =          1 seconds =       0.02 minutes

*** tstart() called on psinet
*** at Mon May 15 15:34:22 2017


			**************************
			*        CCLAMBDA        *
			**************************


	Nuclear Rep. energy (wfn)     =    8.647166888151858
	Reference           (wfn)     =                    2
	SCF energy          (wfn)     =  -75.599011328952741
	Reference energy    (CC_INFO) =  -75.599011328952784
	CCSD energy         (CC_INFO) =   -0.114796917590934
	Total CCSD energy   (CC_INFO) =  -75.713808246543721
	Irrep of Zeta       (CC_INFO) = 0

	Input parameters:
	-----------------
	Maxiter           =     50
	Convergence       = 1.0e-07
	Restart           =     No
	Cache Level       =     2
	Model III         =     No
	DIIS              =     Yes
	AO Basis          =     No
	ABCD              =     NEW
	Local CC          =     No
	Paramaters for left-handed eigenvectors:
	    Irr   Root  Ground-State?    EOM energy        R0
	  1   0     1         No       0.0000000000   0.0000000000
	Labels for eigenvector 1:
	ZIA, Zia, ZIJAB, Zijab, ZIjAb, 2ZIjAb - ZIjbA
	Deleting old CC_LAMBDA data.
	Symmetry of left-hand state: B1
	Symmetry of left-hand eigenvector: A1

	          Solving Lambda Equations
	          ------------------------
	Iter     PseudoEnergy or Norm         RMS  
	----     ---------------------     --------
	   0         0.124247510293664    8.031e-08
	   1         0.163427381981409    5.778e-02
	   2         0.179661823310864    1.927e-02
	   3         0.185372924985544    6.487e-03
	   4         0.186829142804801    2.016e-03
	   5         0.186987611810152    6.050e-04
	   6         0.187061739929913    2.889e-04
	   7         0.187065205768306    9.443e-05
	   8         0.187066248881026    2.517e-05
	   9         0.187066274998531    6.158e-06
	  10         0.187066272185125    1.796e-06
	  11         0.187066296484569    4.530e-07
	  12         0.187066296822145    9.212e-08

	Largest LIA Amplitudes:
	          2   0         0.0595019571
	          3   5        -0.0504868582
	          4   6         0.0500054503
	          2   2         0.0322347252
	          4   8         0.0317631929
	          2   1         0.0257294309
	          1   0         0.0245484573
	          1   2         0.0243536870
	          4   7         0.0175429462
	          2   3         0.0077317100

	Largest Lia Amplitudes:
	          1   2        -0.0241850248
	          1   0        -0.0235217486
	          2   0         0.0183972464
	          2   2         0.0067571416
	          2   3         0.0058936822
	          1   1         0.0055982171
	          2   1        -0.0041723738
	          1   3        -0.0037334283
	          3   7        -0.0033229517
	          3   8         0.0013058166

	Largest LIJAB Amplitudes:
	  3   2   5   1         0.0222228008
	  4   3   6   5         0.0210972428
	  4   2   6   1        -0.0196475839
	  4   3   8   5         0.0145612412
	  4   2   8   1        -0.0137110233
	  3   2   5   0         0.0131396712
	  4   3   7   5        -0.0130873100
	  4   2   6   0        -0.0114117082
	  4   2   7   1         0.0106903315
	  3   1   5   3        -0.0103342644

	Largest Lijab Amplitudes:
	  2   1   3   1         0.0091849101
	  2   1   1   0         0.0082004202
	  2   1   3   0        -0.0059451967
	  3   2   7   1        -0.0059429846
	  2   1   2   1        -0.0053160312
	  3   2   7   0         0.0049751057
	  3   2   9   1        -0.0043764549
	  3   1   7   0         0.0037266271
	  3   2   9   0         0.0033528503
	  2   1   8   7         0.0028465992

	Largest LIjAb Amplitudes:
	  2   2   1   1         0.0423254280
	  3   2   5   1        -0.0314395421
	  4   2   6   1         0.0290607805
	  4   2   6   0        -0.0252729504
	  2   2   0   0        -0.0232022696
	  4   2   8   1         0.0209838823
	  2   2   6   7        -0.0205312562
	  2   2   0   1         0.0202985785
	  4   1   6   0        -0.0201715839
	  3   1   5   0         0.0199679027

	Iterations converged.

Norm of Zeta:    0.187066296822145

*** tstop() called on psinet at Mon May 15 15:34:23 2017
Module time:
	user time   =       0.04 seconds =       0.00 minutes
	system time =       0.04 seconds =       0.00 minutes
	total time  =          1 seconds =       0.02 minutes
Total time:
	user time   =       0.48 seconds =       0.01 minutes
	system time =       0.50 seconds =       0.01 minutes
	total time  =          2 seconds =       0.03 minutes

*** tstart() called on psinet
*** at Mon May 15 15:34:23 2017


			**************************
			*                        *
			*        CCDENSITY       *
			*                        *
			**************************


	Input parameters:
	-----------------
	Wave function    = EOM_CCSD
	Reference wfn    =   UHF
	Dertype          = 1
	Tolerance        = 1.0e-14
	Cache Level      = 2
	AO Basis         = No
	OPDM Only        = No
	Relax OPDM       = Yes
	Compute Xi       = No
	Use Zeta         = Yes
	Xi connected     = Yes
	Compute NO       = No

	Nuclear Rep. energy (wfn)     =    8.647166888151858
	SCF energy          (wfn)     =  -75.599011328952741
	Reference energy    (file100) =  -75.599011328952784
	CCSD energy         (CC_INFO) =   -0.114796917590934
	Total CCSD energy   (CC_INFO) =  -75.713808246543721
	Number of States = 1

	Ground?  State     EOM Energy       R0
	   No     1 A2    0.2196772578   0.00000000
Ro*L+Zeta in CC_GLG, LIA before zeta:    0.0000000000
Ro*L+Zeta in CC_GLG, LIA:    0.0128651841
	Overlaps of onepdm after excited-state parts added.
	<DIA|DIA> =    0.0137386342     <Dia|Dia> =    0.0015789331
	<DAI|DAI> =    0.0128651841     <Dai|Dai> =    0.0016332402
	<Dpq|Dqp> =    0.0298159916

	Energies re-computed from CC density:
	-------------------------------------
	One-electron energy        =    0.975003903411611
	IJKL energy                =    0.036116950922524
	IJKA energy                =    0.018592373709814
	IJAB energy                =   -0.140130299702079
	IBJA energy                =   -0.702375203543506
	CIAB energy                =   -0.113163422192105
	ABCD energy                =    0.030836038125658
	Total two-electron energy  =   -0.870123562679693
	Total EOM CCSD correlation energy        =    0.104880340731918
	CCSD correlation + EOM excitation energy =    0.104880340233055
	Total EOM CCSD energy                    =  -75.494130988220860

	Energies re-computed from Fock-adjusted CC density:
	---------------------------------------------------
	One-electron energy        =    0.305604319314238
	IJKL energy                =   -6.016673824737555
	IJKA energy                =   -0.556663078489331
	IJAB energy                =   -0.140130299702079
	IBJA energy                =    6.595070608428771
	CIAB energy                =   -0.113163422192105
	ABCD energy                =    0.030836038125658
	Total two-electron energy  =   -0.200723978566640
	EOM_CCSD correlation energy =    0.104880340747598
	Total EOM_CCSD energy       =  -75.494130988205185

	Energies re-computed from Mulliken density:
	-------------------------------------------
	One-electron energy        =    0.305604319314238
	IjKl energy                =   -3.813714235442891
	IJKL energy                =   -0.145876104545905
	ijkl energy                =   -2.057083484748758
	IjKa+iJkA energy           =   -0.265296709544723
	IJKA energy                =   -0.305579528568721
	ijka energy                =    0.014213159624113
	IjAb energy                =   -0.109193234313338
	IJAB energy                =   -0.019826543394636
	ijab energy                =   -0.214024771322935
	IBJA energy                =    0.118306252710996
	ibja energy                =    2.533407601039265
	iBjA+IbJa energy           =    4.146271004007342
	cIaB+CiAb energy           =   -0.103496276195797
	CIAB energy                =    0.001323191253896
	ciab energy                =   -0.010990337250204
	AbCd energy                =    0.027728120242130
	ABCD energy                =    0.001355240576016
	abcd energy                =    0.001752677307512
	Total two-electron energy  =   -0.200723978566639
	EOM_CCSD correlation energy =    0.104880340747599
	Total EOM_CCSD energy       =  -75.494130988205185


Properties will be evaluated at   0.000000,   0.000000,   0.000000 Bohr

Properties computed using the CC density matrix

  Nuclear Dipole Moment: (a.u.)
     X:     0.0000      Y:     0.0000      Z:     1.1250

  Electronic Dipole Moment: (a.u.)
     X:     0.0000      Y:     0.0000      Z:     0.4840

  Dipole Moment: (a.u.)
     X:     0.0000      Y:     0.0000      Z:     1.6090     Total:     1.6090

  Dipole Moment: (Debye)
     X:     0.0000      Y:     0.0000      Z:     4.0896     Total:     4.0896

  Quadrupole Moment: (Debye Ang)
    XX:    -4.6273     YY:    -0.6207     ZZ:    -3.2099
    XY:    -0.0000     XZ:     0.0000     YZ:     0.0000

  Traceless Quadrupole Moment: (Debye Ang)
    XX:    -1.8080     YY:     2.1986     ZZ:    -0.3906
    XY:    -0.0000     XZ:     0.0000     YZ:     0.0000

  Mulliken Charges: (a.u.)
   Center  Symbol    Alpha    Beta     Spin     Total
       1     H     0.24431  0.10890  0.13540  0.64679
       2     O     4.51139  3.78219  0.72920 -0.29358
       3     H     0.24431  0.10890  0.13540  0.64679

   Total alpha =  5.00000, Total beta =  4.00000, Total charge =  1.00000

  Natural Orbital Occupations:

  Alpha Occupations:
  HONO-2 :    3 A1    0.988
  HONO-1 :    1 B2    0.988
  HONO-0 :    1 B1    0.985
  LUNO+0 :    2 B2    0.016
  LUNO+1 :    4 A1    0.010
  LUNO+2 :    2 B1    0.010
  LUNO+3 :    5 A1    0.005

  Beta Occupations:
  HONO-2 :    2 A1    0.991
  HONO-1 :    3 A1    0.983
  HONO-0 :    4 A1    0.955
  LUNO+0 :    1 B1    0.043
  LUNO+1 :    1 B2    0.009
  LUNO+2 :    5 A1    0.007
  LUNO+3 :    2 B1    0.006

  Total Occupations:
  HONO-2 :    2 A1    1.985
  HONO-1 :    3 A1    1.968
  HONO-0 :    1 B2    0.996
  LUNO+0 :    1 B1    0.992
  LUNO+1 :    4 A1    0.955
  LUNO+2 :    2 B1    0.053
  LUNO+3 :    2 B2    0.018


*** tstop() called on psinet at Mon May 15 15:34:23 2017
Module time:
	user time   =       0.07 seconds =       0.00 minutes
	system time =       0.06 seconds =       0.00 minutes
	total time  =          0 seconds =       0.00 minutes
Total time:
	user time   =       0.55 seconds =       0.01 minutes
	system time =       0.56 seconds =       0.01 minutes
	total time  =          2 seconds =       0.03 minutes
  Cartesian Displacement SALCs
  By SALC:
  Number of SALCs: 3, nirreps: 1
  Project out translations: False
  Project out rotations: False
	irrep = 0, ncomponent = 2
		0: atom 0, direction y, coef 0.707107
		1: atom 2, direction y, coef -0.707107
	irrep = 0, ncomponent = 2
		0: atom 0, direction z, coef 0.707107
		1: atom 2, direction z, coef 0.707107
	irrep = 0, ncomponent = 1
		0: atom 1, direction z, coef 1.000000

  By Atomic Center:
  Number of atomic centers: 3
   Atomic Center 0:
	x component, size = 0
	y component, size = 1
		0: salc 0, irrep 0, coef 0.707107
	z component, size = 1
		0: salc 1, irrep 0, coef 0.707107
   Atomic Center 1:
	x component, size = 0
	y component, size = 0
	z component, size = 1
		0: salc 2, irrep 0, coef 1.000000
   Atomic Center 2:
	x component, size = 0
	y component, size = 1
		0: salc 0, irrep 0, coef -0.707107
	z component, size = 1
		0: salc 1, irrep 0, coef 0.707107

    Molecular point group: c2v
    Full point group: C2v

    Geometry (in Bohr), charge = 1, multiplicity = 2:

       Center              X                  Y                   Z       
    ------------   -----------------  -----------------  -----------------
           H          0.000000000000    -1.443627918148     1.134274838578
           O          0.000000000000     0.000000000000    -0.142939253226
           H         -0.000000000000     1.443627918148     1.134274838578

	Presorting MO-basis TPDMs.
	Sorting File: MO TPDM (AA|AA) nbuckets = 1
	Sorting File: MO TPDM (AA|aa) nbuckets = 1
	Sorting File: MO TPDM (aa|aa) nbuckets = 1
	Starting first half-transformation.
	Sorting half-transformed TPDMs.
	First half integral transformation complete.


  -Nuclear Repulsion Energy 1st Derivatives:
     Atom            X                  Y                   Z
    ------   -----------------  -----------------  -----------------
       1       -0.000000000000     1.732636842258    -1.426777654799
       2        0.000000000000     0.000000000000     2.853555309597
       3        0.000000000000    -1.732636842258    -1.426777654799


  -One-electron contribution to gradient:
     Atom            X                  Y                   Z
    ------   -----------------  -----------------  -----------------
       1        0.000000000000    -3.438071985044     2.425418787668
       2        0.000000000000     0.000000000000    -4.850837575337
       3       -0.000000000000     3.438071985044     2.425418787668


  -Lagrangian contribution to gradient:
     Atom            X                  Y                   Z
    ------   -----------------  -----------------  -----------------
       1       -0.000000000000     0.296784005829    -0.186399363707
       2        0.000000000000     0.000000000000     0.372798727414
       3        0.000000000000    -0.296784005829    -0.186399363707


  -Two-electron contribution to gradient:
     Atom            X                  Y                   Z
    ------   -----------------  -----------------  -----------------
       1       -0.000000000000     1.450316666904    -0.893290465343
       2        0.000000000000     0.000000000000     1.786580930686
       3        0.000000000000    -1.450316666904    -0.893290465343


  -Total gradient:
     Atom            X                  Y                   Z
    ------   -----------------  -----------------  -----------------
       1       -0.000000000000     0.041665529947    -0.081048696180
       2        0.000000000000     0.000000000000     0.162097392360
       3        0.000000000000    -0.041665529947    -0.081048696180

gradient() will perform gradient computation by finite difference of analytic energies.

-------------------------------------------------------------

  Using finite-differences of energies to determine gradients (fd_geoms_1_0).
	Generating geometries for use with 3-point formula.
	Displacement size will be 5.00e-03.
	Number of atoms is 3.
	Number of symmetric SALC's is 2.
	Number of displacements (including reference) is 5.

-------------------------------------------------------------

  //>>>>>>>>>>>>>>>>>>>>>>>>>>>>>>>>>>>//
  //    Loading displacement 1 of 5    //
  //<<<<<<<<<<<<<<<<<<<<<<<<<<<<<<<<<<<//

*** tstart() called on psinet
*** at Mon May 15 15:34:23 2017

   => Loading Basis Set <=

    Name: DZ
    Role: ORBITAL
    Keyword: BASIS
    atoms 1, 3 entry H          line    11 file /home/psilocaluser/gits/hrw-direct/objdir4/stage/usr/local/psi4/share/psi4/basis/dz.gbs 
    atoms 2    entry O          line   106 file /home/psilocaluser/gits/hrw-direct/objdir4/stage/usr/local/psi4/share/psi4/basis/dz.gbs 


         ---------------------------------------------------------
                                   SCF
            by Justin Turney, Rob Parrish, and Andy Simmonett
                              UHF Reference
                        1 Threads,    500 MiB Core
         ---------------------------------------------------------

  ==> Geometry <==

    Molecular point group: c2v
    Full point group: C2v

    Geometry (in Bohr), charge = 1, multiplicity = 2:

       Center              X                  Y                   Z               Mass       
    ------------   -----------------  -----------------  -----------------  -----------------
           H          0.000000000000    -1.447149699877     1.134274838578     1.007825032070
           O          0.000000000000     0.000000000000    -0.142939253226    15.994914619560
           H         -0.000000000000     1.447149699877     1.134274838578     1.007825032070

  Running in c2v symmetry.

  Rotational constants: A =     20.61565  B =     14.26107  C =      8.42973 [cm^-1]
  Rotational constants: A = 618041.72688  B = 427536.18680  C = 252716.89439 [MHz]
  Nuclear repulsion =    8.634974470989285

  Charge       = 1
  Multiplicity = 2
  Electrons    = 9
  Nalpha       = 5
  Nbeta        = 4

  ==> Algorithm <==

  SCF Algorithm Type is PK.
  DIIS enabled.
  MOM disabled.
  Fractional occupation disabled.
  Guess Type is GWH.
  Energy threshold   = 1.00e-10
  Density threshold  = 1.00e-10
  Integral threshold = 0.00e+00

  ==> Primary Basis <==

  Basis Set: DZ
    Blend: DZ
    Number of shells: 10
    Number of basis function: 14
    Number of Cartesian functions: 14
    Spherical Harmonics?: false
    Max angular momentum: 1

  ==> Pre-Iterations <==

   -------------------------------------------------------
    Irrep   Nso     Nmo     Nalpha   Nbeta   Ndocc  Nsocc
   -------------------------------------------------------
     A1         8       8       0       0       0       0
     A2         0       0       0       0       0       0
     B1         2       2       0       0       0       0
     B2         4       4       0       0       0       0
   -------------------------------------------------------
    Total      14      14       5       4       4       1
   -------------------------------------------------------

  ==> Integral Setup <==

  Using in-core PK algorithm.
   Calculation information:
      Number of atoms:                   3
      Number of AO shells:              10
      Number of primitives:             22
      Number of atomic orbitals:        14
      Number of basis functions:        14

      Integral cutoff                 1.00e-12
      Number of threads:                 1

  Performing in-core PK
  Using 11130 doubles for integral storage.
  We computed 1540 shell quartets total.
  Whereas there are 1540 unique shell quartets.
  ==> DiskJK: Disk-Based J/K Matrices <==

    J tasked:                  Yes
    K tasked:                  Yes
    wK tasked:                  No
    Memory (MB):               375
    Schwarz Cutoff:          1E-12

    OpenMP threads:              1
  Minimum eigenvalue in the overlap matrix is 6.0948076218E-02.
  Using Symmetric Orthogonalization.

  SCF Guess: Generalized Wolfsberg-Helmholtz.

  ==> Iterations <==

                        Total Energy        Delta E     RMS |[F,P]|

   @UHF iter   1:   -75.16904144114464   -7.51690e+01   2.72291e-01 
   @UHF iter   2:   -75.56727994841854   -3.98239e-01   3.05398e-02 DIIS
   @UHF iter   3:   -75.59406445083640   -2.67845e-02   1.06450e-02 DIIS
   @UHF iter   4:   -75.59860408687663   -4.53964e-03   2.06657e-03 DIIS
   @UHF iter   5:   -75.59898675847325   -3.82672e-04   7.02302e-04 DIIS
   @UHF iter   6:   -75.59905832460829   -7.15661e-05   3.00963e-04 DIIS
   @UHF iter   7:   -75.59907487702421   -1.65524e-05   7.68304e-05 DIIS
   @UHF iter   8:   -75.59907587649613   -9.99472e-07   1.02716e-05 DIIS
   @UHF iter   9:   -75.59907589108818   -1.45920e-08   1.90414e-06 DIIS
   @UHF iter  10:   -75.59907589155750   -4.69328e-10   4.84741e-07 DIIS
   @UHF iter  11:   -75.59907589158432   -2.68159e-11   1.15412e-07 DIIS
   @UHF iter  12:   -75.59907589158601   -1.69109e-12   1.86763e-08 DIIS
   @UHF iter  13:   -75.59907589158601    0.00000e+00   2.41290e-09 DIIS
   @UHF iter  14:   -75.59907589158608   -7.10543e-14   4.90371e-10 DIIS
   @UHF iter  15:   -75.59907589158603    5.68434e-14   4.56334e-11 DIIS

  ==> Post-Iterations <==

   @Spin Contamination Metric:   7.912693460E-03
   @S^2 Expected:                7.500000000E-01
   @S^2 Observed:                7.579126935E-01
   @S   Expected:                5.000000000E-01
   @S   Observed:                5.000000000E-01

    Orbital Energies (a.u.)
    -----------------------

    Alpha Occupied:                                                       

       1A1   -21.127147     2A1    -1.896414     1B2    -1.170765  
       1B1    -1.120398     3A1    -1.083005  

    Alpha Virtual:                                                        

       4A1    -0.149377     2B2    -0.069313     2B1     0.400429  
       5A1     0.490604     3B2     0.542330     4B2     0.752693  
       6A1     0.778623     7A1     1.218844     8A1    42.767814  

    Beta Occupied:                                                        

       1A1   -21.080197     2A1    -1.730972     1B2    -1.123388  
       3A1    -1.019105  

    Beta Virtual:                                                         

       1B1    -0.314356     4A1    -0.133813     2B2    -0.058944  
       5A1     0.514258     3B2     0.549622     2B1     0.574059  
       4B2     0.760783     6A1     0.785196     7A1     1.268249  
       8A1    42.796756  

    Final Occupation by Irrep:
             A1    A2    B1    B2 
    DOCC [     3,    0,    0,    1 ]
    SOCC [     0,    0,    1,    0 ]

  Energy converged.

  @UHF Final Energy:   -75.59907589158603

   => Energetics <=

    Nuclear Repulsion Energy =              8.6349744709892846
    One-Electron Energy =                -117.1167083217528102
    Two-Electron Energy =                  32.8826579591775072
    DFT Exchange-Correlation Energy =       0.0000000000000000
    Empirical Dispersion Energy =           0.0000000000000000
    PCM Polarization Energy =               0.0000000000000000
    EFP Energy =                            0.0000000000000000
    Total Energy =                        -75.5990758915860255


  UHF NO Occupations:
  HONO-2 :    3 A1 1.9983515
  HONO-1 :    1 B2 1.9980744
  HONO-0 :    1 B1 1.0000000
  LUNO+0 :    2 B2 0.0019256
  LUNO+1 :    4 A1 0.0016485
  LUNO+2 :    5 A1 0.0003852
  LUNO+3 :    6 A1 0.0000003



Properties will be evaluated at   0.000000,   0.000000,   0.000000 Bohr

Properties computed using the SCF density matrix

  Nuclear Dipole Moment: (a.u.)
     X:     0.0000      Y:     0.0000      Z:     1.1250

  Electronic Dipole Moment: (a.u.)
     X:     0.0000      Y:     0.0000      Z:     0.2119

  Dipole Moment: (a.u.)
     X:     0.0000      Y:     0.0000      Z:     1.3370     Total:     1.3370

  Dipole Moment: (Debye)
     X:     0.0000      Y:     0.0000      Z:     3.3982     Total:     3.3982


*** tstop() called on psinet at Mon May 15 15:34:23 2017
Module time:
	user time   =       0.12 seconds =       0.00 minutes
	system time =       0.01 seconds =       0.00 minutes
	total time  =          0 seconds =       0.00 minutes
Total time:
	user time   =       0.71 seconds =       0.01 minutes
	system time =       0.58 seconds =       0.01 minutes
	total time  =          2 seconds =       0.03 minutes
 MINTS: Wrapper to libmints.
   by Justin Turney

   Calculation information:
      Number of threads:                 1
      Number of atoms:                   3
      Number of AO shells:              10
      Number of SO shells:               8
      Number of primitives:             22
      Number of atomic orbitals:        14
      Number of basis functions:        14

      Number of irreps:                  4
      Integral cutoff                 0.00e+00
      Number of functions per irrep: [   8    0    2    4 ]

 OEINTS: Overlap, kinetic, potential, dipole, and quadrupole integrals
         stored in file 35.

      Computing two-electron integrals...done
      Computed 1709 non-zero two-electron integrals.
        Stored in file 33.


*** tstart() called on psinet
*** at Mon May 15 15:34:23 2017


	Wfn Parameters:
	--------------------
	Wavefunction         = CCSD
	Number of irreps     = 4
	Number of MOs        = 14
	Number of active MOs = 14
	AO-Basis             = NONE
	Semicanonical        = false
	Reference            = UHF
	Print Level          = 1

	IRREP	# MOs	# FZDC	# DOCC	# SOCC	# VIRT	# FZVR
	-----	-----	------	------	------	------	------
	 A1	   8	    0	    3	    0	    5	    0
	 A2	   0	    0	    0	    0	    0	    0
	 B1	   2	    0	    0	    1	    1	    0
	 B2	   4	    0	    1	    0	    3	    0
	Transforming integrals...
	IWL integrals will be deleted.
	(OO|OO)...
	Presorting SO-basis two-electron integrals.
	Sorting File: SO Ints (nn|nn) nbuckets = 1
	Transforming the one-electron integrals and constructing Fock matrices
	Starting AA/AB first half-transformation.
	Sorting AA/AB half-transformed integrals.
	Starting BB first half-transformation.
	Sorting BB half-transformed integrals.
	First half integral transformation complete.
	Starting AA second half-transformation.
	Starting AB second half-transformation.
	Starting BB second half-transformation.
	Two-electron integral transformation complete.
	(OO|OV)...
	Starting AA second half-transformation.
	Starting AB second half-transformation.
	Starting BB second half-transformation.
	Two-electron integral transformation complete.
	(OO|VV)...
	Starting AA second half-transformation.
	Starting AB second half-transformation.
	Starting BB second half-transformation.
	Two-electron integral transformation complete.
	(OV|OO)...
	Starting AA/AB first half-transformation.
	Sorting AA/AB half-transformed integrals.
	Starting BB first half-transformation.
	Sorting BB half-transformed integrals.
	First half integral transformation complete.
	Starting AA second half-transformation.
	Starting AB second half-transformation.
	Starting BB second half-transformation.
	Two-electron integral transformation complete.
	(OV|OV)...
	Starting AA second half-transformation.
	Starting AB second half-transformation.
	Starting BB second half-transformation.
	Two-electron integral transformation complete.
	(OV|VV)...
	Starting AA second half-transformation.
	Starting AB second half-transformation.
	Starting BB second half-transformation.
	Two-electron integral transformation complete.
	(VV|OO)...
	Starting AA/AB first half-transformation.
	Sorting AA/AB half-transformed integrals.
	Starting BB first half-transformation.
	Sorting BB half-transformed integrals.
	First half integral transformation complete.
	Starting AA second half-transformation.
	Starting AB second half-transformation.
	Starting BB second half-transformation.
	Two-electron integral transformation complete.
	(VV|OV)...
	Starting AA second half-transformation.
	Starting AB second half-transformation.
	Starting BB second half-transformation.
	Two-electron integral transformation complete.
	(VV|VV)...
	Starting AA second half-transformation.
	Starting AB second half-transformation.
	Starting BB second half-transformation.
	Two-electron integral transformation complete.
	Frozen core energy     =      0.00000000000000

	Size of irrep 0 of <AB|CD> integrals:      0.000 (MW) /      0.001 (MB)
	Size of irrep 1 of <AB|CD> integrals:      0.000 (MW) /      0.000 (MB)
	Size of irrep 2 of <AB|CD> integrals:      0.000 (MW) /      0.000 (MB)
	Size of irrep 3 of <AB|CD> integrals:      0.000 (MW) /      0.002 (MB)
	Total:                                     0.000 (MW) /      0.003 (MB)

	Size of irrep 0 of <ab|cd> integrals:      0.000 (MW) /      0.002 (MB)
	Size of irrep 1 of <ab|cd> integrals:      0.000 (MW) /      0.000 (MB)
	Size of irrep 2 of <ab|cd> integrals:      0.000 (MW) /      0.001 (MB)
	Size of irrep 3 of <ab|cd> integrals:      0.000 (MW) /      0.002 (MB)
	Total:                                     0.001 (MW) /      0.004 (MB)

	Size of irrep 0 of <Ab|Cd> integrals:      0.001 (MW) /      0.010 (MB)
	Size of irrep 1 of <Ab|Cd> integrals:      0.000 (MW) /      0.001 (MB)
	Size of irrep 2 of <Ab|Cd> integrals:      0.000 (MW) /      0.002 (MB)
	Size of irrep 3 of <Ab|Cd> integrals:      0.001 (MW) /      0.007 (MB)
	Total:                                     0.003 (MW) /      0.020 (MB)

	Size of irrep 0 of <IA|BC> integrals:      0.001 (MW) /      0.005 (MB)
	Size of irrep 1 of <IA|BC> integrals:      0.000 (MW) /      0.000 (MB)
	Size of irrep 2 of <IA|BC> integrals:      0.000 (MW) /      0.001 (MB)
	Size of irrep 3 of <IA|BC> integrals:      0.000 (MW) /      0.003 (MB)
	Total:                                     0.001 (MW) /      0.010 (MB)

	Size of irrep 0 of <ia|bc> integrals:      0.001 (MW) /      0.005 (MB)
	Size of irrep 1 of <ia|bc> integrals:      0.000 (MW) /      0.000 (MB)
	Size of irrep 2 of <ia|bc> integrals:      0.000 (MW) /      0.001 (MB)
	Size of irrep 3 of <ia|bc> integrals:      0.000 (MW) /      0.003 (MB)
	Total:                                     0.001 (MW) /      0.010 (MB)

	Size of irrep 0 of <Ia|Bc> integrals:      0.001 (MW) /      0.006 (MB)
	Size of irrep 1 of <Ia|Bc> integrals:      0.000 (MW) /      0.000 (MB)
	Size of irrep 2 of <Ia|Bc> integrals:      0.000 (MW) /      0.001 (MB)
	Size of irrep 3 of <Ia|Bc> integrals:      0.000 (MW) /      0.003 (MB)
	Total:                                     0.001 (MW) /      0.011 (MB)

	Size of irrep 0 of <iA|bC> integrals:      0.001 (MW) /      0.005 (MB)
	Size of irrep 1 of <iA|bC> integrals:      0.000 (MW) /      0.000 (MB)
	Size of irrep 2 of <iA|bC> integrals:      0.000 (MW) /      0.000 (MB)
	Size of irrep 3 of <iA|bC> integrals:      0.000 (MW) /      0.003 (MB)
	Total:                                     0.001 (MW) /      0.009 (MB)

	Size of irrep 0 of tIjAb amplitudes:       0.000 (MW) /      0.003 (MB)
	Size of irrep 1 of tIjAb amplitudes:       0.000 (MW) /      0.000 (MB)
	Size of irrep 2 of tIjAb amplitudes:       0.000 (MW) /      0.000 (MB)
	Size of irrep 3 of tIjAb amplitudes:       0.000 (MW) /      0.001 (MB)
	Total:                                     0.001 (MW) /      0.005 (MB)

	Nuclear Rep. energy          =      8.63497447098928
	SCF energy                   =    -75.59907589158603
	One-electron energy          =   -117.11670832181623
	Two-electron (AA) energy     =      7.82857924045272
	Two-electron (BB) energy     =      4.56732455694774
	Two-electron (AB) energy     =     20.48675416184047
	Two-electron energy          =     32.88265795924093
	Reference energy             =    -75.59907589158604

*** tstop() called on psinet at Mon May 15 15:34:23 2017
Module time:
	user time   =       0.02 seconds =       0.00 minutes
	system time =       0.03 seconds =       0.00 minutes
	total time  =          0 seconds =       0.00 minutes
Total time:
	user time   =       0.75 seconds =       0.01 minutes
	system time =       0.61 seconds =       0.01 minutes
	total time  =          2 seconds =       0.03 minutes

*** tstart() called on psinet
*** at Mon May 15 15:34:23 2017

            **************************
            *                        *
            *        CCENERGY        *
            *                        *
            **************************

    Nuclear Rep. energy (wfn)     =    8.634974470989285
    SCF energy          (wfn)     =  -75.599075891586025
    Reference energy    (file100) =  -75.599075891586040

    Input parameters:
    -----------------
    Wave function   =     CCSD
    Reference wfn   =     UHF
    Brueckner       =     No
    Memory (Mbytes) =     524.3
    Maxiter         =     50
    R_Convergence   =     1.0e-07
    E_Convergence   =     1.0e-08
    Restart         =     Yes
    DIIS            =     Yes
    AO Basis        =     NONE
    ABCD            =     NEW
    Cache Level     =     2
    Cache Type      =     LRU
    Print Level     =     1
    Num. of threads =     1
    # Amps to Print =     10
    Print MP2 Amps? =     No
    Analyze T2 Amps =     No
    Print Pair Ener =     No
    Local CC        =     No
    SCS-MP2         =     False
    SCSN-MP2        =     False
    SCS-CCSD        =     False

    Using old T1 amplitudes.
    Using old T2 amplitudes.
MP2 correlation energy -0.1017317905605309
                Solving CC Amplitude Equations
                ------------------------------
  Iter             Energy              RMS        T1Diag      D1Diag    New D1Diag    D2Diag
  ----     ---------------------    ---------   ----------  ----------  ----------   --------
     0        -0.114817531359524    0.000e+00    0.012849    0.000000    0.000000    0.000000
     1        -0.114885582824373    4.663e-04    0.012864    0.000000    0.000000    0.000000
     2        -0.114893189376426    1.285e-04    0.012885    0.000000    0.000000    0.000000
     3        -0.114899965701704    4.935e-05    0.012893    0.000000    0.000000    0.000000
     4        -0.114901132712520    1.806e-05    0.012897    0.000000    0.000000    0.000000
     5        -0.114901719653211    8.751e-06    0.012898    0.000000    0.000000    0.000000
     6        -0.114901836912920    3.077e-06    0.012898    0.000000    0.000000    0.000000
     7        -0.114901839211308    6.940e-07    0.012898    0.000000    0.000000    0.000000
     8        -0.114901843511875    1.736e-07    0.012898    0.000000    0.000000    0.000000
     9        -0.114901845211122    3.434e-08    0.012898    0.000000    0.000000    0.000000

    Iterations converged.


    Largest TIA Amplitudes:
              4   6         0.0218401137
              2   0         0.0175029768
              3   5        -0.0142265117
              2   1         0.0090458428
              1   0         0.0081314242
              4   8         0.0052737236
              2   3         0.0045079602
              1   2         0.0043766645
              4   7         0.0043298345
              2   2         0.0038216087

    Largest Tia Amplitudes:
              2   0         0.0091836257
              3   7         0.0072273252
              3   8         0.0065039846
              1   1         0.0045166833
              2   3         0.0041788937
              2   1        -0.0041703730
              1   3         0.0030401204
              3   9        -0.0025835058
              2   2         0.0011680576
              1   0         0.0006049356

    Largest TIJAB Amplitudes:
      3   2   5   1         0.0231746238
      4   3   6   5         0.0195356011
      4   2   6   1        -0.0177264917
      4   3   8   5         0.0139381429
      4   3   7   5        -0.0132831816
      4   2   8   1        -0.0127917530
      3   2   5   0         0.0123415624
      4   2   7   1         0.0116845326
      3   1   5   0         0.0108149620
      3   1   5   3        -0.0100062570

    Largest Tijab Amplitudes:
      3   2   7   1         0.0181677700
      3   2   9   1         0.0136418320
      3   2   8   1        -0.0105590639
      2   1   1   0         0.0091757655
      3   2   7   0        -0.0088543334
      2   1   3   1         0.0086831483
      3   1   8   0         0.0074421200
      3   1   7   0        -0.0073170275
      3   1   7   3         0.0064606649
      3   2   9   0        -0.0059771808

    Largest TIjAb Amplitudes:
      4   3   6   7        -0.0527159716
      2   2   1   1         0.0435904508
      4   3   6   9        -0.0357502707
      4   3   8   7        -0.0343061241
      3   2   5   1        -0.0314870104
      3   3   6   5         0.0299010573
      4   3   8   9        -0.0298898659
      3   1   0   5         0.0274945201
      4   2   6   1         0.0271318510
      2   3   1   7        -0.0269104853

    SCF energy       (wfn)                    =  -75.599075891586025
    Reference energy (file100)                =  -75.599075891586040

    Opposite-spin MP2 correlation energy      =   -0.082903990979666
    Same-spin MP2 correlation energy          =   -0.018827799580865
    MP2 correlation energy                    =   -0.101731790560531
      * MP2 total energy                      =  -75.700807682146575

    Opposite-spin CCSD correlation energy     =   -0.098681951154167
    Same-spin CCSD correlation energy         =   -0.016219894053978
    CCSD correlation energy                   =   -0.114901845211122
      * CCSD total energy                     =  -75.713977736797162


*** tstop() called on psinet at Mon May 15 15:34:23 2017
Module time:
	user time   =       0.10 seconds =       0.00 minutes
	system time =       0.13 seconds =       0.00 minutes
	total time  =          0 seconds =       0.00 minutes
Total time:
	user time   =       0.85 seconds =       0.01 minutes
	system time =       0.74 seconds =       0.01 minutes
	total time  =          2 seconds =       0.03 minutes

*** tstart() called on psinet
*** at Mon May 15 15:34:23 2017


			**************************
			*                        *
			*         CCHBAR         *
			*                        *
			**************************


*** tstop() called on psinet at Mon May 15 15:34:23 2017
Module time:
	user time   =       0.01 seconds =       0.00 minutes
	system time =       0.01 seconds =       0.00 minutes
	total time  =          0 seconds =       0.00 minutes
Total time:
	user time   =       0.86 seconds =       0.01 minutes
	system time =       0.75 seconds =       0.01 minutes
	total time  =          2 seconds =       0.03 minutes

*** tstart() called on psinet
*** at Mon May 15 15:34:23 2017


	**********************************************************
	*  CCEOM: An Equation of Motion Coupled Cluster Program  *
	**********************************************************

	Nuclear Rep. energy (wfn)     =    8.634974470989285
	SCF energy          (wfn)     =  -75.599075891586025
	Reference energy    (file100) =  -75.599075891586040
	CCSD energy         (file100) =   -0.114901845211122

	Input parameters:
	-----------------
	Reference wfn   =     UHF
	Reference EOM wfn=     UHF
	Memory (Mbytes) =  524.3
	ABCD            =     NEW
	Cache Level     =    2
	Cache Type      =     LRU
	Num. of threads =     1
	Local CC        =     No


	CCEOM parameters:
	-----------------
	States sought per irrep     = A1 0, A2 0, B1 0, B2 1,
	Max. number of iterations   =    80
	Vectors stored per root     =    12
	Print HbarSS iterations?    =     0
	Excitation range for HBarSS =     2
	Eigenvalue tolerance        = 1.0e-08
	Eigenvalue toleranceSS      = 1.0e-06
	Residual vector tolerance   = 1.0e-06
	Residual vector toleranceSS = 1.0e-06
	Complex tolerance           = 1.0e-12
	Root for properties         =     1
	Sym of state for properties =     A2
	Guess vectors taken from    = SINGLES
	Restart EOM CC3             = NO
	Collapse with last vector   = YES


Symmetry of ground state: B1
Symmetry of excited state: B2
Symmetry of right eigenvector: A2
Obtaining initial guess from singles-singles block of Hbar...Done.

Iter=1    L=1     Root    EOM Energy     Delta E   Res. Norm    Conv?
                     1   0.2639469016   2.64e-01    2.99e-01      N
Iter=2    L=2     Root    EOM Energy     Delta E   Res. Norm    Conv?
                     1   0.2225203261  -4.14e-02    7.09e-02      N
Iter=3    L=3     Root    EOM Energy     Delta E   Res. Norm    Conv?
                     1   0.2199463652  -2.57e-03    2.73e-02      N
Iter=4    L=4     Root    EOM Energy     Delta E   Res. Norm    Conv?
                     1   0.2196191322  -3.27e-04    8.40e-03      N
Iter=5    L=5     Root    EOM Energy     Delta E   Res. Norm    Conv?
                     1   0.2195569623  -6.22e-05    4.42e-03      N
Iter=6    L=6     Root    EOM Energy     Delta E   Res. Norm    Conv?
                     1   0.2195550662  -1.90e-06    1.23e-03      N
Iter=7    L=7     Root    EOM Energy     Delta E   Res. Norm    Conv?
                     1   0.2195565040   1.44e-06    3.95e-04      N
Iter=8    L=8     Root    EOM Energy     Delta E   Res. Norm    Conv?
                     1   0.2195561866  -3.17e-07    1.39e-04      N
Iter=9    L=9     Root    EOM Energy     Delta E   Res. Norm    Conv?
                     1   0.2195561512  -3.54e-08    4.29e-05      N
Iter=10   L=10    Root    EOM Energy     Delta E   Res. Norm    Conv?
                     1   0.2195562172   6.60e-08    1.76e-05      N
Iter=11   L=11    Root    EOM Energy     Delta E   Res. Norm    Conv?
                     1   0.2195562269   9.68e-09    6.41e-06      N
Iter=12   L=12    Root    EOM Energy     Delta E   Res. Norm    Conv?
                     1   0.2195562265  -3.90e-10    2.36e-06      N
Iter=13   L=2     Root    EOM Energy     Delta E   Res. Norm    Conv?
                     1   0.2195562265  -2.36e-15    2.36e-06      N
Iter=14   L=3     Root    EOM Energy     Delta E   Res. Norm    Conv?
                     1   0.2195562273   7.75e-10    8.11e-07      Y
Collapsing to only 1 vector(s).

Procedure converged for 1 root(s).
Energy written to CC_INFO:Etot  -75.4944215095
States per irrep written to CC_INFO.
<R|R> =   1.0000000000000000
EOM CCSD R0 for root 0 =   0.00000000000

Final Energetic Summary for Converged Roots of Irrep B2
                     Excitation Energy              Total Energy
                (eV)     (cm^-1)     (au)             (au)
EOM State 1      5.974    48187.0   0.2195562273   -75.494421509509

Largest components of excited wave function #1:
 RIA (libdpd indices) : (cscf notation)
         0 >   0      :       1b1 >    2b2 :    0.0358155841
         0 >   2      :       1b1 >    4b2 :    0.0143550982
         0 >   0      :       1b2 >    2b1 :   -0.0108802996
         0 >   1      :       1b1 >    3b2 :   -0.0004684112
 Ria (libdpd indices) : (cscf notation)
         0 >   0      :       1b2 >    1b1 :    0.9715193681
         0 >   1      :       1b2 >    2b1 :    0.1753138405
 RIjAb (libdpd indices)     : (cscf notation)
        0   0 >   0   1     :    1b1    1b2 >    2b1    2b1 :   -0.0572608384
        2   0 >   0   0     :    3a1    1b2 >    4a1    1b1 :    0.0410245675
        2   1 >   0   0     :    3a1    2a1 >    2b2    1b1 :    0.0379007385
        0   0 >   0   1     :    1b2    1b2 >    2b2    2b1 :    0.0366777720
        2   0 >   1   1     :    3a1    1b2 >    5a1    2b1 :    0.0363107423
 RIJAB (libdpd indices)     : (cscf notation)
        0   2 >   0   0     :    1b1    3a1 >    2b2    4a1 :   -0.0010485111
        0   0 >   1   0     :    1b2    1b1 >    3b2    2b2 :    0.0010016847
        0   0 >   2   0     :    1b2    1b1 >    4b2    2b2 :   -0.0008095810
        2   1 >   0   0     :    3a1    2a1 >    2b2    2b1 :   -0.0006809438
        0   2 >   0   2     :    1b1    3a1 >    2b2    6a1 :   -0.0006412618
 Rijab (libdpd indices)     : (cscf notation)
        0   2 >   1   1     :    1b2    3a1 >    2b1    5a1 :   -0.0253313319
        2   1 >   0   0     :    3a1    2a1 >    2b2    1b1 :    0.0213192482
        0   1 >   0   2     :    1b2    2a1 >    1b1    6a1 :   -0.0196187271
        0   1 >   0   0     :    1b2    2a1 >    1b1    4a1 :   -0.0174417985
        0   2 >   1   0     :    1b2    3a1 >    2b1    4a1 :    0.0170355375

	Putting into environment energy for root of R irrep 2 and root 1.
	Putting into environment CURRENT ENERGY:              -75.4944215095

	Total # of sigma evaluations: 13

*** tstop() called on psinet at Mon May 15 15:34:23 2017
Module time:
	user time   =       0.06 seconds =       0.00 minutes
	system time =       0.07 seconds =       0.00 minutes
	total time  =          0 seconds =       0.00 minutes
Total time:
	user time   =       0.92 seconds =       0.02 minutes
	system time =       0.83 seconds =       0.01 minutes
	total time  =          2 seconds =       0.03 minutes

  //>>>>>>>>>>>>>>>>>>>>>>>>>>>>>>>>>>>//
  //    Loading displacement 2 of 5    //
  //<<<<<<<<<<<<<<<<<<<<<<<<<<<<<<<<<<<//

*** tstart() called on psinet
*** at Mon May 15 15:34:23 2017

   => Loading Basis Set <=

    Name: DZ
    Role: ORBITAL
    Keyword: BASIS
[...]
	Sorting AA/AB half-transformed integrals.
	Starting BB first half-transformation.
	Sorting BB half-transformed integrals.
	First half integral transformation complete.
	Starting AA second half-transformation.
	Starting AB second half-transformation.
	Starting BB second half-transformation.
	Two-electron integral transformation complete.
	(OO|OV)...
	Starting AA second half-transformation.
	Starting AB second half-transformation.
	Starting BB second half-transformation.
	Two-electron integral transformation complete.
	(OO|VV)...
	Starting AA second half-transformation.
	Starting AB second half-transformation.
	Starting BB second half-transformation.
	Two-electron integral transformation complete.
	(OV|OO)...
	Starting AA/AB first half-transformation.
	Sorting AA/AB half-transformed integrals.
	Starting BB first half-transformation.
	Sorting BB half-transformed integrals.
	First half integral transformation complete.
	Starting AA second half-transformation.
	Starting AB second half-transformation.
	Starting BB second half-transformation.
	Two-electron integral transformation complete.
	(OV|OV)...
	Starting AA second half-transformation.
	Starting AB second half-transformation.
	Starting BB second half-transformation.
	Two-electron integral transformation complete.
	(OV|VV)...
	Starting AA second half-transformation.
	Starting AB second half-transformation.
	Starting BB second half-transformation.
	Two-electron integral transformation complete.
	(VV|OO)...
	Starting AA/AB first half-transformation.
	Sorting AA/AB half-transformed integrals.
	Starting BB first half-transformation.
	Sorting BB half-transformed integrals.
	First half integral transformation complete.
	Starting AA second half-transformation.
	Starting AB second half-transformation.
	Starting BB second half-transformation.
	Two-electron integral transformation complete.
	(VV|OV)...
	Starting AA second half-transformation.
	Starting AB second half-transformation.
	Starting BB second half-transformation.
	Two-electron integral transformation complete.
	(VV|VV)...
	Starting AA second half-transformation.
	Starting AB second half-transformation.
	Starting BB second half-transformation.
	Two-electron integral transformation complete.
	Frozen core energy     =      0.00000000000000

	Size of irrep 0 of <AB|CD> integrals:      0.000 (MW) /      0.001 (MB)
	Size of irrep 1 of <AB|CD> integrals:      0.000 (MW) /      0.000 (MB)
	Size of irrep 2 of <AB|CD> integrals:      0.000 (MW) /      0.000 (MB)
	Size of irrep 3 of <AB|CD> integrals:      0.000 (MW) /      0.002 (MB)
	Total:                                     0.000 (MW) /      0.003 (MB)

	Size of irrep 0 of <ab|cd> integrals:      0.000 (MW) /      0.002 (MB)
	Size of irrep 1 of <ab|cd> integrals:      0.000 (MW) /      0.000 (MB)
	Size of irrep 2 of <ab|cd> integrals:      0.000 (MW) /      0.001 (MB)
	Size of irrep 3 of <ab|cd> integrals:      0.000 (MW) /      0.002 (MB)
	Total:                                     0.001 (MW) /      0.004 (MB)

	Size of irrep 0 of <Ab|Cd> integrals:      0.001 (MW) /      0.010 (MB)
	Size of irrep 1 of <Ab|Cd> integrals:      0.000 (MW) /      0.001 (MB)
	Size of irrep 2 of <Ab|Cd> integrals:      0.000 (MW) /      0.002 (MB)
	Size of irrep 3 of <Ab|Cd> integrals:      0.001 (MW) /      0.007 (MB)
	Total:                                     0.003 (MW) /      0.020 (MB)

	Size of irrep 0 of <IA|BC> integrals:      0.001 (MW) /      0.005 (MB)
	Size of irrep 1 of <IA|BC> integrals:      0.000 (MW) /      0.000 (MB)
	Size of irrep 2 of <IA|BC> integrals:      0.000 (MW) /      0.001 (MB)
	Size of irrep 3 of <IA|BC> integrals:      0.000 (MW) /      0.003 (MB)
	Total:                                     0.001 (MW) /      0.010 (MB)

	Size of irrep 0 of <ia|bc> integrals:      0.001 (MW) /      0.005 (MB)
	Size of irrep 1 of <ia|bc> integrals:      0.000 (MW) /      0.000 (MB)
	Size of irrep 2 of <ia|bc> integrals:      0.000 (MW) /      0.001 (MB)
	Size of irrep 3 of <ia|bc> integrals:      0.000 (MW) /      0.003 (MB)
	Total:                                     0.001 (MW) /      0.010 (MB)

	Size of irrep 0 of <Ia|Bc> integrals:      0.001 (MW) /      0.006 (MB)
	Size of irrep 1 of <Ia|Bc> integrals:      0.000 (MW) /      0.000 (MB)
	Size of irrep 2 of <Ia|Bc> integrals:      0.000 (MW) /      0.001 (MB)
	Size of irrep 3 of <Ia|Bc> integrals:      0.000 (MW) /      0.003 (MB)
	Total:                                     0.001 (MW) /      0.011 (MB)

	Size of irrep 0 of <iA|bC> integrals:      0.001 (MW) /      0.005 (MB)
	Size of irrep 1 of <iA|bC> integrals:      0.000 (MW) /      0.000 (MB)
	Size of irrep 2 of <iA|bC> integrals:      0.000 (MW) /      0.000 (MB)
	Size of irrep 3 of <iA|bC> integrals:      0.000 (MW) /      0.003 (MB)
	Total:                                     0.001 (MW) /      0.009 (MB)

	Size of irrep 0 of tIjAb amplitudes:       0.000 (MW) /      0.003 (MB)
	Size of irrep 1 of tIjAb amplitudes:       0.000 (MW) /      0.000 (MB)
	Size of irrep 2 of tIjAb amplitudes:       0.000 (MW) /      0.000 (MB)
	Size of irrep 3 of tIjAb amplitudes:       0.000 (MW) /      0.001 (MB)
	Total:                                     0.001 (MW) /      0.005 (MB)

	Nuclear Rep. energy          =      8.64716688815186
	SCF energy                   =    -75.59901132895270
	One-electron energy          =   -117.13522780309860
	Two-electron (AA) energy     =      7.82966392097104
	Two-electron (BB) energy     =      4.56875562664247
	Two-electron (AB) energy     =     20.49063003838048
	Two-electron energy          =     32.88904958599399
	Reference energy             =    -75.59901132895276

*** tstop() called on psinet at Mon May 15 15:34:33 2017
Module time:
	user time   =       0.02 seconds =       0.00 minutes
	system time =       0.03 seconds =       0.00 minutes
	total time  =          0 seconds =       0.00 minutes
Total time:
	user time   =       5.30 seconds =       0.09 minutes
	system time =       4.66 seconds =       0.08 minutes
	total time  =         12 seconds =       0.20 minutes

*** tstart() called on psinet
*** at Mon May 15 15:34:33 2017

            **************************
            *                        *
            *        CCENERGY        *
            *                        *
            **************************

    Nuclear Rep. energy (wfn)     =    8.647166888151858
    SCF energy          (wfn)     =  -75.599011328952699
    Reference energy    (file100) =  -75.599011328952756

    Input parameters:
    -----------------
    Wave function   =     CCSD
    Reference wfn   =     UHF
    Brueckner       =     No
    Memory (Mbytes) =     524.3
    Maxiter         =     50
    R_Convergence   =     1.0e-07
    E_Convergence   =     1.0e-08
    Restart         =     Yes
    DIIS            =     Yes
    AO Basis        =     NONE
    ABCD            =     NEW
    Cache Level     =     2
    Cache Type      =     LRU
    Print Level     =     1
    Num. of threads =     1
    # Amps to Print =     10
    Print MP2 Amps? =     No
    Analyze T2 Amps =     No
    Print Pair Ener =     No
    Local CC        =     No
    SCS-MP2         =     False
    SCSN-MP2        =     False
    SCS-CCSD        =     False

    Using old T1 amplitudes.
    Using old T2 amplitudes.
MP2 correlation energy -0.1016366397059524
                Solving CC Amplitude Equations
                ------------------------------
  Iter             Energy              RMS        T1Diag      D1Diag    New D1Diag    D2Diag
  ----     ---------------------    ---------   ----------  ----------  ----------   --------
     0        -0.114987231052539    0.000e+00    0.012966    0.000000    0.000000    0.000000
     1        -0.114832587401812    1.076e-03    0.012959    0.000000    0.000000    0.000000
     2        -0.114818819425036    3.497e-04    0.012895    0.000000    0.000000    0.000000
     3        -0.114801098951585    1.399e-04    0.012861    0.000000    0.000000    0.000000
     4        -0.114798233144616    4.410e-05    0.012851    0.000000    0.000000    0.000000
     5        -0.114797324727877    1.791e-05    0.012849    0.000000    0.000000    0.000000
     6        -0.114797047773931    7.310e-06    0.012849    0.000000    0.000000    0.000000
     7        -0.114796952344569    2.035e-06    0.012849    0.000000    0.000000    0.000000
     8        -0.114796925756290    4.289e-07    0.012849    0.000000    0.000000    0.000000
     9        -0.114796916862916    9.203e-08    0.012849    0.000000    0.000000    0.000000
    10        -0.114796916586741    2.700e-08    0.012849    0.000000    0.000000    0.000000

    Iterations converged.


    Largest TIA Amplitudes:
              4   6         0.0217510691
              2   0         0.0173692380
              3   5        -0.0142222974
              2   1         0.0090337358
              1   0         0.0080949245
              4   8         0.0052499496
              2   3         0.0044971540
              1   2         0.0043598918
              4   7         0.0043144516
              2   2         0.0037931149

    Largest Tia Amplitudes:
              2   0         0.0091505306
              3   7         0.0072452700
              3   8         0.0064625977
              1   1         0.0045057355
              2   1        -0.0041929194
              2   3         0.0041592544
              1   3         0.0030264178
              3   9        -0.0025669803
              2   2         0.0011599715
              1   0         0.0006076191

    Largest TIJAB Amplitudes:
      3   2   5   1         0.0231635477
      4   3   6   5         0.0195133282
      4   2   6   1        -0.0177019074
      4   3   8   5         0.0139652592
      4   3   7   5        -0.0132528680
      4   2   8   1        -0.0128142922
      3   2   5   0         0.0123150087
      4   2   7   1         0.0116507691
      3   1   5   0         0.0108156352
      3   1   5   3        -0.0099905916

    Largest Tijab Amplitudes:
      3   2   7   1         0.0181412413
      3   2   9   1         0.0136532702
      3   2   8   1        -0.0105366357
      2   1   1   0         0.0091726837
      3   2   7   0        -0.0088491730
      2   1   3   1         0.0086642997
      3   1   8   0         0.0074347089
      3   1   7   0        -0.0073067961
      3   1   7   3         0.0064433069
      3   2   9   0        -0.0059868540

    Largest TIjAb Amplitudes:
      4   3   6   7        -0.0525749784
      2   2   1   1         0.0435553848
      4   3   6   9        -0.0357322490
      4   3   8   7        -0.0343036792
      3   2   5   1        -0.0314723541
      4   3   8   9        -0.0299403592
      3   3   6   5         0.0298200587
      3   1   0   5         0.0274315873
      4   2   6   1         0.0270739994
      2   3   1   7        -0.0268542914

    SCF energy       (wfn)                    =  -75.599011328952699
    Reference energy (file100)                =  -75.599011328952756

    Opposite-spin MP2 correlation energy      =   -0.082834809227259
    Same-spin MP2 correlation energy          =   -0.018801830478694
    MP2 correlation energy                    =   -0.101636639705952
      * MP2 total energy                      =  -75.700647968658714

    Opposite-spin CCSD correlation energy     =   -0.098592505576182
    Same-spin CCSD correlation energy         =   -0.016204411007661
    CCSD correlation energy                   =   -0.114796916586741
      * CCSD total energy                     =  -75.713808245539497


*** tstop() called on psinet at Mon May 15 15:34:33 2017
Module time:
	user time   =       0.09 seconds =       0.00 minutes
	system time =       0.16 seconds =       0.00 minutes
	total time  =          0 seconds =       0.00 minutes
Total time:
	user time   =       5.39 seconds =       0.09 minutes
	system time =       4.82 seconds =       0.08 minutes
	total time  =         12 seconds =       0.20 minutes

*** tstart() called on psinet
*** at Mon May 15 15:34:33 2017


			**************************
			*                        *
			*         CCHBAR         *
			*                        *
			**************************


*** tstop() called on psinet at Mon May 15 15:34:33 2017
Module time:
	user time   =       0.01 seconds =       0.00 minutes
	system time =       0.02 seconds =       0.00 minutes
	total time  =          0 seconds =       0.00 minutes
Total time:
	user time   =       5.40 seconds =       0.09 minutes
	system time =       4.84 seconds =       0.08 minutes
	total time  =         12 seconds =       0.20 minutes

*** tstart() called on psinet
*** at Mon May 15 15:34:33 2017


	**********************************************************
	*  CCEOM: An Equation of Motion Coupled Cluster Program  *
	**********************************************************

	Nuclear Rep. energy (wfn)     =    8.647166888151858
	SCF energy          (wfn)     =  -75.599011328952699
	Reference energy    (file100) =  -75.599011328952756
	CCSD energy         (file100) =   -0.114796916586741

	Input parameters:
	-----------------
	Reference wfn   =     UHF
	Reference EOM wfn=     UHF
	Memory (Mbytes) =  524.3
	ABCD            =     NEW
	Cache Level     =    2
	Cache Type      =     LRU
	Num. of threads =     1
	Local CC        =     No


	CCEOM parameters:
	-----------------
	States sought per irrep     = A1 0, A2 0, B1 0, B2 1,
	Max. number of iterations   =    80
	Vectors stored per root     =    12
	Print HbarSS iterations?    =     0
	Excitation range for HBarSS =     2
	Eigenvalue tolerance        = 1.0e-08
	Eigenvalue toleranceSS      = 1.0e-06
	Residual vector tolerance   = 1.0e-06
	Residual vector toleranceSS = 1.0e-06
	Complex tolerance           = 1.0e-12
	Root for properties         =     1
	Sym of state for properties =     A2
	Guess vectors taken from    = SINGLES
	Restart EOM CC3             = NO
	Collapse with last vector   = YES


Symmetry of ground state: B1
Symmetry of excited state: B2
Symmetry of right eigenvector: A2
Obtaining initial guess from singles-singles block of Hbar...Done.

Iter=1    L=1     Root    EOM Energy     Delta E   Res. Norm    Conv?
                     1   0.2640202425   2.64e-01    2.99e-01      N
Iter=2    L=2     Root    EOM Energy     Delta E   Res. Norm    Conv?
                     1   0.2226280026  -4.14e-02    7.09e-02      N
Iter=3    L=3     Root    EOM Energy     Delta E   Res. Norm    Conv?
                     1   0.2200645468  -2.56e-03    2.72e-02      N
Iter=4    L=4     Root    EOM Energy     Delta E   Res. Norm    Conv?
                     1   0.2197395039  -3.25e-04    8.36e-03      N
Iter=5    L=5     Root    EOM Energy     Delta E   Res. Norm    Conv?
                     1   0.2196779796  -6.15e-05    4.40e-03      N
Iter=6    L=6     Root    EOM Energy     Delta E   Res. Norm    Conv?
                     1   0.2196761068  -1.87e-06    1.23e-03      N
Iter=7    L=7     Root    EOM Energy     Delta E   Res. Norm    Conv?
                     1   0.2196775311   1.42e-06    3.93e-04      N
Iter=8    L=8     Root    EOM Energy     Delta E   Res. Norm    Conv?
                     1   0.2196772187  -3.12e-07    1.38e-04      N
Iter=9    L=9     Root    EOM Energy     Delta E   Res. Norm    Conv?
                     1   0.2196771826  -3.62e-08    4.23e-05      N
Iter=10   L=10    Root    EOM Energy     Delta E   Res. Norm    Conv?
                     1   0.2196772470   6.45e-08    1.74e-05      N
Iter=11   L=11    Root    EOM Energy     Delta E   Res. Norm    Conv?
                     1   0.2196772567   9.62e-09    6.32e-06      N
Iter=12   L=12    Root    EOM Energy     Delta E   Res. Norm    Conv?
                     1   0.2196772563  -3.50e-10    2.32e-06      N
Iter=13   L=2     Root    EOM Energy     Delta E   Res. Norm    Conv?
                     1   0.2196772563   1.39e-15    2.32e-06      N
Iter=14   L=3     Root    EOM Energy     Delta E   Res. Norm    Conv?
                     1   0.2196772571   7.68e-10    7.97e-07      Y
Collapsing to only 1 vector(s).

Procedure converged for 1 root(s).
Energy written to CC_INFO:Etot  -75.4941309885
States per irrep written to CC_INFO.
<R|R> =   1.0000000000000002
EOM CCSD R0 for root 0 =   0.00000000000

Final Energetic Summary for Converged Roots of Irrep B2
                     Excitation Energy              Total Energy
                (eV)     (cm^-1)     (au)             (au)
EOM State 1      5.978    48213.6   0.2196772571   -75.494130988463

Largest components of excited wave function #1:
 RIA (libdpd indices) : (cscf notation)
         0 >   0      :       1b1 >    2b2 :    0.0356947680
         0 >   2      :       1b1 >    4b2 :    0.0143476982
         0 >   0      :       1b2 >    2b1 :   -0.0108934362
         0 >   1      :       1b1 >    3b2 :   -0.0004337222
 Ria (libdpd indices) : (cscf notation)
         0 >   0      :       1b2 >    1b1 :    0.9715569671
         0 >   1      :       1b2 >    2b1 :    0.1753113337
 RIjAb (libdpd indices)     : (cscf notation)
        0   0 >   0   1     :    1b1    1b2 >    2b1    2b1 :   -0.0572383994
        2   0 >   0   0     :    3a1    1b2 >    4a1    1b1 :    0.0408059735
        2   1 >   0   0     :    3a1    2a1 >    2b2    1b1 :    0.0378727883
        0   0 >   0   1     :    1b2    1b2 >    2b2    2b1 :    0.0366065032
        2   0 >   1   1     :    3a1    1b2 >    5a1    2b1 :    0.0362771236
 RIJAB (libdpd indices)     : (cscf notation)
        0   2 >   0   0     :    1b1    3a1 >    2b2    4a1 :   -0.0010484476
        0   0 >   1   0     :    1b2    1b1 >    3b2    2b2 :    0.0009968732
        0   0 >   2   0     :    1b2    1b1 >    4b2    2b2 :   -0.0008081162
        2   1 >   0   0     :    3a1    2a1 >    2b2    2b1 :   -0.0006808236
        0   2 >   0   2     :    1b1    3a1 >    2b2    6a1 :   -0.0006456508
 Rijab (libdpd indices)     : (cscf notation)
        0   2 >   1   1     :    1b2    3a1 >    2b1    5a1 :   -0.0253120676
        2   1 >   0   0     :    3a1    2a1 >    2b2    1b1 :    0.0212904325
        0   1 >   0   2     :    1b2    2a1 >    1b1    6a1 :   -0.0196073492
        0   1 >   0   0     :    1b2    2a1 >    1b1    4a1 :   -0.0173594441
        0   2 >   1   0     :    1b2    3a1 >    2b1    4a1 :    0.0169955165

	Putting into environment energy for root of R irrep 2 and root 1.
	Putting into environment CURRENT ENERGY:              -75.4941309885

	Total # of sigma evaluations: 13

*** tstop() called on psinet at Mon May 15 15:34:33 2017
Module time:
	user time   =       0.08 seconds =       0.00 minutes
	system time =       0.08 seconds =       0.00 minutes
	total time  =          0 seconds =       0.00 minutes
Total time:
	user time   =       5.48 seconds =       0.09 minutes
	system time =       4.92 seconds =       0.08 minutes
	total time  =         12 seconds =       0.20 minutes

-------------------------------------------------------------

  Computing gradient from energies (fd_1_0).
	Using 5-point formula.
	Energy without displacement:  -75.4941309885
	Check energies below for precision!
	Forces are for mass-weighted, symmetry-adapted cartesians (in au).

	 Coord      Energy(-2)        Energy(-1)        Energy(+1)        Energy(+2)            Force
	    0    -75.4947061487    -75.4944215092    -75.4938345510    -75.4935321621      0.0586946510
	    1    -75.4929060971    -75.4935218818    -75.4947334405    -75.4953292629     -0.1211550541

	Gradient written.

-------------------------------------------------------------
  Irrep: 1 Size: 3 x 3

                 1                   2                   3

    1     0.00000000000000     0.04166545200503    -0.08104876601864
    2     0.00000000000000     0.00000000000000     0.16209753203727
    3     0.00000000000000    -0.04166545200503    -0.08104876601864



	UHF-EOM-CCSD finite-diff. (5-pt.) vs. analytic gradient to 10^-7..PASSED

*** Psi4 exiting successfully. Buy a developer a beer!
