    -----------------------------------------------------------------------
          Psi4: An Open-Source Ab Initio Electronic Structure Package
                              Psi4 0.3.49 Driver

                          Git: Rev {master} 88ff8cf dirty

    J. M. Turney, A. C. Simmonett, R. M. Parrish, E. G. Hohenstein,
    F. A. Evangelista, J. T. Fermann, B. J. Mintz, L. A. Burns, J. J. Wilke,
    M. L. Abrams, N. J. Russ, M. L. Leininger, C. L. Janssen, E. T. Seidl,
    W. D. Allen, H. F. Schaefer, R. A. King, E. F. Valeev, C. D. Sherrill,
    and T. D. Crawford, WIREs Comput. Mol. Sci. 2, 556-565 (2012)
    (doi: 10.1002/wcms.93)

                         Additional Contributions by
    A. E. DePrince, M. Saitow, U. Bozkaya, A. Yu. Sokolov
    -----------------------------------------------------------------------


    Psi4 started on: Thu Oct  8 14:05:08 2015

    Process ID:  10388
    PSI4DATADIR: /Users/ugur/psi4/lib
    Memory level set to 256.000 MB

  ==> Input File <==

--------------------------------------------------------------------------
#! DF-OMP2.5 cc-pVDZ gradients for the H2O molecule.

ref_vals = [                                                             #TEST
             [ 0.000000000000,     0.00000000000000,     0.01227994599573],  #TEST
             [ 0.000000000000,     0.00200475312336,    -0.00613997299786],  #TEST
             [ 0.000000000000,    -0.00200475312336,    -0.00613997299786]   #TEST
           ]                                                             #TEST
ref = psi4.Matrix(3, 3)                                                #TEST
ref.set(ref_vals)

memory 256 mb

molecule h2o {
0 1
o
h 1 0.958
h 1 0.958 2 104.4776 
}

set {
  basis cc-pvdz
  df_basis_scf cc-pvdz-jkfit
  df_basis_cc cc-pvdz-ri
  scf_type df
  guess sad
  freeze_core true
}
gradient('df-omp2.5')

grad = psi4.wavefunction().gradient()                           #TEST
compare_matrices(ref, grad, 5, "Analytic gradients")              #TEST


--------------------------------------------------------------------------

  Memory set to 256.000 MiB by Python script.
gradient() will perform analytic gradient computation.
  DFOCC does not make use of molecular symmetry, further calculations in C1 point group.

*** tstart() called on Ugurs-MacBook-Pro.local
*** at Thu Oct  8 14:05:08 2015


         ---------------------------------------------------------
                                   SCF
            by Justin Turney, Rob Parrish, and Andy Simmonett
                              RHF Reference
                        1 Threads,    256 MiB Core
         ---------------------------------------------------------

  ==> Geometry <==

    Molecular point group: c1
    Full point group: C2v

    Geometry (in Angstrom), charge = 0, multiplicity = 1:

       Center              X                  Y                   Z       
    ------------   -----------------  -----------------  -----------------
           O          0.000000000000     0.000000000000    -0.065655108074
           H          0.000000000000    -0.757365949175     0.520997104936
           H          0.000000000000     0.757365949175     0.520997104936

  Running in c1 symmetry.

  Rotational constants: A =     27.36310  B =     14.58041  C =      9.51197 [cm^-1]
  Rotational constants: A = 820325.16776  B = 437109.76453  C = 285161.58706 [MHz]
  Nuclear repulsion =    9.187386421477592

  Charge       = 0
  Multiplicity = 1
  Electrons    = 10
  Nalpha       = 5
  Nbeta        = 5

  ==> Algorithm <==

  SCF Algorithm Type is DF.
  DIIS enabled.
  MOM disabled.
  Fractional occupation disabled.
  Guess Type is SAD.
  Energy threshold   = 1.00e-10
  Density threshold  = 1.00e-10
  Integral threshold = 0.00e+00

  ==> Primary Basis <==

  Basis Set: CC-PVDZ
    Number of shells: 12
    Number of basis function: 24
    Number of Cartesian functions: 25
    Spherical Harmonics?: true
    Max angular momentum: 2

  ==> Pre-Iterations <==

   -------------------------------------------------------
    Irrep   Nso     Nmo     Nalpha   Nbeta   Ndocc  Nsocc
   -------------------------------------------------------
     A         24      24       0       0       0       0
   -------------------------------------------------------
    Total      24      24       5       5       5       0
   -------------------------------------------------------

 OEINTS: Overlap, kinetic, potential, dipole, and quadrupole integrals
         stored in file 35.

  ==> Integral Setup <==

  ==> DFJK: Density-Fitted J/K Matrices <==

    J tasked:                  Yes
    K tasked:                  Yes
    wK tasked:                  No
    OpenMP threads:              1
    Integrals threads:           1
    Memory (MB):               183
    Algorithm:                Core
    Integral Cache:           SAVE
    Schwarz Cutoff:          1E-12
    Fitting Condition:       1E-12

   => Auxiliary Basis Set <=

  Basis Set: CC-PVDZ-JKFIT
    Number of shells: 42
    Number of basis function: 116
    Number of Cartesian functions: 131
    Spherical Harmonics?: true
    Max angular momentum: 3

  Minimum eigenvalue in the overlap matrix is 3.4230868664E-02.
  Using Symmetric Orthogonalization.
  SCF Guess: Superposition of Atomic Densities via on-the-fly atomic UHF.

  ==> Iterations <==

                           Total Energy        Delta E     RMS |[F,P]|

   @DF-RHF iter   0:   -75.90593700229374   -7.59059e+01   6.95641e-02 
   @DF-RHF iter   1:   -76.00548055416290   -9.95436e-02   9.65358e-03 
   @DF-RHF iter   2:   -76.02227450915103   -1.67940e-02   4.53168e-03 DIIS
   @DF-RHF iter   3:   -76.02652223220913   -4.24772e-03   7.39561e-04 DIIS
   @DF-RHF iter   4:   -76.02671745783768   -1.95226e-04   1.70563e-04 DIIS
   @DF-RHF iter   5:   -76.02673853337902   -2.10755e-05   4.20910e-05 DIIS
   @DF-RHF iter   6:   -76.02674013024911   -1.59687e-06   7.36364e-06 DIIS
   @DF-RHF iter   7:   -76.02674017827262   -4.80235e-08   1.21624e-06 DIIS
   @DF-RHF iter   8:   -76.02674017970189   -1.42927e-09   2.77382e-07 DIIS
   @DF-RHF iter   9:   -76.02674017978163   -7.97371e-11   5.08837e-08 DIIS
   @DF-RHF iter  10:   -76.02674017978400   -2.37321e-12   9.62112e-09 DIIS
   @DF-RHF iter  11:   -76.02674017978406   -5.68434e-14   8.24879e-10 DIIS
   @DF-RHF iter  12:   -76.02674017978416   -9.94760e-14   1.66391e-10 DIIS
   @DF-RHF iter  13:   -76.02674017978411    4.26326e-14   2.46533e-11 DIIS

  ==> Post-Iterations <==

    Orbital Energies (a.u.)
    -----------------------

    Doubly Occupied:                                                      

       1A    -20.550585     2A     -1.336342     3A     -0.698830  
       4A     -0.566503     5A     -0.493099  

    Virtual:                                                              

       6A      0.185441     7A      0.256144     8A      0.788691  
       9A      0.853812    10A      1.163733    11A      1.200441  
      12A      1.253476    13A      1.444765    14A      1.476603  
      15A      1.674917    16A      1.867631    17A      1.934918  
      18A      2.451189    19A      2.488875    20A      3.285846  
      21A      3.338551    22A      3.510393    23A      3.865411  
      24A      4.147172  

    Final Occupation by Irrep:
              A 
    DOCC [     5 ]

  Energy converged.

  @DF-RHF Final Energy:   -76.02674017978411

   => Energetics <=

    Nuclear Repulsion Energy =              9.1873864214775924
    One-Electron Energy =                -123.1375342610699164
    Two-Electron Energy =                  37.9234076598082126
    DFT Exchange-Correlation Energy =       0.0000000000000000
    Empirical Dispersion Energy =           0.0000000000000000
    PCM Polarization Energy =               0.0000000000000000
    EFP Energy =                            0.0000000000000000
    Total Energy =                        -76.0267401797840989

    Alert: EFP and PCM quantities not currently incorporated into SCF psivars.

Properties will be evaluated at   0.000000,   0.000000,   0.000000 Bohr
  ==> Properties <==


Properties computed using the SCF density matrix

  Nuclear Dipole Moment: (a.u.)
     X:     0.0000      Y:     0.0000      Z:     0.9765

  Electronic Dipole Moment: (a.u.)
     X:    -0.0000      Y:     0.0000      Z:    -0.1669

  Dipole Moment: (a.u.)
     X:    -0.0000      Y:     0.0000      Z:     0.8097     Total:     0.8097

  Dipole Moment: (Debye)
     X:    -0.0000      Y:     0.0000      Z:     2.0580     Total:     2.0580


  Saving occupied orbitals to File 180.

*** tstop() called on Ugurs-MacBook-Pro.local at Thu Oct  8 14:05:09 2015
Module time:
	user time   =       0.59 seconds =       0.01 minutes
	system time =       0.11 seconds =       0.00 minutes
	total time  =          1 seconds =       0.02 minutes
Total time:
	user time   =       0.59 seconds =       0.01 minutes
	system time =       0.11 seconds =       0.00 minutes
	total time  =          1 seconds =       0.02 minutes

*** tstart() called on Ugurs-MacBook-Pro.local
*** at Thu Oct  8 14:05:09 2015



  Options:
  ----------------------------------------------------------------------------
  ACTIVE                      => [  ]             
  BENCH                       => 0                
  CC_DIIS_MAX_VECS            => 6                
  CC_DIIS_MIN_VECS            => 2                
  CC_LAMBDA                   => FALSE            
  CC_MAXITER                  => 50               
  CC_TYPE                     => CONVENTIONAL     
  CEPA_OS_SCALE               => 1.27             
  CEPA_SOS_SCALE              => 1.3              
  CEPA_SS_SCALE               => 1.13             
  CEPA_TYPE                   => CEPA(0)          
  CHOLESKY_TOLERANCE          => 0.0001           
  COMPUT_S2                   => FALSE            
  CUBEPROP_BASIS_FUNCTIONS    => [  ]             
  CUBEPROP_FILEPATH           => .                
  CUBEPROP_ORBITALS           => [  ]             
  CUBEPROP_TASKS              => [  ]             
  CUBIC_BASIS_TOLERANCE       => 1e-12            
  CUBIC_BLOCK_MAX_POINTS      => 1000             
  CUBIC_GRID_OVERAGE          => [  ]             
  CUBIC_GRID_SPACING          => [  ]             
  CUTOFF                      => 8                
  DEBUG                       => 0                
  DERTYPE                     => FIRST           !
  DF_BASIS_CC                 => CC-PVDZ-RI      !
  DIE_IF_NOT_CONVERGED        => TRUE             
  DKH_ORDER                   => 2                
  DOCC                        => [  ]             
  DO_DIIS                     => TRUE             
  DO_LEVEL_SHIFT              => TRUE             
  DO_SCS                      => FALSE            
  DO_SOS                      => FALSE            
  E3_SCALE                    => 0.25             
  EKT_IP                      => FALSE            
  EXTERNAL_POTENTIAL_SYMMETRY => FALSE            
  E_CONVERGENCE               => 1e-08           !
  FREEZE_CORE                 => TRUE            !
  FROZEN_DOCC                 => [  ]             
  FROZEN_UOCC                 => [  ]             
  HESS_TYPE                   => HF               
  INTEGRAL_CUTOFF             => 9                
  INTEGRAL_PACKAGE            => ERD              
  LEVEL_SHIFT                 => 0.02             
  LINEQ_SOLVER                => CDGESV           
  LITERAL_CFOUR               => (empty)          
  MAT_NUM_COLUMN_PRINT        => 5                
  MAX_MOGRAD_CONVERGENCE      => 0.001            
  MOLDEN_WRITE                => FALSE            
  MO_DIIS_NUM_VECS            => 6                
  MO_MAXITER                  => 50               
  MO_STEP_MAX                 => 0.5              
  MP2_AMP_TYPE                => DIRECT           
  MP2_OS_SCALE                => 1.2              
  MP2_SOS_SCALE               => 1.3              
  MP2_SOS_SCALE2              => 1.2              
  MP2_SS_SCALE                => 0.333333         
  NAT_ORBS                    => FALSE            
  NUM_FROZEN_DOCC             => 0                
  NUM_FROZEN_UOCC             => 0                
  OCC_ORBS_PRINT              => FALSE            
  OEPROP                      => FALSE            
  OO_SCALE                    => 0.01             
  OPT_METHOD                  => QNR              
  ORB_OPT                     => TRUE            !
  ORB_RESP_SOLVER             => PCG              
  ORTH_TYPE                   => MGS              
  PCG_BETA_TYPE               => FLETCHER_REEVES  
  PCG_CONVERGENCE             => 1e-06            
  PCG_MAXITER                 => 50               
  PCM                         => FALSE            
  PCM_SCF_TYPE                => TOTAL            
  PRINT                       => 1                
  PROPERTIES                  => [  ]             
  PROPERTIES_ORIGIN           => [  ]             
  PUREAM                      => TRUE             
  QCHF                        => FALSE            
  RAS1                        => [  ]             
  RAS2                        => [  ]             
  RAS3                        => [  ]             
  RAS4                        => [  ]             
  READ_SCF_3INDEX             => TRUE             
  REGULARIZATION              => FALSE            
  REG_PARAM                   => 0.4              
  RELATIVISTIC                => NO               
  REL_BASIS                   => (empty)          
  RESTRICTED_DOCC             => [  ]             
  RESTRICTED_UOCC             => [  ]             
  RMS_MOGRAD_CONVERGENCE      => 1e-06            
  R_CONVERGENCE               => 1e-05            
  SCS_TYPE                    => SCS              
  SOCC                        => [  ]             
  SOS_TYPE                    => SOS              
  TRIPLES_IABC_TYPE           => DISK             
  UNITS                       => ANGSTROMS        
  WABEF_TYPE                  => AUTO             
  WFN                         => SCF              
  WFN_TYPE                    => DF-OMP2.5       !
  WRITER_FILE_LABEL           => (empty)          


 ============================================================================== 
 ============================================================================== 
 ============================================================================== 

                    DF-OMP2.5 (DF-OO-MP2.5)   
              Program Written by Ugur Bozkaya
              Latest Revision October 8, 2015

 ============================================================================== 
 ============================================================================== 
 ============================================================================== 

	RMS orbital gradient is changed to :     2.51e-06
	MAX orbital gradient is changed to :     1.05e-04
	MO spaces... 

	 FC   OCC   VIR   FV 
	----------------------
	  1    4    19    0
	Reading DF integrals from disk ...
	Number of basis functions in the DF-HF basis: 116
	Number of basis functions in the DF-CC basis:  84

	Available memory                      :    244.14 MB 
	Memory requirement for 3-index ints   :      0.29 MB 
	Memory requirement for DF-CC int trans:      0.89 MB 
	Memory requirement for CC contractions:      0.28 MB 
	Total memory requirement for DF+CC int:      0.57 MB 
	Memory requirement for Wabef term     :      0.56 MB 

	Computing DF-MP2 energy using SCF MOs (Canonical DF-MP2)... 
	======================================================================= 
	Nuclear Repulsion Energy (a.u.)    :     9.18738642147759
	DF-HF Energy (a.u.)                :   -76.02674017978411
	REF Energy (a.u.)                  :   -76.02674017978411
	DF-MP2 Correlation Energy (a.u.)   :    -0.20165224255482
	DF-MP2 Total Energy (a.u.)         :   -76.22839242233893
	======================================================================= 

	Computing DF-MP2.5 energy using SCF MOs (Canonical DF-MP2.5)... 
	======================================================================= 
	Nuclear Repulsion Energy (a.u.)    :     9.18738642147759
	SCF Energy (a.u.)                  :   -76.02674017978411
	REF Energy (a.u.)                  :   -76.02674017978411
	DF-MP3 Correlation Energy (a.u.)   :    -0.20875608504639
	DF-MP3 Total Energy (a.u.)         :   -76.23549626483050
	DF-MP2.5 Correlation Energy (a.u.) :    -0.20520416380061
	DF-MP2.5 Total Energy (a.u.)       :   -76.23194434358471
	======================================================================= 

	Number of independent-pairs:  99

 ============================================================================== 
 ================ Performing DF-OMP2.5 iterations... ========================== 
 ============================================================================== 
	            Minimizing DF-MP2.5-L Functional 
	            ------------------------------ 
 Iter       E_total           DE           RMS MO Grad      MAX MO Grad      RMS T2    
 ----    ---------------    ----------     -----------      -----------     ---------- 
   1     -76.2326882438     -7.44e-04       8.84e-04         4.63e-03        6.27e-06 
   2     -76.2327203863     -3.21e-05       2.98e-04         2.42e-03        1.02e-06 
   3     -76.2327299028     -9.52e-06       2.03e-04         1.81e-03        3.38e-07 
   4     -76.2327347596     -4.86e-06       1.43e-04         1.35e-03        1.82e-07 
   5     -76.2327374131     -2.65e-06       1.07e-04         1.01e-03        1.23e-07 
   6     -76.2327405844     -3.17e-06       2.12e-05         1.85e-04        2.77e-07 
   7     -76.2327406976     -1.13e-07       4.30e-06         2.36e-05        5.88e-08 
   8     -76.2327407001     -2.47e-09       7.00e-07         3.79e-06        1.54e-08 

 ============================================================================== 
 ======================== DF-OMP2.5 ITERATIONS ARE CONVERGED ================== 
 ============================================================================== 

	Computing DF-MP2.5 energy using optimized MOs... 
	======================================================================= 
	Nuclear Repulsion Energy (a.u.)    :     9.18738642147759
	SCF Energy (a.u.)                  :   -76.02674017978411
	REF Energy (a.u.)                  :   -76.02600767985886
	DF-MP3 Correlation Energy (a.u.)   :    -0.21034879870695
	DF-MP3 Total Energy (a.u.)         :   -76.23708897849106
	DF-MP2.5 Correlation Energy (a.u.) :    -0.20673302055612
	DF-MP2.5 Total Energy (a.u.)       :   -76.23274070041499
	======================================================================= 

	======================================================================= 
	================ DF-OMP2.5 FINAL RESULTS ============================== 
	======================================================================= 
	Nuclear Repulsion Energy (a.u.)    :     9.18738642147759
	DF-HF Energy (a.u.)                :   -76.02674017978411
	REF Energy (a.u.)                  :   -76.02600767985886
	DF-OMP2.5 Correlation Energy (a.u.):    -0.20600052032052
	Edfomp2.5 - Eref (a.u.)            :    -0.20673302024576
	DF-OMP2.5 Total Energy (a.u.)      :   -76.23274070010463
	======================================================================= 


*** tstop() called on Ugurs-MacBook-Pro.local at Thu Oct  8 14:05:19 2015
Module time:
	user time   =       0.73 seconds =       0.01 minutes
	system time =       9.38 seconds =       0.16 minutes
	total time  =         10 seconds =       0.17 minutes
Total time:
	user time   =       1.32 seconds =       0.02 minutes
	system time =       9.49 seconds =       0.16 minutes
	total time  =         11 seconds =       0.18 minutes

*** tstart() called on Ugurs-MacBook-Pro.local
*** at Thu Oct  8 14:05:19 2015


 ============================================================================== 
 ============================================================================== 
 ============================================================================== 

                         DFGRAD   
            A General Analytic Gradients Code   
               for Density-Fitted Methods       
                   by Ugur Bozkaya
              Latest Revision October 7, 2015

 ============================================================================== 
 ============================================================================== 
 ============================================================================== 

	Analytic gradients computation is starting...
	Forming Gamma^tilde...
	Backtransforming OPDM, TPDM, and GFM to the AO basis...
	Computing analytic gradients...

  -Nuclear Gradient:
     Atom            X                  Y                   Z
    ------   -----------------  -----------------  -----------------
       1        0.000000000000     0.000000000000     2.989554195418
       2        0.000000000000     2.051800004663    -1.494777097709
       3        0.000000000000    -2.051800004663    -1.494777097709


  -Kinetic Gradient:
     Atom            X                  Y                   Z
    ------   -----------------  -----------------  -----------------
       1        0.000000000000    -0.000000000000     0.896085254477
       2       -0.000000000000     0.595704100020    -0.448042627239
       3        0.000000000000    -0.595704100020    -0.448042627238


  -Potential Gradient:
     Atom            X                  Y                   Z
    ------   -----------------  -----------------  -----------------
       1       -0.000000000001     0.000000000000    -8.392105855658
       2        0.000000000002    -5.589141899799     4.196052927830
       3       -0.000000000001     5.589141899799     4.196052927828


  -Overlap Gradient:
     Atom            X                  Y                   Z
    ------   -----------------  -----------------  -----------------
       1       -0.000000000000     0.000000000000     0.477050371293
       2        0.000000000000     0.291169126334    -0.238525174911
       3        0.000000000000    -0.291169126334    -0.238525196382


  -One-Electron Gradient:
     Atom            X                  Y                   Z
    ------   -----------------  -----------------  -----------------
       1       -0.000000000001     0.000000000000    -7.496020601181
       2        0.000000000002    -4.993437799779     3.748010300591
       3       -0.000000000001     4.993437799779     3.748010300590


  -Two-Electron Gradient:
     Atom            X                  Y                   Z
    ------   -----------------  -----------------  -----------------
       1        0.000000000001    -0.000000000000     4.041701292809
       2       -0.000000000002     2.652474127523    -2.020850646405
       3        0.000000000001    -2.652474127523    -2.020850646404


  -Total Gradient:
     Atom            X                  Y                   Z
    ------   -----------------  -----------------  -----------------
       1       -0.000000000000    -0.000000000000     0.012285258339
       2        0.000000000000     0.002005458741    -0.006142618434
       3       -0.000000000000    -0.002005458741    -0.006142639905


*** tstop() called on Ugurs-MacBook-Pro.local at Thu Oct  8 14:05:20 2015
Module time:
	user time   =       0.35 seconds =       0.01 minutes
	system time =       0.02 seconds =       0.00 minutes
	total time  =          1 seconds =       0.02 minutes
Total time:
	user time   =       1.67 seconds =       0.03 minutes
	system time =       9.51 seconds =       0.16 minutes
	total time  =         12 seconds =       0.20 minutes
CURRENT ENERGY:  -76.2327407001

*** PSI4 exiting successfully. Buy a developer a beer!
