    -----------------------------------------------------------------------
          PSI4: An Open-Source Ab Initio Electronic Structure Package
                              PSI 4.0.0-alpha Driver

    J. M. Turney, A. C. Simmonett, R. M. Parrish, E. G. Hohenstein,
    F. Evangelista, J. T. Fermann, B. J. Mintz, L. A. Burns, J. J. Wilke,
    M. L. Abrams, N. J. Russ, M. L. Leininger, C. L. Janssen, E. T. Seidl,
    W. D. Allen, H. F. Schaefer, R. A. King, E. F. Valeev, C. D. Sherrill,
    and T. D. Crawford, WIREs Comput. Mol. Sci., (2011)
                         Additional Contributions by
    -----------------------------------------------------------------------


    Using LocalCommunicator (Number of processes = 1)

    Memory level set to 256.000 MB

  ==> Input File <==

--------------------------------------------------------------------------
molecule {
0 1
O   0.000000000000  -0.143225816552   0.000000000000
H   1.638036840407   1.136548822547  -0.000000000000
H  -1.638036840407   1.136548822547  -0.000000000000
units bohr
symmetry c1
}

plugin_load('./plugin_libfock.so')

set {
debug 1
print 2
scf_type direct
basis sto-3g 
solver_n_root 2
solver_n_guess 2
solver_min_subspace 8
solver_max_subspace 16
}

energy('scf')
plugin('./plugin_libfock.so')

--------------------------------------------------------------------------
./plugin_libfock.so loaded.

*** tstart() called on ds7
*** at Fri Oct 21 00:54:39 2011


         ---------------------------------------------------------
                                   SCF
            by Justin Turney, Rob Parrish, and Andy Simmonnett
                              RHF Reference
                        4 Threads,    256 MiB Core
         ---------------------------------------------------------

  ==> Geometry <==

    Molecular point group: c1

    Geometry (in Bohr), charge = 0, multiplicity = 1:

       Center              X                  Y                   Z       
    ------------   -----------------  -----------------  -----------------
           O          0.000000000000     0.000000000000    -0.143225816552
           H          1.638036840407     0.000000000000     1.136548822547
           H         -1.638036840407     0.000000000000     1.136548822547

    Number of unique atoms: 3

    Atoms equivalency:
       unique atom 0: 0 
       unique atom 1: 1 
       unique atom 2: 2 

  Running in c1 symmetry.

  Nuclear repulsion =    8.002367061810771

  Charge       = 0
  Multiplicity = 1
  Electrons    = 10
  Nalpha       = 5
  Nbeta        = 5

  ==> Algorithm <==

  SCF Algorithm Type is DIRECT.
  DIIS enabled.
  MOM disabled.
  Guess Type is CORE.
  Energy threshold   = 1.00e-08
  Density threshold  = 1.00e-08
  Integral threshold = 0.00e+00

  ==> Primary Basis: STO-3G <==

  -AO BASIS SET INFORMATION:
    Total number of shells = 5
    Number of primitives   = 15
    Number of AO           = 7
    Number of SO           = 7
    Maximum AM             = 1
    Spherical Harmonics    = TRUE

  -Contraction Scheme:
    Atom   Type   All Primitives // Shells:
   ------ ------ --------------------------
       1     O     6s 3p // 2s 1p 
       2     H     3s // 1s 
       3     H     3s // 1s 

  ==> Pre-Iterations <==

  Minimum eigenvalue in the overlap matrix is 4.3422214642E-01.
  Using Symmetric Orthogonalization.
  SCF Guess: Core (One-Electron) Hamiltonian.

in RHF::form_D:
  ## D (Symmetry 0) ##
  Irrep: 1

                 1            2            3            4            5

    1    1.0650117   -0.2852166   -0.0195534   -0.0000000    0.0000000
    2   -0.2852166    1.2489657    0.1135594    0.0000000   -0.0000000
    3   -0.0195534    0.1135594    1.0660638   -0.0000000    0.0000000
    4   -0.0000000    0.0000000   -0.0000000    1.1258701    0.0000000
    5    0.0000000   -0.0000000    0.0000000    0.0000000    1.0000000
    6    0.0334496   -0.1442809   -0.0993583   -0.1461317    0.0000000
    7    0.0334496   -0.1442809   -0.0993583    0.1461317    0.0000000

                 6            7

    1    0.0334496    0.0334496
    2   -0.1442809   -0.1442809
    3   -0.0993583   -0.0993583
    4   -0.1461317    0.1461317
    5    0.0000000    0.0000000
    6    0.0426802    0.0047460
    7    0.0047460    0.0426802



  Initial RHF energy:   -54.91867165703879

   -------------------------------------------------------
    Irrep   Nso     Nmo     Nalpha   Nbeta   Ndocc  Nsocc
   -------------------------------------------------------
     A          7       7       5       5       5       0
   -------------------------------------------------------
    Total       7       7       5       5       5       0
   -------------------------------------------------------

  ==> Integral Setup <==

  Building Direct Integral Objects...

  ==> Iterations <==

                        Total Energy        Delta E     Density RMS

  ## F (Symmetry 0) ##
  Irrep: 1

                 1            2            3            4            5

    1  -18.8132695   -4.8726875   -0.0115290    0.0000000   -0.0000000
    2   -4.8726875   -1.7909029   -0.1808692    0.0000000   -0.0000000
    3   -0.0115290   -0.1808692    0.2391247   -0.0000000   -0.0000000
    4    0.0000000    0.0000000   -0.0000000    0.1939644   -0.0000000
    5   -0.0000000   -0.0000000   -0.0000000   -0.0000000    0.3091071
    6   -0.8067323   -0.5790557   -0.1828683   -0.1708886   -0.0000000
    7   -0.8067323   -0.5790557   -0.1828683    0.1708886   -0.0000000

                 6            7

    1   -0.8067323   -0.8067323
    2   -0.5790557   -0.5790557
    3   -0.1828683   -0.1828683
    4   -0.1708886    0.1708886
    5   -0.0000000   -0.0000000
    6   -0.1450338   -0.1846675
    7   -0.1846675   -0.1450338



   @RHF iter   1:   -73.28579642110019   -1.83671e+01   0.00000e+00  
in RHF::form_D:
  ## D (Symmetry 0) ##
  Irrep: 1

                 1            2            3            4            5

    1    1.0597150   -0.2600546    0.0465858   -0.0000000    0.0000000
    2   -0.2600546    1.1674963   -0.2639360    0.0000000   -0.0000000
    3    0.0465858   -0.2639360    0.3454583    0.0000000   -0.0000000
    4   -0.0000000    0.0000000    0.0000000    0.2455072    0.0000000
    5    0.0000000   -0.0000000   -0.0000000    0.0000000    1.0000000
    6    0.0161975   -0.1637495    0.2847392    0.2654011    0.0000000
    7    0.0161975   -0.1637495    0.2847392   -0.2654011    0.0000000

                 6            7

    1    0.0161975    0.0161975
    2   -0.1637495   -0.1637495
    3    0.2847392    0.2847392
    4    0.2654011   -0.2654011
    5    0.0000000    0.0000000
    6    0.5246897   -0.0491242
    7   -0.0491242    0.5246897



  ## F (Symmetry 0) ##
  Irrep: 1

                 1            2            3            4            5

    1  -20.6373356   -5.2388623   -0.0214082    0.0000000   -0.0000000
    2   -5.2388623   -2.6019054   -0.0443966    0.0000000   -0.0000000
    3   -0.0214082   -0.0443966   -0.3518303   -0.0000000    0.0000000
    4    0.0000000    0.0000000   -0.0000000   -0.3521378   -0.0000000
    5   -0.0000000   -0.0000000    0.0000000   -0.0000000   -0.5960383
    6   -0.8649808   -0.8293548   -0.3331647   -0.3696371   -0.0000000
    7   -0.8649808   -0.8293548   -0.3331647    0.3696371   -0.0000000

                 6            7

    1   -0.8649808   -0.8649808
    2   -0.8293548   -0.8293548
    3   -0.3331647   -0.3331647
    4   -0.3696371    0.3696371
    5   -0.0000000   -0.0000000
    6   -0.4537550   -0.2637393
    7   -0.2637393   -0.4537550



   @RHF iter   2:   -74.82812537974451   -1.54233e+00   2.60953e-01 DIIS
in RHF::form_D:
  ## D (Symmetry 0) ##
  Irrep: 1

                 1            2            3            4            5

    1    1.0569656   -0.2436521    0.0484785   -0.0000000    0.0000000
    2   -0.2436521    1.0697851   -0.2702203    0.0000000   -0.0000000
    3    0.0484785   -0.2702203    0.5202739    0.0000000   -0.0000000
    4   -0.0000000    0.0000000    0.0000000    0.3807892    0.0000000
    5    0.0000000   -0.0000000   -0.0000000    0.0000000    1.0000000
    6    0.0000553   -0.0681631    0.2707322    0.2746865    0.0000000
    7    0.0000553   -0.0681631    0.2707322   -0.2746865    0.0000000

                 6            7

    1    0.0000553    0.0000553
    2   -0.0681631   -0.0681631
    3    0.2707322    0.2707322
    4    0.2746865   -0.2746865
    5    0.0000000    0.0000000
    6    0.3447413   -0.0515548
    7   -0.0515548    0.3447413



  ## F (Symmetry 0) ##
  Irrep: 1

                 1            2            3            4            5

    1  -20.2647606   -5.1647607   -0.0239367    0.0000000    0.0000000
    2   -5.1647607   -2.4224468   -0.0753726   -0.0000000   -0.0000000
    3   -0.0239367   -0.0753726   -0.2595699   -0.0000000    0.0000000
    4    0.0000000   -0.0000000   -0.0000000   -0.2469077   -0.0000000
    5    0.0000000   -0.0000000    0.0000000   -0.0000000   -0.3954851
    6   -0.8536221   -0.7979978   -0.3269494   -0.3574044   -0.0000000
    7   -0.8536221   -0.7979978   -0.3269494    0.3574044   -0.0000000

                 6            7

    1   -0.8536221   -0.8536221
    2   -0.7979978   -0.7979978
    3   -0.3269494   -0.3269494
    4   -0.3574044    0.3574044
    5   -0.0000000   -0.0000000
    6   -0.4149259   -0.2539408
    7   -0.2539408   -0.4149259



   @RHF iter   3:   -74.93872134517268   -1.10596e-01   5.75937e-02 DIIS
in RHF::form_D:
  ## D (Symmetry 0) ##
  Irrep: 1

                 1            2            3            4            5

    1    1.0552038   -0.2345244    0.0523931   -0.0000000   -0.0000000
    2   -0.2345244    1.0239436   -0.2826369    0.0000000   -0.0000000
    3    0.0523931   -0.2826369    0.5543234    0.0000000   -0.0000000
    4   -0.0000000    0.0000000    0.0000000    0.3794001    0.0000000
    5   -0.0000000   -0.0000000   -0.0000000    0.0000000    1.0000000
    6   -0.0067228   -0.0374794    0.2617012    0.2747451    0.0000000
    7   -0.0067228   -0.0374794    0.2617012   -0.2747451    0.0000000

                 6            7

    1   -0.0067228   -0.0067228
    2   -0.0374794   -0.0374794
    3    0.2617012    0.2617012
    4    0.2747451   -0.2747451
    5    0.0000000    0.0000000
    6    0.3330524   -0.0648645
    7   -0.0648645    0.3330524



  ## F (Symmetry 0) ##
  Irrep: 1

                 1            2            3            4            5

    1  -20.2507245   -5.1628304   -0.0254628    0.0000000    0.0000000
    2   -5.1628304   -2.4099381   -0.0748193   -0.0000000   -0.0000000
    3   -0.0254628   -0.0748193   -0.2679989   -0.0000000    0.0000000
    4    0.0000000   -0.0000000   -0.0000000   -0.2378949   -0.0000000
    5    0.0000000   -0.0000000    0.0000000   -0.0000000   -0.3859441
    6   -0.8532481   -0.8005343   -0.3250857   -0.3577578   -0.0000000
    7   -0.8532481   -0.8005343   -0.3250857    0.3577578   -0.0000000

                 6            7

    1   -0.8532481   -0.8532481
    2   -0.8005343   -0.8005343
    3   -0.3250857   -0.3250857
    4   -0.3577578    0.3577578
    5   -0.0000000   -0.0000000
    6   -0.4175417   -0.2538058
    7   -0.2538058   -0.4175417



   @RHF iter   4:   -74.94185070094947   -3.12936e-03   1.33057e-02 DIIS
in RHF::form_D:
  ## D (Symmetry 0) ##
  Irrep: 1

                 1            2            3            4            5

    1    1.0549463   -0.2332137    0.0527262   -0.0000000   -0.0000000
    2   -0.2332137    1.0174867   -0.2830517    0.0000000    0.0000000
    3    0.0527262   -0.2830517    0.5614682    0.0000000    0.0000000
    4   -0.0000000    0.0000000    0.0000000    0.3719293   -0.0000000
    5   -0.0000000    0.0000000    0.0000000   -0.0000000    1.0000000
    6   -0.0077639   -0.0327323    0.2597738    0.2750116    0.0000000
    7   -0.0077639   -0.0327323    0.2597738   -0.2750116   -0.0000000

                 6            7

    1   -0.0077639   -0.0077639
    2   -0.0327323   -0.0327323
    3    0.2597738    0.2597738
    4    0.2750116   -0.2750116
    5    0.0000000   -0.0000000
    6    0.3346476   -0.0720500
    7   -0.0720500    0.3346476



  ## F (Symmetry 0) ##
  Irrep: 1

                 1            2            3            4            5

    1  -20.2551443   -5.1638575   -0.0255457    0.0000000    0.0000000
    2   -5.1638575   -2.4111467   -0.0743199   -0.0000000   -0.0000000
    3   -0.0255457   -0.0743199   -0.2735651   -0.0000000   -0.0000000
    4    0.0000000   -0.0000000   -0.0000000   -0.2357151   -0.0000000
    5    0.0000000   -0.0000000   -0.0000000   -0.0000000   -0.3879541
    6   -0.8533681   -0.8014598   -0.3248728   -0.3579062   -0.0000000
    7   -0.8533681   -0.8014598   -0.3248728    0.3579062    0.0000000

                 6            7

    1   -0.8533681   -0.8533681
    2   -0.8014598   -0.8014598
    3   -0.3248728   -0.3248728
    4   -0.3579062    0.3579062
    5   -0.0000000    0.0000000
    6   -0.4183444   -0.2529555
    7   -0.2529555   -0.4183444



   @RHF iter   5:   -74.94205432492207   -2.03624e-04   2.75011e-03 DIIS
in RHF::form_D:
  ## D (Symmetry 0) ##
  Irrep: 1

                 1            2            3            4            5

    1    1.0548781   -0.2328258    0.0526355   -0.0000000    0.0000000
    2   -0.2328258    1.0152865   -0.2823672    0.0000000    0.0000000
    3    0.0526355   -0.2823672    0.5656799    0.0000000    0.0000000
    4   -0.0000000    0.0000000    0.0000000    0.3689008   -0.0000000
    5    0.0000000    0.0000000    0.0000000   -0.0000000    1.0000000
    6   -0.0081240   -0.0307069    0.2587069    0.2750960    0.0000000
    7   -0.0081240   -0.0307069    0.2587069   -0.2750960   -0.0000000

                 6            7

    1   -0.0081240   -0.0081240
    2   -0.0307069   -0.0307069
    3    0.2587069    0.2587069
    4    0.2750960   -0.2750960
    5    0.0000000   -0.0000000
    6    0.3346214   -0.0756666
    7   -0.0756666    0.3346214



  ## F (Symmetry 0) ##
  Irrep: 1

                 1            2            3            4            5

    1  -20.2548376   -5.1638265   -0.0254858    0.0000000   -0.0000000
    2   -5.1638265   -2.4108026   -0.0743658    0.0000000   -0.0000000
    3   -0.0254858   -0.0743658   -0.2754762   -0.0000000   -0.0000000
    4    0.0000000    0.0000000   -0.0000000   -0.2338190   -0.0000000
    5   -0.0000000   -0.0000000   -0.0000000   -0.0000000   -0.3877161
    6   -0.8533498   -0.8015522   -0.3247008   -0.3578018   -0.0000000
    7   -0.8533498   -0.8015522   -0.3247008    0.3578018    0.0000000

                 6            7

    1   -0.8533498   -0.8533498
    2   -0.8015522   -0.8015522
    3   -0.3247008   -0.3247008
    4   -0.3578018    0.3578018
    5   -0.0000000    0.0000000
    6   -0.4182417   -0.2523364
    7   -0.2523364   -0.4182417



   @RHF iter   6:   -74.94207980023640   -2.54753e-05   1.28318e-03 DIIS
in RHF::form_D:
  ## D (Symmetry 0) ##
  Irrep: 1

                 1            2            3            4            5

    1    1.0548737   -0.2327980    0.0526229   -0.0000000   -0.0000000
    2   -0.2327980    1.0151124   -0.2823001    0.0000000    0.0000000
    3    0.0526229   -0.2823001    0.5660398    0.0000000    0.0000000
    4   -0.0000000    0.0000000    0.0000000    0.3687946   -0.0000000
    5   -0.0000000    0.0000000    0.0000000   -0.0000000    1.0000000
    6   -0.0081503   -0.0305407    0.2586156    0.2750987    0.0000000
    7   -0.0081503   -0.0305407    0.2586156   -0.2750987   -0.0000000

                 6            7

    1   -0.0081503   -0.0081503
    2   -0.0305407   -0.0305407
    3    0.2586156    0.2586156
    4    0.2750987   -0.2750987
    5    0.0000000   -0.0000000
    6    0.3345277   -0.0758865
    7   -0.0758865    0.3345277



  ## F (Symmetry 0) ##
  Irrep: 1

                 1            2            3            4            5

    1  -20.2546022   -5.1637806   -0.0254794    0.0000000    0.0000000
    2   -5.1637806   -2.4106800   -0.0743880   -0.0000000   -0.0000000
    3   -0.0254794   -0.0743880   -0.2755354   -0.0000000   -0.0000000
    4    0.0000000   -0.0000000   -0.0000000   -0.2336408   -0.0000000
    5    0.0000000   -0.0000000   -0.0000000   -0.0000000   -0.3875878
    6   -0.8533422   -0.8015376   -0.3246812   -0.3577853   -0.0000000
    7   -0.8533422   -0.8015376   -0.3246812    0.3577853    0.0000000

                 6            7

    1   -0.8533422   -0.8533422
    2   -0.8015376   -0.8015376
    3   -0.3246812   -0.3246812
    4   -0.3577853    0.3577853
    5   -0.0000000    0.0000000
    6   -0.4182077   -0.2522909
    7   -0.2522909   -0.4182077



   @RHF iter   7:   -74.94207992818707   -1.27951e-07   9.50838e-05 DIIS
in RHF::form_D:
  ## D (Symmetry 0) ##
  Irrep: 1

                 1            2            3            4            5

    1    1.0548737   -0.2327977    0.0526229   -0.0000000   -0.0000000
    2   -0.2327977    1.0151109   -0.2823000   -0.0000000    0.0000000
    3    0.0526229   -0.2823000    0.5660418    0.0000000    0.0000000
    4   -0.0000000   -0.0000000    0.0000000    0.3687949    0.0000000
    5   -0.0000000    0.0000000    0.0000000    0.0000000    1.0000000
    6   -0.0081506   -0.0305395    0.2586150    0.2750987    0.0000000
    7   -0.0081506   -0.0305395    0.2586150   -0.2750987   -0.0000000

                 6            7

    1   -0.0081506   -0.0081506
    2   -0.0305395   -0.0305395
    3    0.2586150    0.2586150
    4    0.2750987   -0.2750987
    5    0.0000000   -0.0000000
    6    0.3345267   -0.0758872
    7   -0.0758872    0.3345267



  ## F (Symmetry 0) ##
  Irrep: 1

                 1            2            3            4            5

    1  -20.2546002   -5.1637803   -0.0254795    0.0000000    0.0000000
    2   -5.1637803   -2.4106789   -0.0743881    0.0000000   -0.0000000
    3   -0.0254795   -0.0743881   -0.2755353   -0.0000000   -0.0000000
    4    0.0000000    0.0000000   -0.0000000   -0.2336399   -0.0000000
    5    0.0000000   -0.0000000   -0.0000000   -0.0000000   -0.3875868
    6   -0.8533422   -0.8015375   -0.3246810   -0.3577852   -0.0000000
    7   -0.8533422   -0.8015375   -0.3246810    0.3577852    0.0000000

                 6            7

    1   -0.8533422   -0.8533422
    2   -0.8015375   -0.8015375
    3   -0.3246810   -0.3246810
    4   -0.3577852    0.3577852
    5   -0.0000000    0.0000000
    6   -0.4182076   -0.2522908
    7   -0.2522908   -0.4182076



   @RHF iter   8:   -74.94207992819220   -5.13012e-12   5.74497e-07 DIIS
in RHF::form_D:
  ## D (Symmetry 0) ##
  Irrep: 1

                 1            2            3            4            5

    1    1.0548737   -0.2327977    0.0526229   -0.0000000   -0.0000000
    2   -0.2327977    1.0151108   -0.2823000   -0.0000000    0.0000000
    3    0.0526229   -0.2823000    0.5660418    0.0000000    0.0000000
    4   -0.0000000   -0.0000000    0.0000000    0.3687949   -0.0000000
    5   -0.0000000    0.0000000    0.0000000   -0.0000000    1.0000000
    6   -0.0081506   -0.0305395    0.2586150    0.2750987    0.0000000
    7   -0.0081506   -0.0305395    0.2586150   -0.2750987   -0.0000000

                 6            7

    1   -0.0081506   -0.0081506
    2   -0.0305395   -0.0305395
    3    0.2586150    0.2586150
    4    0.2750987   -0.2750987
    5    0.0000000   -0.0000000
    6    0.3345267   -0.0758872
    7   -0.0758872    0.3345267




  ==> Post-Iterations <==

  ## F (Symmetry 0) ##
  Irrep: 1

                 1            2            3            4            5

    1  -20.2546002   -5.1637803   -0.0254795    0.0000000    0.0000000
    2   -5.1637803   -2.4106789   -0.0743881    0.0000000   -0.0000000
    3   -0.0254795   -0.0743881   -0.2755353   -0.0000000   -0.0000000
    4    0.0000000    0.0000000   -0.0000000   -0.2336399   -0.0000000
    5    0.0000000   -0.0000000   -0.0000000   -0.0000000   -0.3875868
    6   -0.8533422   -0.8015375   -0.3246810   -0.3577852   -0.0000000
    7   -0.8533422   -0.8015375   -0.3246810    0.3577852    0.0000000

                 6            7

    1   -0.8533422   -0.8533422
    2   -0.8015375   -0.8015375
    3   -0.3246810   -0.3246810
    4   -0.3577852    0.3577852
    5   -0.0000000    0.0000000
    6   -0.4182076   -0.2522908
    7   -0.2522908   -0.4182076



	Orbital Energies (a.u.)
	-----------------------

	Doubly Occupied:                                                      

	   1A    -20.262892     2A     -1.209697     3A     -0.547965  
	   4A     -0.436527     5A     -0.387587  

	Virtual:                                                              

	   6A      0.477619     7A      0.588139  

	Final Occupation by Irrep:
	          A 
	DOCC [     5 ]

  Energy converged.

  @RHF Final Energy:   -74.94207992819220

  ==> Properties <==

 OEPROP: One-electron properties/analyses.
  by Rob Parrish and Justin Turney.
  built on LIBMINTS.

 Dipole Moment: (a.u.)
     X:     0.0000      Y:    -0.0000      Z:     0.6035     Total:     0.6035

 Dipole Moment: (Debye)
     X:     0.0000      Y:    -0.0000      Z:     1.5340     Total:     1.5340

 Quadrupole Moment: (Debye Ang)
    XX:    -4.3168     YY:    -6.2076     ZZ:    -5.2054
    XY:    -0.0000     XZ:    -0.0000     YZ:    -0.0000

 Traceless Quadrupole Moment: (Debye Ang)
    XX:     0.9265     YY:    -0.9643     ZZ:     0.0378
    XY:    -0.0000     XZ:    -0.0000     YZ:    -0.0000

 Mulliken Charges: (a.u.)
   Center  Symbol    Alpha    Beta     Spin     Total
       1     O     4.12657  4.12657  0.00000 -0.25315
       2     H     0.43671  0.43671  0.00000  0.12657
       3     H     0.43671  0.43671  0.00000  0.12657

   Total alpha =  5.00000, Total beta =  5.00000, Total charge =  0.00000

  Saving occupied orbitals to File 100.

*** tstop() called on ds7 at Fri Oct 21 00:54:40 2011
Module time:
	user time   =       0.08 seconds =       0.00 minutes
	system time =       0.01 seconds =       0.00 minutes
	total time  =          1 seconds =       0.02 minutes
Total time:
	user time   =       0.08 seconds =       0.00 minutes
	system time =       0.01 seconds =       0.00 minutes
	total time  =          1 seconds =       0.02 minutes
Reading options from the PLUGIN_LIBFOCK block
Calling plugin ./plugin_libfock.so.
  ## Cfocc (Symmetry 0) ##
  Irrep: 1

	(empty)

  ## Caocc (Symmetry 0) ##
  Irrep: 1

                 1            2            3            4            5

    1   -0.9944346   -0.2391589    0.0000000    0.0936833   -0.0000000
    2   -0.0240970    0.8857356   -0.0000000   -0.4795859    0.0000000
    3   -0.0031615    0.0858962   -0.0000000    0.7474314   -0.0000000
    4    0.0000000    0.0000000    0.6072848    0.0000000    0.0000000
    5    0.0000000    0.0000000   -0.0000000    0.0000000    1.0000000
    6    0.0045937    0.1440396    0.4529977    0.3294712   -0.0000000
    7    0.0045937    0.1440396   -0.4529977    0.3294712   -0.0000000



  ## Cavir (Symmetry 0) ##
  Irrep: 1

                 1            2

    1   -0.1116399   -0.0000000
    2    0.6695791    0.0000000
    3    0.7384886    0.0000000
    4   -0.0000000    0.9192343
    5   -0.0000000    0.0000000
    6   -0.7098495   -0.7324607
    7   -0.7098495    0.7324607



  ## Cfvir (Symmetry 0) ##
  Irrep: 1

	(empty)


 # eps_focc #
 Irrep: 1


 # eps_aocc #
 Irrep: 1
      1: -20.2628915
      2: -1.2096973
      3: -0.5479646
      4: -0.4365272
      5: -0.3875867


 # eps_avir #
 Irrep: 1
      1:  0.4776187
      2:  0.5881393


 # eps_fvir #
 Irrep: 1


         ------------------------------------------------------------
                                      CIS                           
                                  Rob Parrish                       
         ------------------------------------------------------------

 ==> Geometry <==

    Molecular point group: c1

    Geometry (in Bohr), charge = 0, multiplicity = 1:

       Center              X                  Y                   Z       
    ------------   -----------------  -----------------  -----------------
           O          0.000000000000     0.000000000000    -0.143225816552
           H          1.638036840407     0.000000000000     1.136548822547
           H         -1.638036840407     0.000000000000     1.136548822547

    Number of unique atoms: 3

    Atoms equivalency:
       unique atom 0: 0 
       unique atom 1: 1 
       unique atom 2: 2 

  Nuclear repulsion =    8.002367061810771
  Reference energy  =  -74.942079928192200

  -AO BASIS SET INFORMATION:
    Total number of shells = 5
    Number of primitives   = 15
    Number of AO           = 7
    Number of SO           = 7
    Maximum AM             = 1
    Spherical Harmonics    = TRUE

  -Contraction Scheme:
    Atom   Type   All Primitives // Shells:
   ------ ------ --------------------------
       1     O     6s 3p // 2s 1p 
       2     H     3s // 1s 
       3     H     3s // 1s 

  ==> DLRSolver (by Rob Parrish) <== 

   Number of roots         =         2
   Number of guess vectors =         2
   Maximum subspace size   =        16
   Minimum subspace size   =         8
   Subspace expansion norm =     1E-06
   Convergence cutoff      =     1E-06
   Maximum iterations      =       100

  ==> CISRHamiltonian (by Rob Parrish) <== 

  ==> DirectJK: Integral-Direct J/K Matrices <==
                  by Rob Parrish

  ==> Singlets <==

   > JK <

  ## Caocc (Symmetry 0) ##
  Irrep: 1

                 1            2            3            4            5

    1   -0.9944346   -0.2391589    0.0000000    0.0936833   -0.0000000
    2   -0.0240970    0.8857356   -0.0000000   -0.4795859    0.0000000
    3   -0.0031615    0.0858962   -0.0000000    0.7474314   -0.0000000
    4    0.0000000    0.0000000    0.6072848    0.0000000    0.0000000
    5    0.0000000    0.0000000   -0.0000000    0.0000000    1.0000000
    6    0.0045937    0.1440396    0.4529977    0.3294712   -0.0000000
    7    0.0045937    0.1440396   -0.4529977    0.3294712   -0.0000000



  ## C_right, h = 0, N = 0 (Symmetry 0) ##
  Irrep: 1

                 1            2            3            4            5

    1   -0.1116399    0.0000000    0.0000000    0.0000000    0.0000000
    2    0.6695791    0.0000000    0.0000000    0.0000000    0.0000000
    3    0.7384886    0.0000000    0.0000000    0.0000000    0.0000000
    4   -0.0000000    0.0000000    0.0000000    0.0000000    0.0000000
    5   -0.0000000    0.0000000    0.0000000    0.0000000    0.0000000
    6   -0.7098495    0.0000000    0.0000000    0.0000000    0.0000000
    7   -0.7098495    0.0000000    0.0000000    0.0000000    0.0000000



  ## D 0 (SO) (Symmetry 0) ##
  Irrep: 1

                 1            2            3            4            5

    1    0.1110186   -0.6658526   -0.7343786    0.0000000    0.0000000
    2    0.0026902   -0.0161349   -0.0177954    0.0000000    0.0000000
    3    0.0003530   -0.0021169   -0.0023348    0.0000000    0.0000000
    4   -0.0000000    0.0000000    0.0000000   -0.0000000   -0.0000000
    5   -0.0000000    0.0000000    0.0000000   -0.0000000   -0.0000000
    6   -0.0005128    0.0030759    0.0033924   -0.0000000   -0.0000000
    7   -0.0005128    0.0030759    0.0033924   -0.0000000   -0.0000000

                 6            7

    1    0.7058989    0.7058989
    2    0.0171053    0.0171053
    3    0.0022442    0.0022442
    4   -0.0000000   -0.0000000
    5   -0.0000000   -0.0000000
    6   -0.0032609   -0.0032609
    7   -0.0032609   -0.0032609



  ## J 0 (AO) (Symmetry 0) ##
  Irrep: 1

                 1            2            3            4            5

    1    0.2012309    0.0207042   -0.0176479    0.0000000    0.0000000
    2    0.0207042    0.0059461   -0.0285361    0.0000000    0.0000000
    3   -0.0176479   -0.0285361    0.0055130    0.0000000    0.0000000
    4    0.0000000    0.0000000    0.0000000    0.0057812   -0.0000000
    5    0.0000000    0.0000000    0.0000000   -0.0000000    0.0054109
    6    0.0030272   -0.0015956   -0.0065447   -0.0010677    0.0000000
    7    0.0030272   -0.0015956   -0.0065447    0.0010677    0.0000000

                 6            7

    1    0.0030272    0.0030272
    2   -0.0015956   -0.0015956
    3   -0.0065447   -0.0065447
    4   -0.0010677    0.0010677
    5    0.0000000    0.0000000
    6   -0.0049845   -0.0012443
    7   -0.0012443   -0.0049845



  ## K 0 (AO) (Symmetry 0) ##
  Irrep: 1

                 1            2            3            4            5

    1    0.2099814   -0.2216505   -0.6202148    0.0000000    0.0000000
    2    0.0228697   -0.0563108   -0.1499337    0.0000000    0.0000000
    3   -0.0176351   -0.0253763   -0.0117383    0.0000000    0.0000000
    4    0.0000000    0.0000000    0.0000000   -0.0094887   -0.0000000
    5    0.0000000    0.0000000    0.0000000   -0.0000000   -0.0132561
    6    0.0033670   -0.0102565   -0.0253899   -0.0005507    0.0000000
    7    0.0033670   -0.0102565   -0.0253899    0.0005507    0.0000000

                 6            7

    1    0.1071567    0.1071567
    2    0.0277301    0.0277301
    3   -0.0028099   -0.0028099
    4    0.0021330   -0.0021330
    5   -0.0000000   -0.0000000
    6    0.0044769    0.0044650
    7    0.0044650    0.0044769




 #  #
 Irrep: 1
      1:  1.0000000
      2:  0.0000000
      3:  0.0000000
      4:  0.0000000
      5:  0.0000000
      6:  0.0000000
      7:  0.0000000
      8:  0.0000000
      9:  0.0000000
     10:  0.0000000


 #  #
 Irrep: 1
      1: 20.0108972
      2:  0.0000000
      3: -0.0270664
      4:  0.0000000
      5: -0.0000000
      6:  0.0192010
      7:  0.0215503
      8: -0.0000000
      9: -0.0000000
     10:  0.0000000

  ## Caocc (Symmetry 0) ##
  Irrep: 1

                 1            2            3            4            5

    1   -0.9944346   -0.2391589    0.0000000    0.0936833   -0.0000000
    2   -0.0240970    0.8857356   -0.0000000   -0.4795859    0.0000000
    3   -0.0031615    0.0858962   -0.0000000    0.7474314   -0.0000000
    4    0.0000000    0.0000000    0.6072848    0.0000000    0.0000000
    5    0.0000000    0.0000000   -0.0000000    0.0000000    1.0000000
    6    0.0045937    0.1440396    0.4529977    0.3294712   -0.0000000
    7    0.0045937    0.1440396   -0.4529977    0.3294712   -0.0000000



  ## C_right, h = 0, N = 0 (Symmetry 0) ##
  Irrep: 1

                 1            2            3            4            5

    1   -0.1116399    0.0000000    0.0000000    0.0000000    0.0000000
    2    0.6695791    0.0000000    0.0000000    0.0000000    0.0000000
    3    0.7384886    0.0000000    0.0000000    0.0000000    0.0000000
    4   -0.0000000    0.0000000    0.0000000    0.0000000    0.0000000
    5   -0.0000000    0.0000000    0.0000000    0.0000000    0.0000000
    6   -0.7098495    0.0000000    0.0000000    0.0000000    0.0000000
    7   -0.7098495    0.0000000    0.0000000    0.0000000    0.0000000



   > JK <

  ## Caocc (Symmetry 0) ##
  Irrep: 1

                 1            2            3            4            5

    1   -0.9944346   -0.2391589    0.0000000    0.0936833   -0.0000000
    2   -0.0240970    0.8857356   -0.0000000   -0.4795859    0.0000000
    3   -0.0031615    0.0858962   -0.0000000    0.7474314   -0.0000000
    4    0.0000000    0.0000000    0.6072848    0.0000000    0.0000000
    5    0.0000000    0.0000000   -0.0000000    0.0000000    1.0000000
    6    0.0045937    0.1440396    0.4529977    0.3294712   -0.0000000
    7    0.0045937    0.1440396   -0.4529977    0.3294712   -0.0000000



  ## C_right, h = 0, N = 0 (Symmetry 0) ##
  Irrep: 1

                 1            2            3            4            5

    1   -0.0000000    0.0000000    0.0000000    0.0000000    0.0000000
    2    0.0000000    0.0000000    0.0000000    0.0000000    0.0000000
    3    0.0000000    0.0000000    0.0000000    0.0000000    0.0000000
    4    0.9192343    0.0000000    0.0000000    0.0000000    0.0000000
    5    0.0000000    0.0000000    0.0000000    0.0000000    0.0000000
    6   -0.7324607    0.0000000    0.0000000    0.0000000    0.0000000
    7    0.7324607    0.0000000    0.0000000    0.0000000    0.0000000



  ## D 0 (SO) (Symmetry 0) ##
  Irrep: 1

                 1            2            3            4            5

    1    0.0000000   -0.0000000   -0.0000000   -0.9141184   -0.0000000
    2    0.0000000   -0.0000000   -0.0000000   -0.0221508   -0.0000000
    3    0.0000000   -0.0000000   -0.0000000   -0.0029062   -0.0000000
    4   -0.0000000    0.0000000    0.0000000    0.0000000    0.0000000
    5   -0.0000000    0.0000000    0.0000000    0.0000000    0.0000000
    6   -0.0000000    0.0000000    0.0000000    0.0042227    0.0000000
    7   -0.0000000    0.0000000    0.0000000    0.0042227    0.0000000

                 6            7

    1    0.7283842   -0.7283842
    2    0.0176501   -0.0176501
    3    0.0023157   -0.0023157
    4   -0.0000000    0.0000000
    5   -0.0000000    0.0000000
    6   -0.0033647    0.0033647
    7   -0.0033647    0.0033647



  ## J 0 (AO) (Symmetry 0) ##
  Irrep: 1

                 1            2            3            4            5

    1    0.0000000    0.0000000   -0.0000000   -0.0218493   -0.0000000
    2    0.0000000    0.0000000   -0.0000000   -0.0351395   -0.0000000
    3   -0.0000000   -0.0000000    0.0000000    0.0002189   -0.0000000
    4   -0.0218493   -0.0351395    0.0002189    0.0000000    0.0000000
    5   -0.0000000   -0.0000000   -0.0000000    0.0000000    0.0000000
    6   -0.0007226   -0.0041611   -0.0016885   -0.0091654   -0.0000000
    7    0.0007226    0.0041611    0.0016885   -0.0091654   -0.0000000

                 6            7

    1   -0.0007226    0.0007226
    2   -0.0041611    0.0041611
    3   -0.0016885    0.0016885
    4   -0.0091654   -0.0091654
    5   -0.0000000   -0.0000000
    6   -0.0083179    0.0000000
    7    0.0000000    0.0083179



  ## K 0 (AO) (Symmetry 0) ##
  Irrep: 1

                 1            2            3            4            5

    1    0.0000000   -0.0000000    0.0000000   -0.7565086   -0.0000000
    2    0.0000000   -0.0000000   -0.0000000   -0.1825665   -0.0000000
    3   -0.0000000   -0.0000000   -0.0000000    0.0021297   -0.0000000
    4   -0.0219065   -0.0307480    0.0029341    0.0000000    0.0000000
    5   -0.0000000   -0.0000000   -0.0000000    0.0000000   -0.0000000
    6   -0.0007585   -0.0014055    0.0000152   -0.0303527   -0.0000000
    7    0.0007585    0.0014055   -0.0000152   -0.0303527   -0.0000000

                 6            7

    1    0.0985184   -0.0985184
    2    0.0256558   -0.0256558
    3    0.0022869   -0.0022869
    4   -0.0029082   -0.0029082
    5   -0.0000000    0.0000000
    6    0.0040716   -0.0045368
    7    0.0045368   -0.0040716




 #  #
 Irrep: 1
      1:  0.0000000
      2:  1.0000000
      3:  0.0000000
      4:  0.0000000
      5:  0.0000000
      6:  0.0000000
      7:  0.0000000
      8:  0.0000000
      9:  0.0000000
     10:  0.0000000


 #  #
 Irrep: 1
      1:  0.0000000
      2: 20.0503776
      3:  0.0000000
      4: -0.0471272
      5:  0.0015840
      6: -0.0000000
      7:  0.0000000
      8:  0.0262356
      9:  0.0000000
     10: -0.0000000

  ## Caocc (Symmetry 0) ##
  Irrep: 1

                 1            2            3            4            5

    1   -0.9944346   -0.2391589    0.0000000    0.0936833   -0.0000000
    2   -0.0240970    0.8857356   -0.0000000   -0.4795859    0.0000000
    3   -0.0031615    0.0858962   -0.0000000    0.7474314   -0.0000000
    4    0.0000000    0.0000000    0.6072848    0.0000000    0.0000000
    5    0.0000000    0.0000000   -0.0000000    0.0000000    1.0000000
    6    0.0045937    0.1440396    0.4529977    0.3294712   -0.0000000
    7    0.0045937    0.1440396   -0.4529977    0.3294712   -0.0000000



  ## C_right, h = 0, N = 0 (Symmetry 0) ##
  Irrep: 1

                 1            2            3            4            5

    1   -0.0000000    0.0000000    0.0000000    0.0000000    0.0000000
    2    0.0000000    0.0000000    0.0000000    0.0000000    0.0000000
    3    0.0000000    0.0000000    0.0000000    0.0000000    0.0000000
    4    0.9192343    0.0000000    0.0000000    0.0000000    0.0000000
    5    0.0000000    0.0000000    0.0000000    0.0000000    0.0000000
    6   -0.7324607    0.0000000    0.0000000    0.0000000    0.0000000
    7    0.7324607    0.0000000    0.0000000    0.0000000    0.0000000



   > JK <

  ## Caocc (Symmetry 0) ##
  Irrep: 1

                 1            2            3            4            5

    1   -0.9944346   -0.2391589    0.0000000    0.0936833   -0.0000000
    2   -0.0240970    0.8857356   -0.0000000   -0.4795859    0.0000000
    3   -0.0031615    0.0858962   -0.0000000    0.7474314   -0.0000000
    4    0.0000000    0.0000000    0.6072848    0.0000000    0.0000000
    5    0.0000000    0.0000000   -0.0000000    0.0000000    1.0000000
    6    0.0045937    0.1440396    0.4529977    0.3294712   -0.0000000
    7    0.0045937    0.1440396   -0.4529977    0.3294712   -0.0000000



  ## C_right, h = 0, N = 0 (Symmetry 0) ##
  Irrep: 1

                 1            2            3            4            5

    1    0.0000000   -0.1116399    0.0000000    0.0000000    0.0000000
    2    0.0000000    0.6695791    0.0000000    0.0000000    0.0000000
    3    0.0000000    0.7384886    0.0000000    0.0000000    0.0000000
    4    0.0000000   -0.0000000    0.0000000    0.0000000    0.0000000
    5    0.0000000   -0.0000000    0.0000000    0.0000000    0.0000000
    6    0.0000000   -0.7098495    0.0000000    0.0000000    0.0000000
    7    0.0000000   -0.7098495    0.0000000    0.0000000    0.0000000



  ## D 0 (SO) (Symmetry 0) ##
  Irrep: 1

                 1            2            3            4            5

    1    0.0266997   -0.1601358   -0.1766161    0.0000000    0.0000000
    2   -0.0988835    0.5930700    0.6541056   -0.0000000   -0.0000000
    3   -0.0095894    0.0575143    0.0634334   -0.0000000   -0.0000000
    4   -0.0000000    0.0000000    0.0000000   -0.0000000   -0.0000000
    5   -0.0000000    0.0000000    0.0000000   -0.0000000   -0.0000000
    6   -0.0160806    0.0964459    0.1063716   -0.0000000   -0.0000000
    7   -0.0160806    0.0964459    0.1063716   -0.0000000   -0.0000000

                 6            7

    1    0.1697668    0.1697668
    2   -0.6287390   -0.6287390
    3   -0.0609734   -0.0609734
    4   -0.0000000   -0.0000000
    5   -0.0000000   -0.0000000
    6   -0.1022464   -0.1022464
    7   -0.1022464   -0.1022464



  ## J 0 (AO) (Symmetry 0) ##
  Irrep: 1

                 1            2            3            4            5

    1    0.2690957    0.0573836    0.0180867   -0.0000000   -0.0000000
    2    0.0573836    0.1360569    0.0811758   -0.0000000   -0.0000000
    3    0.0180867    0.0811758    0.1389932   -0.0000000    0.0000000
    4   -0.0000000   -0.0000000   -0.0000000    0.1266895   -0.0000000
    5   -0.0000000   -0.0000000    0.0000000   -0.0000000    0.1422441
    6    0.0098933    0.0395383    0.0331687    0.0173995   -0.0000000
    7    0.0098933    0.0395383    0.0331687   -0.0173995   -0.0000000

                 6            7

    1    0.0098933    0.0098933
    2    0.0395383    0.0395383
    3    0.0331687    0.0331687
    4    0.0173995   -0.0173995
    5   -0.0000000   -0.0000000
    6    0.0129552    0.0116702
    7    0.0116702    0.0129552



  ## K 0 (AO) (Symmetry 0) ##
  Irrep: 1

                 1            2            3            4            5

    1    0.0307020   -0.0012597   -0.0153460    0.0000000    0.0000000
    2   -0.0032533    0.1443102    0.3801971   -0.0000000   -0.0000000
    3    0.0195255    0.1051758    0.0904804    0.0000000   -0.0000000
    4   -0.0000000    0.0000000    0.0000000    0.0239117   -0.0000000
    5   -0.0000000   -0.0000000    0.0000000   -0.0000000    0.0517660
    6    0.0007897    0.0605265    0.1515915   -0.0009288   -0.0000000
    7    0.0007897    0.0605265    0.1515915    0.0009288   -0.0000000

                 6            7

    1    0.0022574    0.0022574
    2   -0.1253364   -0.1253364
    3   -0.0249627   -0.0249627
    4   -0.0337061    0.0337061
    5   -0.0000000   -0.0000000
    6   -0.1283533   -0.0618183
    7   -0.0618183   -0.1283533




 #  #
 Irrep: 1
      1:  0.0000000
      2:  0.0000000
      3:  1.0000000
      4:  0.0000000
      5:  0.0000000
      6:  0.0000000
      7:  0.0000000
      8:  0.0000000
      9:  0.0000000
     10:  0.0000000


 #  #
 Irrep: 1
      1: -0.0270664
      2:  0.0000000
      3:  1.2834848
      4:  0.0000000
      5:  0.0000000
      6:  0.0510498
      7:  0.0719668
      8:  0.0000000
      9: -0.0000000
     10:  0.0000000

  ## Caocc (Symmetry 0) ##
  Irrep: 1

                 1            2            3            4            5

    1   -0.9944346   -0.2391589    0.0000000    0.0936833   -0.0000000
    2   -0.0240970    0.8857356   -0.0000000   -0.4795859    0.0000000
    3   -0.0031615    0.0858962   -0.0000000    0.7474314   -0.0000000
    4    0.0000000    0.0000000    0.6072848    0.0000000    0.0000000
    5    0.0000000    0.0000000   -0.0000000    0.0000000    1.0000000
    6    0.0045937    0.1440396    0.4529977    0.3294712   -0.0000000
    7    0.0045937    0.1440396   -0.4529977    0.3294712   -0.0000000



  ## C_right, h = 0, N = 0 (Symmetry 0) ##
  Irrep: 1

                 1            2            3            4            5

    1    0.0000000   -0.1116399    0.0000000    0.0000000    0.0000000
    2    0.0000000    0.6695791    0.0000000    0.0000000    0.0000000
    3    0.0000000    0.7384886    0.0000000    0.0000000    0.0000000
    4    0.0000000   -0.0000000    0.0000000    0.0000000    0.0000000
    5    0.0000000   -0.0000000    0.0000000    0.0000000    0.0000000
    6    0.0000000   -0.7098495    0.0000000    0.0000000    0.0000000
    7    0.0000000   -0.7098495    0.0000000    0.0000000    0.0000000



   > JK <

  ## Caocc (Symmetry 0) ##
  Irrep: 1

                 1            2            3            4            5

    1   -0.9944346   -0.2391589    0.0000000    0.0936833   -0.0000000
    2   -0.0240970    0.8857356   -0.0000000   -0.4795859    0.0000000
    3   -0.0031615    0.0858962   -0.0000000    0.7474314   -0.0000000
    4    0.0000000    0.0000000    0.6072848    0.0000000    0.0000000
    5    0.0000000    0.0000000   -0.0000000    0.0000000    1.0000000
    6    0.0045937    0.1440396    0.4529977    0.3294712   -0.0000000
    7    0.0045937    0.1440396   -0.4529977    0.3294712   -0.0000000



  ## C_right, h = 0, N = 0 (Symmetry 0) ##
  Irrep: 1

                 1            2            3            4            5

    1    0.0000000   -0.0000000    0.0000000    0.0000000    0.0000000
    2    0.0000000    0.0000000    0.0000000    0.0000000    0.0000000
    3    0.0000000    0.0000000    0.0000000    0.0000000    0.0000000
    4    0.0000000    0.9192343    0.0000000    0.0000000    0.0000000
    5    0.0000000    0.0000000    0.0000000    0.0000000    0.0000000
    6    0.0000000   -0.7324607    0.0000000    0.0000000    0.0000000
    7    0.0000000    0.7324607    0.0000000    0.0000000    0.0000000



  ## D 0 (SO) (Symmetry 0) ##
  Irrep: 1

                 1            2            3            4            5

    1    0.0000000   -0.0000000   -0.0000000   -0.2198430   -0.0000000
    2   -0.0000000    0.0000000    0.0000000    0.8141985    0.0000000
    3   -0.0000000    0.0000000    0.0000000    0.0789587    0.0000000
    4   -0.0000000    0.0000000    0.0000000    0.0000000    0.0000000
    5   -0.0000000    0.0000000    0.0000000    0.0000000    0.0000000
    6   -0.0000000    0.0000000    0.0000000    0.1324061    0.0000000
    7   -0.0000000    0.0000000    0.0000000    0.1324061    0.0000000

                 6            7

    1    0.1751745   -0.1751745
    2   -0.6487665    0.6487665
    3   -0.0629156    0.0629156
    4   -0.0000000    0.0000000
    5   -0.0000000    0.0000000
    6   -0.1055033    0.1055033
    7   -0.1055033    0.1055033



  ## J 0 (AO) (Symmetry 0) ##
  Irrep: 1

                 1            2            3            4            5

    1    0.0000000    0.0000000   -0.0000000    0.0207058    0.0000000
    2    0.0000000    0.0000000   -0.0000000    0.0916008    0.0000000
    3   -0.0000000   -0.0000000    0.0000000   -0.0088408    0.0000000
    4    0.0207058    0.0916008   -0.0088408    0.0000000    0.0000000
    5    0.0000000    0.0000000    0.0000000    0.0000000    0.0000000
    6    0.0008490    0.0085221   -0.0005776    0.0205343    0.0000000
    7   -0.0008490   -0.0085221    0.0005776    0.0205343    0.0000000

                 6            7

    1    0.0008490   -0.0008490
    2    0.0085221   -0.0085221
    3   -0.0005776    0.0005776
    4    0.0205343    0.0205343
    5    0.0000000    0.0000000
    6   -0.0177016    0.0000000
    7    0.0000000    0.0177016



  ## K 0 (AO) (Symmetry 0) ##
  Irrep: 1

                 1            2            3            4            5

    1    0.0000000   -0.0000000    0.0000000   -0.0202263   -0.0000000
    2    0.0000000    0.0000000   -0.0000000    0.4526261    0.0000000
    3    0.0000000    0.0000000    0.0000000    0.0402129    0.0000000
    4    0.0260787    0.1049727   -0.0194914    0.0000000    0.0000000
    5    0.0000000    0.0000000    0.0000000    0.0000000    0.0000000
    6    0.0042205    0.0169130   -0.0072608    0.1719063    0.0000000
    7   -0.0042205   -0.0169130    0.0072608    0.1719063    0.0000000

                 6            7

    1    0.0014521   -0.0014521
    2   -0.1118778    0.1118778
    3   -0.0430279    0.0430279
    4   -0.0129431   -0.0129431
    5   -0.0000000    0.0000000
    6   -0.1157223    0.0560067
    7   -0.0560067    0.1157223




 #  #
 Irrep: 1
      1:  0.0000000
      2:  0.0000000
      3:  0.0000000
      4:  1.0000000
      5:  0.0000000
      6:  0.0000000
      7:  0.0000000
      8:  0.0000000
      9:  0.0000000
     10:  0.0000000


 #  #
 Irrep: 1
      1:  0.0000000
      2: -0.0471272
      3:  0.0000000
      4:  1.3244734
      5: -0.0262007
      6:  0.0000000
      7:  0.0000000
      8: -0.0160485
      9: -0.0000000
     10: -0.0000000

  ## Caocc (Symmetry 0) ##
  Irrep: 1

                 1            2            3            4            5

    1   -0.9944346   -0.2391589    0.0000000    0.0936833   -0.0000000
    2   -0.0240970    0.8857356   -0.0000000   -0.4795859    0.0000000
    3   -0.0031615    0.0858962   -0.0000000    0.7474314   -0.0000000
    4    0.0000000    0.0000000    0.6072848    0.0000000    0.0000000
    5    0.0000000    0.0000000   -0.0000000    0.0000000    1.0000000
    6    0.0045937    0.1440396    0.4529977    0.3294712   -0.0000000
    7    0.0045937    0.1440396   -0.4529977    0.3294712   -0.0000000



  ## C_right, h = 0, N = 0 (Symmetry 0) ##
  Irrep: 1

                 1            2            3            4            5

    1    0.0000000   -0.0000000    0.0000000    0.0000000    0.0000000
    2    0.0000000    0.0000000    0.0000000    0.0000000    0.0000000
    3    0.0000000    0.0000000    0.0000000    0.0000000    0.0000000
    4    0.0000000    0.9192343    0.0000000    0.0000000    0.0000000
    5    0.0000000    0.0000000    0.0000000    0.0000000    0.0000000
    6    0.0000000   -0.7324607    0.0000000    0.0000000    0.0000000
    7    0.0000000    0.7324607    0.0000000    0.0000000    0.0000000



   > JK <

  ## Caocc (Symmetry 0) ##
  Irrep: 1

                 1            2            3            4            5

    1   -0.9944346   -0.2391589    0.0000000    0.0936833   -0.0000000
    2   -0.0240970    0.8857356   -0.0000000   -0.4795859    0.0000000
    3   -0.0031615    0.0858962   -0.0000000    0.7474314   -0.0000000
    4    0.0000000    0.0000000    0.6072848    0.0000000    0.0000000
    5    0.0000000    0.0000000   -0.0000000    0.0000000    1.0000000
    6    0.0045937    0.1440396    0.4529977    0.3294712   -0.0000000
    7    0.0045937    0.1440396   -0.4529977    0.3294712   -0.0000000



  ## C_right, h = 0, N = 0 (Symmetry 0) ##
  Irrep: 1

                 1            2            3            4            5

    1    0.0000000    0.0000000   -0.1116399    0.0000000    0.0000000
    2    0.0000000    0.0000000    0.6695791    0.0000000    0.0000000
    3    0.0000000    0.0000000    0.7384886    0.0000000    0.0000000
    4    0.0000000    0.0000000   -0.0000000    0.0000000    0.0000000
    5    0.0000000    0.0000000   -0.0000000    0.0000000    0.0000000
    6    0.0000000    0.0000000   -0.7098495    0.0000000    0.0000000
    7    0.0000000    0.0000000   -0.7098495    0.0000000    0.0000000



  ## D 0 (SO) (Symmetry 0) ##
  Irrep: 1

                 1            2            3            4            5

    1   -0.0000000    0.0000000    0.0000000   -0.0000000   -0.0000000
    2    0.0000000   -0.0000000   -0.0000000    0.0000000    0.0000000
    3    0.0000000   -0.0000000   -0.0000000    0.0000000    0.0000000
    4   -0.0677972    0.4066252    0.4484729   -0.0000000   -0.0000000
    5    0.0000000   -0.0000000   -0.0000000    0.0000000    0.0000000
    6   -0.0505726    0.3033178    0.3345337   -0.0000000   -0.0000000
    7    0.0505726   -0.3033178   -0.3345337    0.0000000    0.0000000

                 6            7

    1   -0.0000000   -0.0000000
    2    0.0000000    0.0000000
    3    0.0000000    0.0000000
    4   -0.4310808   -0.4310808
    5    0.0000000    0.0000000
    6   -0.3215602   -0.3215602
    7    0.3215602    0.3215602



  ## J 0 (AO) (Symmetry 0) ##
  Irrep: 1

                 1            2            3            4            5

    1   -0.0000000   -0.0000000   -0.0000000    0.0038847   -0.0000000
    2   -0.0000000   -0.0000000   -0.0000000   -0.0106441   -0.0000000
    3   -0.0000000   -0.0000000   -0.0000000    0.0072533   -0.0000000
    4    0.0038847   -0.0106441    0.0072533   -0.0000000   -0.0000000
    5   -0.0000000   -0.0000000   -0.0000000   -0.0000000   -0.0000000
    6    0.0001938   -0.0148159   -0.0111704   -0.0218084   -0.0000000
    7   -0.0001938    0.0148159    0.0111704   -0.0218084   -0.0000000

                 6            7

    1    0.0001938   -0.0001938
    2   -0.0148159    0.0148159
    3   -0.0111704    0.0111704
    4   -0.0218084   -0.0218084
    5   -0.0000000   -0.0000000
    6   -0.1150758    0.0000000
    7    0.0000000    0.1150758



  ## K 0 (AO) (Symmetry 0) ##
  Irrep: 1

                 1            2            3            4            5

    1   -0.0000000   -0.0000000    0.0000000    0.0057893   -0.0000000
    2   -0.0000000   -0.0000000   -0.0000000    0.0171146   -0.0000000
    3   -0.0000000   -0.0000000   -0.0000000    0.0150431   -0.0000000
    4   -0.0075059    0.1141381    0.3126926   -0.0000000   -0.0000000
    5    0.0000000   -0.0000000   -0.0000000   -0.0000000   -0.0000000
    6   -0.0000475    0.0393987    0.1156980   -0.0048143   -0.0000000
    7    0.0000475   -0.0393987   -0.1156980   -0.0048143    0.0000000

                 6            7

    1   -0.0010829    0.0010829
    2   -0.0334224    0.0334224
    3   -0.0163918    0.0163918
    4   -0.1286104   -0.1286104
    5    0.0000000    0.0000000
    6   -0.1859028   -0.0480447
    7    0.0480447    0.1859028




 #  #
 Irrep: 1
      1:  0.0000000
      2:  0.0000000
      3:  0.0000000
      4:  0.0000000
      5:  1.0000000
      6:  0.0000000
      7:  0.0000000
      8:  0.0000000
      9:  0.0000000
     10:  0.0000000


 #  #
 Irrep: 1
      1: -0.0000000
      2:  0.0015840
      3:  0.0000000
      4: -0.0262007
      5:  0.6257548
      6: -0.0000000
      7: -0.0000000
      8:  0.0467487
      9:  0.0000000
     10: -0.0000000

  ## Caocc (Symmetry 0) ##
  Irrep: 1

                 1            2            3            4            5

    1   -0.9944346   -0.2391589    0.0000000    0.0936833   -0.0000000
    2   -0.0240970    0.8857356   -0.0000000   -0.4795859    0.0000000
    3   -0.0031615    0.0858962   -0.0000000    0.7474314   -0.0000000
    4    0.0000000    0.0000000    0.6072848    0.0000000    0.0000000
    5    0.0000000    0.0000000   -0.0000000    0.0000000    1.0000000
    6    0.0045937    0.1440396    0.4529977    0.3294712   -0.0000000
    7    0.0045937    0.1440396   -0.4529977    0.3294712   -0.0000000



  ## C_right, h = 0, N = 0 (Symmetry 0) ##
  Irrep: 1

                 1            2            3            4            5

    1    0.0000000    0.0000000   -0.1116399    0.0000000    0.0000000
    2    0.0000000    0.0000000    0.6695791    0.0000000    0.0000000
    3    0.0000000    0.0000000    0.7384886    0.0000000    0.0000000
    4    0.0000000    0.0000000   -0.0000000    0.0000000    0.0000000
    5    0.0000000    0.0000000   -0.0000000    0.0000000    0.0000000
    6    0.0000000    0.0000000   -0.7098495    0.0000000    0.0000000
    7    0.0000000    0.0000000   -0.7098495    0.0000000    0.0000000



   > JK <

  ## Caocc (Symmetry 0) ##
  Irrep: 1

                 1            2            3            4            5

    1   -0.9944346   -0.2391589    0.0000000    0.0936833   -0.0000000
    2   -0.0240970    0.8857356   -0.0000000   -0.4795859    0.0000000
    3   -0.0031615    0.0858962   -0.0000000    0.7474314   -0.0000000
    4    0.0000000    0.0000000    0.6072848    0.0000000    0.0000000
    5    0.0000000    0.0000000   -0.0000000    0.0000000    1.0000000
    6    0.0045937    0.1440396    0.4529977    0.3294712   -0.0000000
    7    0.0045937    0.1440396   -0.4529977    0.3294712   -0.0000000



  ## C_right, h = 0, N = 0 (Symmetry 0) ##
  Irrep: 1

                 1            2            3            4            5

    1    0.0000000    0.0000000   -0.0000000    0.0000000    0.0000000
    2    0.0000000    0.0000000    0.0000000    0.0000000    0.0000000
    3    0.0000000    0.0000000    0.0000000    0.0000000    0.0000000
    4    0.0000000    0.0000000    0.9192343    0.0000000    0.0000000
    5    0.0000000    0.0000000    0.0000000    0.0000000    0.0000000
    6    0.0000000    0.0000000   -0.7324607    0.0000000    0.0000000
    7    0.0000000    0.0000000    0.7324607    0.0000000    0.0000000



  ## D 0 (SO) (Symmetry 0) ##
  Irrep: 1

                 1            2            3            4            5

    1   -0.0000000    0.0000000    0.0000000    0.0000000    0.0000000
    2    0.0000000   -0.0000000   -0.0000000   -0.0000000   -0.0000000
    3    0.0000000   -0.0000000   -0.0000000   -0.0000000   -0.0000000
    4   -0.0000000    0.0000000    0.0000000    0.5582370    0.0000000
    5    0.0000000   -0.0000000   -0.0000000   -0.0000000   -0.0000000
    6   -0.0000000    0.0000000    0.0000000    0.4164111    0.0000000
    7    0.0000000   -0.0000000   -0.0000000   -0.4164111   -0.0000000

                 6            7

    1   -0.0000000    0.0000000
    2    0.0000000   -0.0000000
    3    0.0000000   -0.0000000
    4   -0.4448122    0.4448122
    5    0.0000000   -0.0000000
    6   -0.3318030    0.3318030
    7    0.3318030   -0.3318030



  ## J 0 (AO) (Symmetry 0) ##
  Irrep: 1

                 1            2            3            4            5

    1    0.3703406    0.0835382   -0.0031251    0.0000000   -0.0000000
    2    0.0835382    0.2089005   -0.0358505    0.0000000   -0.0000000
    3   -0.0031251   -0.0358505    0.1916380   -0.0000000   -0.0000000
    4    0.0000000    0.0000000   -0.0000000    0.2332172   -0.0000000
    5   -0.0000000   -0.0000000   -0.0000000   -0.0000000    0.2019583
    6    0.0134627    0.0400580   -0.0000583    0.0194291   -0.0000000
    7    0.0134627    0.0400580   -0.0000583   -0.0194291    0.0000000

                 6            7

    1    0.0134627    0.0134627
    2    0.0400580    0.0400580
    3   -0.0000583   -0.0000583
    4    0.0194291   -0.0194291
    5   -0.0000000    0.0000000
    6   -0.0424991    0.0032539
    7    0.0032539   -0.0424991



  ## K 0 (AO) (Symmetry 0) ##
  Irrep: 1

                 1            2            3            4            5

    1    0.0135807    0.0182761   -0.0015699    0.0000000   -0.0000000
    2    0.0230956    0.0849104   -0.0179086   -0.0000000   -0.0000000
    3    0.0012257   -0.0019925    0.0175729   -0.0000000   -0.0000000
    4   -0.0000000    0.0000000   -0.0000000    0.4228442    0.0000000
    5   -0.0000000   -0.0000000    0.0000000   -0.0000000    0.0238876
    6    0.0081471    0.0291771   -0.0154045    0.1384195    0.0000000
    7    0.0081471    0.0291771   -0.0154045   -0.1384195   -0.0000000

                 6            7

    1    0.0018693    0.0018693
    2   -0.0166535   -0.0166535
    3   -0.0185493   -0.0185493
    4   -0.1076771    0.1076771
    5    0.0000000   -0.0000000
    6   -0.1655355    0.0397351
    7    0.0397351   -0.1655355




 #  #
 Irrep: 1
      1:  0.0000000
      2:  0.0000000
      3:  0.0000000
      4:  0.0000000
      5:  0.0000000
      6:  1.0000000
      7:  0.0000000
      8:  0.0000000
      9:  0.0000000
     10:  0.0000000


 #  #
 Irrep: 1
      1:  0.0192010
      2: -0.0000000
      3:  0.0510498
      4:  0.0000000
      5: -0.0000000
      6:  0.8716646
      7:  0.1382612
      8:  0.0000000
      9: -0.0000000
     10:  0.0000000

  ## Caocc (Symmetry 0) ##
  Irrep: 1

                 1            2            3            4            5

    1   -0.9944346   -0.2391589    0.0000000    0.0936833   -0.0000000
    2   -0.0240970    0.8857356   -0.0000000   -0.4795859    0.0000000
    3   -0.0031615    0.0858962   -0.0000000    0.7474314   -0.0000000
    4    0.0000000    0.0000000    0.6072848    0.0000000    0.0000000
    5    0.0000000    0.0000000   -0.0000000    0.0000000    1.0000000
    6    0.0045937    0.1440396    0.4529977    0.3294712   -0.0000000
    7    0.0045937    0.1440396   -0.4529977    0.3294712   -0.0000000



  ## C_right, h = 0, N = 0 (Symmetry 0) ##
  Irrep: 1

                 1            2            3            4            5

    1    0.0000000    0.0000000   -0.0000000    0.0000000    0.0000000
    2    0.0000000    0.0000000    0.0000000    0.0000000    0.0000000
    3    0.0000000    0.0000000    0.0000000    0.0000000    0.0000000
    4    0.0000000    0.0000000    0.9192343    0.0000000    0.0000000
    5    0.0000000    0.0000000    0.0000000    0.0000000    0.0000000
    6    0.0000000    0.0000000   -0.7324607    0.0000000    0.0000000
    7    0.0000000    0.0000000    0.7324607    0.0000000    0.0000000



   > JK <

  ## Caocc (Symmetry 0) ##
  Irrep: 1

                 1            2            3            4            5

    1   -0.9944346   -0.2391589    0.0000000    0.0936833   -0.0000000
    2   -0.0240970    0.8857356   -0.0000000   -0.4795859    0.0000000
    3   -0.0031615    0.0858962   -0.0000000    0.7474314   -0.0000000
    4    0.0000000    0.0000000    0.6072848    0.0000000    0.0000000
    5    0.0000000    0.0000000   -0.0000000    0.0000000    1.0000000
    6    0.0045937    0.1440396    0.4529977    0.3294712   -0.0000000
    7    0.0045937    0.1440396   -0.4529977    0.3294712   -0.0000000



  ## C_right, h = 0, N = 0 (Symmetry 0) ##
  Irrep: 1

                 1            2            3            4            5

    1    0.0000000    0.0000000    0.0000000   -0.1116399    0.0000000
    2    0.0000000    0.0000000    0.0000000    0.6695791    0.0000000
    3    0.0000000    0.0000000    0.0000000    0.7384886    0.0000000
    4    0.0000000    0.0000000    0.0000000   -0.0000000    0.0000000
    5    0.0000000    0.0000000    0.0000000   -0.0000000    0.0000000
    6    0.0000000    0.0000000    0.0000000   -0.7098495    0.0000000
    7    0.0000000    0.0000000    0.0000000   -0.7098495    0.0000000



  ## D 0 (SO) (Symmetry 0) ##
  Irrep: 1

                 1            2            3            4            5

    1   -0.0104588    0.0627283    0.0691840   -0.0000000   -0.0000000
    2    0.0535409   -0.3211207   -0.3541687    0.0000000    0.0000000
    3   -0.0834432    0.5004644    0.5519696   -0.0000000   -0.0000000
    4   -0.0000000    0.0000000    0.0000000   -0.0000000   -0.0000000
    5   -0.0000000    0.0000000    0.0000000   -0.0000000   -0.0000000
    6   -0.0367821    0.2206070    0.2433107   -0.0000000   -0.0000000
    7   -0.0367821    0.2206070    0.2433107   -0.0000000   -0.0000000

                 6            7

    1   -0.0665010   -0.0665010
    2    0.3404338    0.3404338
    3   -0.5305638   -0.5305638
    4   -0.0000000   -0.0000000
    5   -0.0000000   -0.0000000
    6   -0.2338749   -0.2338749
    7   -0.2338749   -0.2338749



  ## J 0 (AO) (Symmetry 0) ##
  Irrep: 1

                 1            2            3            4            5

    1    0.2670810    0.0615340   -0.0000030    0.0000000    0.0000000
    2    0.0615340    0.1573459   -0.0173403    0.0000000    0.0000000
    3   -0.0000030   -0.0173403    0.1863571    0.0000000    0.0000000
    4    0.0000000    0.0000000    0.0000000    0.1382906   -0.0000000
    5    0.0000000    0.0000000    0.0000000   -0.0000000    0.1475937
    6    0.0099624    0.0309180    0.0066584    0.0105358    0.0000000
    7    0.0099624    0.0309180    0.0066584   -0.0105358    0.0000000

                 6            7

    1    0.0099624    0.0099624
    2    0.0309180    0.0309180
    3    0.0066584    0.0066584
    4    0.0105358   -0.0105358
    5    0.0000000    0.0000000
    6   -0.0310188    0.0040817
    7    0.0040817   -0.0310188



  ## K 0 (AO) (Symmetry 0) ##
  Irrep: 1

                 1            2            3            4            5

    1    0.0018063    0.0186999    0.0131068    0.0000000    0.0000000
    2    0.0228745    0.0386169   -0.0755085    0.0000000    0.0000000
    3   -0.0165652    0.0979512    0.3731374   -0.0000000   -0.0000000
    4   -0.0000000    0.0000000    0.0000000    0.0078591   -0.0000000
    5   -0.0000000    0.0000000    0.0000000   -0.0000000    0.0051145
    6    0.0039743    0.0382611    0.0753514   -0.0048200    0.0000000
    7    0.0039743    0.0382611    0.0753514    0.0048200    0.0000000

                 6            7

    1    0.0016316    0.0016316
    2    0.0159815    0.0159815
    3   -0.1189393   -0.1189393
    4   -0.0091095    0.0091095
    5   -0.0000000   -0.0000000
    6   -0.1251603   -0.0452207
    7   -0.0452207   -0.1251603




 #  #
 Irrep: 1
      1:  0.0000000
      2:  0.0000000
      3:  0.0000000
      4:  0.0000000
      5:  0.0000000
      6:  0.0000000
      7:  1.0000000
      8:  0.0000000
      9:  0.0000000
     10:  0.0000000


 #  #
 Irrep: 1
      1:  0.0215503
      2:  0.0000000
      3:  0.0719668
      4:  0.0000000
      5: -0.0000000
      6:  0.1382612
      7:  0.5614679
      8:  0.0000000
      9: -0.0000000
     10:  0.0000000

  ## Caocc (Symmetry 0) ##
  Irrep: 1

                 1            2            3            4            5

    1   -0.9944346   -0.2391589    0.0000000    0.0936833   -0.0000000
    2   -0.0240970    0.8857356   -0.0000000   -0.4795859    0.0000000
    3   -0.0031615    0.0858962   -0.0000000    0.7474314   -0.0000000
    4    0.0000000    0.0000000    0.6072848    0.0000000    0.0000000
    5    0.0000000    0.0000000   -0.0000000    0.0000000    1.0000000
    6    0.0045937    0.1440396    0.4529977    0.3294712   -0.0000000
    7    0.0045937    0.1440396   -0.4529977    0.3294712   -0.0000000



  ## C_right, h = 0, N = 0 (Symmetry 0) ##
  Irrep: 1

                 1            2            3            4            5

    1    0.0000000    0.0000000    0.0000000   -0.1116399    0.0000000
    2    0.0000000    0.0000000    0.0000000    0.6695791    0.0000000
    3    0.0000000    0.0000000    0.0000000    0.7384886    0.0000000
    4    0.0000000    0.0000000    0.0000000   -0.0000000    0.0000000
    5    0.0000000    0.0000000    0.0000000   -0.0000000    0.0000000
    6    0.0000000    0.0000000    0.0000000   -0.7098495    0.0000000
    7    0.0000000    0.0000000    0.0000000   -0.7098495    0.0000000



   > JK <

  ## Caocc (Symmetry 0) ##
  Irrep: 1

                 1            2            3            4            5

    1   -0.9944346   -0.2391589    0.0000000    0.0936833   -0.0000000
    2   -0.0240970    0.8857356   -0.0000000   -0.4795859    0.0000000
    3   -0.0031615    0.0858962   -0.0000000    0.7474314   -0.0000000
    4    0.0000000    0.0000000    0.6072848    0.0000000    0.0000000
    5    0.0000000    0.0000000   -0.0000000    0.0000000    1.0000000
    6    0.0045937    0.1440396    0.4529977    0.3294712   -0.0000000
    7    0.0045937    0.1440396   -0.4529977    0.3294712   -0.0000000



  ## C_right, h = 0, N = 0 (Symmetry 0) ##
  Irrep: 1

                 1            2            3            4            5

    1    0.0000000    0.0000000    0.0000000   -0.0000000    0.0000000
    2    0.0000000    0.0000000    0.0000000    0.0000000    0.0000000
    3    0.0000000    0.0000000    0.0000000    0.0000000    0.0000000
    4    0.0000000    0.0000000    0.0000000    0.9192343    0.0000000
    5    0.0000000    0.0000000    0.0000000    0.0000000    0.0000000
    6    0.0000000    0.0000000    0.0000000   -0.7324607    0.0000000
    7    0.0000000    0.0000000    0.0000000    0.7324607    0.0000000



  ## D 0 (SO) (Symmetry 0) ##
  Irrep: 1

                 1            2            3            4            5

    1   -0.0000000    0.0000000    0.0000000    0.0861169    0.0000000
    2    0.0000000   -0.0000000   -0.0000000   -0.4408518   -0.0000000
    3   -0.0000000    0.0000000    0.0000000    0.6870646    0.0000000
    4   -0.0000000    0.0000000    0.0000000    0.0000000    0.0000000
    5   -0.0000000    0.0000000    0.0000000    0.0000000    0.0000000
    6   -0.0000000    0.0000000    0.0000000    0.3028612    0.0000000
    7   -0.0000000    0.0000000    0.0000000    0.3028612    0.0000000

                 6            7

    1   -0.0686193    0.0686193
    2    0.3512778   -0.3512778
    3   -0.5474641    0.5474641
    4   -0.0000000    0.0000000
    5   -0.0000000    0.0000000
    6   -0.2413247    0.2413247
    7   -0.2413247    0.2413247



  ## J 0 (AO) (Symmetry 0) ##
  Irrep: 1

                 1            2            3            4            5

    1    0.0000000    0.0000000    0.0000000   -0.0116233   -0.0000000
    2    0.0000000    0.0000000    0.0000000   -0.0741168   -0.0000000
    3    0.0000000    0.0000000    0.0000000    0.0194109    0.0000000
    4   -0.0116233   -0.0741168    0.0194109    0.0000000    0.0000000
    5   -0.0000000   -0.0000000    0.0000000    0.0000000    0.0000000
    6   -0.0004147   -0.0197652   -0.0108234   -0.0340072    0.0000000
    7    0.0004147    0.0197652    0.0108234   -0.0340072   -0.0000000

                 6            7

    1   -0.0004147    0.0004147
    2   -0.0197652    0.0197652
    3   -0.0108234    0.0108234
    4   -0.0340072   -0.0340072
    5    0.0000000   -0.0000000
    6   -0.1005282    0.0000000
    7    0.0000000    0.1005282



  ## K 0 (AO) (Symmetry 0) ##
  Irrep: 1

                 1            2            3            4            5

    1    0.0000000    0.0000000    0.0000000    0.0046014    0.0000000
    2    0.0000000   -0.0000000    0.0000000   -0.1468756   -0.0000000
    3    0.0000000    0.0000000   -0.0000000    0.4168927    0.0000000
    4   -0.0082937   -0.0386987    0.0274425    0.0000000    0.0000000
    5   -0.0000000   -0.0000000    0.0000000    0.0000000   -0.0000000
    6    0.0016746    0.0024595   -0.0057836    0.0685530    0.0000000
    7   -0.0016746   -0.0024595    0.0057836    0.0685530    0.0000000

                 6            7

    1   -0.0017971    0.0017971
    2   -0.0039339    0.0039339
    3   -0.1027314    0.1027314
    4   -0.0178130   -0.0178130
    5   -0.0000000    0.0000000
    6   -0.1201854    0.0399809
    7   -0.0399809    0.1201854




 #  #
 Irrep: 1
      1:  0.0000000
      2:  0.0000000
      3:  0.0000000
      4:  0.0000000
      5:  0.0000000
      6:  0.0000000
      7:  0.0000000
      8:  1.0000000
      9:  0.0000000
     10:  0.0000000


 #  #
 Irrep: 1
      1:  0.0000000
      2:  0.0262356
      3:  0.0000000
      4: -0.0160485
      5:  0.0467487
      6: -0.0000000
      7:  0.0000000
      8:  0.5861985
      9:  0.0000000
     10: -0.0000000

  ## Caocc (Symmetry 0) ##
  Irrep: 1

                 1            2            3            4            5

    1   -0.9944346   -0.2391589    0.0000000    0.0936833   -0.0000000
    2   -0.0240970    0.8857356   -0.0000000   -0.4795859    0.0000000
    3   -0.0031615    0.0858962   -0.0000000    0.7474314   -0.0000000
    4    0.0000000    0.0000000    0.6072848    0.0000000    0.0000000
    5    0.0000000    0.0000000   -0.0000000    0.0000000    1.0000000
    6    0.0045937    0.1440396    0.4529977    0.3294712   -0.0000000
    7    0.0045937    0.1440396   -0.4529977    0.3294712   -0.0000000



  ## C_right, h = 0, N = 0 (Symmetry 0) ##
  Irrep: 1

                 1            2            3            4            5

    1    0.0000000    0.0000000    0.0000000   -0.0000000    0.0000000
    2    0.0000000    0.0000000    0.0000000    0.0000000    0.0000000
    3    0.0000000    0.0000000    0.0000000    0.0000000    0.0000000
    4    0.0000000    0.0000000    0.0000000    0.9192343    0.0000000
    5    0.0000000    0.0000000    0.0000000    0.0000000    0.0000000
    6    0.0000000    0.0000000    0.0000000   -0.7324607    0.0000000
    7    0.0000000    0.0000000    0.0000000    0.7324607    0.0000000



   > JK <

  ## Caocc (Symmetry 0) ##
  Irrep: 1

                 1            2            3            4            5

    1   -0.9944346   -0.2391589    0.0000000    0.0936833   -0.0000000
    2   -0.0240970    0.8857356   -0.0000000   -0.4795859    0.0000000
    3   -0.0031615    0.0858962   -0.0000000    0.7474314   -0.0000000
    4    0.0000000    0.0000000    0.6072848    0.0000000    0.0000000
    5    0.0000000    0.0000000   -0.0000000    0.0000000    1.0000000
    6    0.0045937    0.1440396    0.4529977    0.3294712   -0.0000000
    7    0.0045937    0.1440396   -0.4529977    0.3294712   -0.0000000



  ## C_right, h = 0, N = 0 (Symmetry 0) ##
  Irrep: 1

                 1            2            3            4            5

    1    0.0000000    0.0000000    0.0000000    0.0000000   -0.1116399
    2    0.0000000    0.0000000    0.0000000    0.0000000    0.6695791
    3    0.0000000    0.0000000    0.0000000    0.0000000    0.7384886
    4    0.0000000    0.0000000    0.0000000    0.0000000   -0.0000000
    5    0.0000000    0.0000000    0.0000000    0.0000000   -0.0000000
    6    0.0000000    0.0000000    0.0000000    0.0000000   -0.7098495
    7    0.0000000    0.0000000    0.0000000    0.0000000   -0.7098495



  ## D 0 (SO) (Symmetry 0) ##
  Irrep: 1

                 1            2            3            4            5

    1    0.0000000   -0.0000000   -0.0000000    0.0000000    0.0000000
    2   -0.0000000    0.0000000    0.0000000   -0.0000000   -0.0000000
    3    0.0000000   -0.0000000   -0.0000000    0.0000000    0.0000000
    4   -0.0000000    0.0000000    0.0000000   -0.0000000   -0.0000000
    5   -0.1116399    0.6695791    0.7384886   -0.0000000   -0.0000000
    6    0.0000000   -0.0000000   -0.0000000    0.0000000    0.0000000
    7    0.0000000   -0.0000000   -0.0000000    0.0000000    0.0000000

                 6            7

    1    0.0000000    0.0000000
    2   -0.0000000   -0.0000000
    3    0.0000000    0.0000000
    4   -0.0000000   -0.0000000
    5   -0.7098495   -0.7098495
    6    0.0000000    0.0000000
    7    0.0000000    0.0000000



  ## J 0 (AO) (Symmetry 0) ##
  Irrep: 1

                 1            2            3            4            5

    1   -0.0000000   -0.0000000    0.0000000    0.0000000    0.0120613
    2   -0.0000000   -0.0000000    0.0000000   -0.0000000    0.0543191
    3    0.0000000    0.0000000   -0.0000000   -0.0000000    0.0273710
    4    0.0000000   -0.0000000   -0.0000000   -0.0000000   -0.0000000
    5    0.0120613    0.0543191    0.0273710   -0.0000000   -0.0000000
    6   -0.0000000   -0.0000000   -0.0000000   -0.0000000    0.0145344
    7   -0.0000000   -0.0000000   -0.0000000    0.0000000    0.0145344

                 6            7

    1   -0.0000000   -0.0000000
    2   -0.0000000   -0.0000000
    3   -0.0000000   -0.0000000
    4   -0.0000000    0.0000000
    5    0.0145344    0.0145344
    6    0.0000000   -0.0000000
    7   -0.0000000    0.0000000



  ## K 0 (AO) (Symmetry 0) ##
  Irrep: 1

                 1            2            3            4            5

    1   -0.0000000   -0.0000000   -0.0000000    0.0000000    0.0120613
    2   -0.0000000   -0.0000000    0.0000000    0.0000000    0.0543191
    3    0.0000000   -0.0000000   -0.0000000    0.0000000    0.0273710
    4   -0.0000000    0.0000000    0.0000000   -0.0000000   -0.0000000
    5   -0.0116592    0.1572975    0.4062443   -0.0000000   -0.0000000
    6   -0.0000000   -0.0000000   -0.0000000    0.0000000    0.0145344
    7   -0.0000000   -0.0000000   -0.0000000   -0.0000000    0.0145344

                 6            7

    1   -0.0000000   -0.0000000
    2   -0.0000000   -0.0000000
    3    0.0000000    0.0000000
    4   -0.0000000   -0.0000000
    5   -0.1206723   -0.1206723
    6    0.0000000    0.0000000
    7    0.0000000    0.0000000




 #  #
 Irrep: 1
      1:  0.0000000
      2:  0.0000000
      3:  0.0000000
      4:  0.0000000
      5:  0.0000000
      6:  0.0000000
      7:  0.0000000
      8:  0.0000000
      9:  1.0000000
     10:  0.0000000


 #  #
 Irrep: 1
      1: -0.0000000
      2:  0.0000000
      3: -0.0000000
      4: -0.0000000
      5:  0.0000000
      6: -0.0000000
      7: -0.0000000
      8:  0.0000000
      9:  0.3564617
     10:  0.0000000

  ## Caocc (Symmetry 0) ##
  Irrep: 1

                 1            2            3            4            5

    1   -0.9944346   -0.2391589    0.0000000    0.0936833   -0.0000000
    2   -0.0240970    0.8857356   -0.0000000   -0.4795859    0.0000000
    3   -0.0031615    0.0858962   -0.0000000    0.7474314   -0.0000000
    4    0.0000000    0.0000000    0.6072848    0.0000000    0.0000000
    5    0.0000000    0.0000000   -0.0000000    0.0000000    1.0000000
    6    0.0045937    0.1440396    0.4529977    0.3294712   -0.0000000
    7    0.0045937    0.1440396   -0.4529977    0.3294712   -0.0000000



  ## C_right, h = 0, N = 0 (Symmetry 0) ##
  Irrep: 1

                 1            2            3            4            5

    1    0.0000000    0.0000000    0.0000000    0.0000000   -0.1116399
    2    0.0000000    0.0000000    0.0000000    0.0000000    0.6695791
    3    0.0000000    0.0000000    0.0000000    0.0000000    0.7384886
    4    0.0000000    0.0000000    0.0000000    0.0000000   -0.0000000
    5    0.0000000    0.0000000    0.0000000    0.0000000   -0.0000000
    6    0.0000000    0.0000000    0.0000000    0.0000000   -0.7098495
    7    0.0000000    0.0000000    0.0000000    0.0000000   -0.7098495



   > JK <

  ## Caocc (Symmetry 0) ##
  Irrep: 1

                 1            2            3            4            5

    1   -0.9944346   -0.2391589    0.0000000    0.0936833   -0.0000000
    2   -0.0240970    0.8857356   -0.0000000   -0.4795859    0.0000000
    3   -0.0031615    0.0858962   -0.0000000    0.7474314   -0.0000000
    4    0.0000000    0.0000000    0.6072848    0.0000000    0.0000000
    5    0.0000000    0.0000000   -0.0000000    0.0000000    1.0000000
    6    0.0045937    0.1440396    0.4529977    0.3294712   -0.0000000
    7    0.0045937    0.1440396   -0.4529977    0.3294712   -0.0000000



  ## C_right, h = 0, N = 0 (Symmetry 0) ##
  Irrep: 1

                 1            2            3            4            5

    1    0.0000000    0.0000000    0.0000000    0.0000000   -0.0000000
    2    0.0000000    0.0000000    0.0000000    0.0000000    0.0000000
    3    0.0000000    0.0000000    0.0000000    0.0000000    0.0000000
    4    0.0000000    0.0000000    0.0000000    0.0000000    0.9192343
    5    0.0000000    0.0000000    0.0000000    0.0000000    0.0000000
    6    0.0000000    0.0000000    0.0000000    0.0000000   -0.7324607
    7    0.0000000    0.0000000    0.0000000    0.0000000    0.7324607



  ## D 0 (SO) (Symmetry 0) ##
  Irrep: 1

                 1            2            3            4            5

    1    0.0000000   -0.0000000   -0.0000000   -0.0000000   -0.0000000
    2   -0.0000000    0.0000000    0.0000000    0.0000000    0.0000000
    3    0.0000000   -0.0000000   -0.0000000   -0.0000000   -0.0000000
    4   -0.0000000    0.0000000    0.0000000    0.0000000    0.0000000
    5   -0.0000000    0.0000000    0.0000000    0.9192343    0.0000000
    6    0.0000000   -0.0000000   -0.0000000   -0.0000000   -0.0000000
    7    0.0000000   -0.0000000   -0.0000000   -0.0000000   -0.0000000

                 6            7

    1    0.0000000   -0.0000000
    2   -0.0000000    0.0000000
    3    0.0000000   -0.0000000
    4   -0.0000000    0.0000000
    5   -0.7324607    0.7324607
    6    0.0000000   -0.0000000
    7    0.0000000   -0.0000000



  ## J 0 (AO) (Symmetry 0) ##
  Irrep: 1

                 1            2            3            4            5

    1    0.0000000    0.0000000   -0.0000000    0.0000000    0.0000000
    2    0.0000000    0.0000000   -0.0000000    0.0000000    0.0000000
    3   -0.0000000   -0.0000000    0.0000000   -0.0000000   -0.0000000
    4    0.0000000    0.0000000   -0.0000000    0.0000000    0.0334878
    5    0.0000000    0.0000000   -0.0000000    0.0334878    0.0000000
    6    0.0000000    0.0000000    0.0000000    0.0000000    0.0039195
    7    0.0000000   -0.0000000   -0.0000000    0.0000000   -0.0039195

                 6            7

    1    0.0000000    0.0000000
    2    0.0000000   -0.0000000
    3    0.0000000   -0.0000000
    4    0.0000000    0.0000000
    5    0.0039195   -0.0039195
    6    0.0000000    0.0000000
    7    0.0000000   -0.0000000



  ## K 0 (AO) (Symmetry 0) ##
  Irrep: 1

                 1            2            3            4            5

    1    0.0000000    0.0000000   -0.0000000   -0.0000000    0.0000000
    2    0.0000000    0.0000000   -0.0000000    0.0000000    0.0000000
    3    0.0000000    0.0000000    0.0000000   -0.0000000   -0.0000000
    4    0.0000000    0.0000000   -0.0000000    0.0000000    0.0334878
    5    0.0000000    0.0000000   -0.0000000    0.4924808    0.0000000
    6   -0.0000000    0.0000000    0.0000000   -0.0000000    0.0039195
    7    0.0000000    0.0000000   -0.0000000   -0.0000000   -0.0039195

                 6            7

    1    0.0000000   -0.0000000
    2    0.0000000   -0.0000000
    3    0.0000000   -0.0000000
    4    0.0000000    0.0000000
    5   -0.1071947    0.1071947
    6    0.0000000   -0.0000000
    7    0.0000000   -0.0000000




 #  #
 Irrep: 1
      1:  0.0000000
      2:  0.0000000
      3:  0.0000000
      4:  0.0000000
      5:  0.0000000
      6:  0.0000000
      7:  0.0000000
      8:  0.0000000
      9:  0.0000000
     10:  1.0000000


 #  #
 Irrep: 1
      1:  0.0000000
      2: -0.0000000
      3:  0.0000000
      4: -0.0000000
      5: -0.0000000
      6:  0.0000000
      7:  0.0000000
      8: -0.0000000
      9:  0.0000000
     10:  0.4160717

  ## Caocc (Symmetry 0) ##
  Irrep: 1

                 1            2            3            4            5

    1   -0.9944346   -0.2391589    0.0000000    0.0936833   -0.0000000
    2   -0.0240970    0.8857356   -0.0000000   -0.4795859    0.0000000
    3   -0.0031615    0.0858962   -0.0000000    0.7474314   -0.0000000
    4    0.0000000    0.0000000    0.6072848    0.0000000    0.0000000
[...]

    1   -0.0032757   -0.0111595   -0.0424602    0.0000000    0.0000000
    2    0.0146069   -0.1003124   -0.3649505   -0.0000000    0.0000000
    3   -0.0187420   -0.0982800   -0.0756171   -0.0000000    0.0000000
    4   -0.0000000   -0.0000000   -0.0000000    0.1534436    0.0000000
    5    0.0000000    0.0000000   -0.0000000    0.0000000   -0.0380938
    6    0.0029776   -0.0435509   -0.1458626    0.0583833    0.0000000
    7    0.0029776   -0.0435509   -0.1458626   -0.0583833    0.0000000

                 6            7

    1    0.0083574    0.0083574
    2    0.1089764    0.1089764
    3    0.0146183    0.0146183
    4   -0.0141095    0.0141095
    5   -0.0000000    0.0000000
    6    0.0476728    0.0728722
    7    0.0728722    0.0476728




 # Corrector Vector 1 #
 Irrep: 1
      1:  0.0897970
      2:  0.0000000
      3: -0.9048877
      4: -0.0000000
      5: -0.0000000
      6:  0.4160707
      7:  0.0000000
      8: -0.0000000
      9:  0.0000000
     10:  0.0000000


 # Sigma Vector 3 #
 Irrep: 1
      1:  1.8021105
      2:  0.0000000
      3: -1.0259493
      4: -0.0000000
      5: -0.0000000
      6:  0.3091441
      7:  0.0199389
      8:  0.0000000
      9: -0.0000000
     10:  0.0000000

  ## Caocc (Symmetry 0) ##
  Irrep: 1

                 1            2            3            4            5

    1   -0.9944346   -0.2391589    0.0000000    0.0936833   -0.0000000
    2   -0.0240970    0.8857356   -0.0000000   -0.4795859    0.0000000
    3   -0.0031615    0.0858962   -0.0000000    0.7474314   -0.0000000
    4    0.0000000    0.0000000    0.6072848    0.0000000    0.0000000
    5    0.0000000    0.0000000   -0.0000000    0.0000000    1.0000000
    6    0.0045937    0.1440396    0.4529977    0.3294712   -0.0000000
    7    0.0045937    0.1440396   -0.4529977    0.3294712   -0.0000000



  ## C_right, h = 0, N = 0 (Symmetry 0) ##
  Irrep: 1

                 1            2            3            4            5

    1   -0.0100249    0.1010216    0.0000000    0.0000000   -0.0000000
    2    0.0601262   -0.6058939   -0.0000000   -0.0000000    0.0000000
    3    0.0663141   -0.6682492   -0.0000000   -0.0000000    0.0000000
    4    0.0000000   -0.0000000    0.3824664   -0.0000000    0.0000000
    5   -0.0000000    0.0000000    0.0000000   -0.0000000    0.0000000
    6   -0.0637423    0.6423341   -0.3047554    0.0000000   -0.0000000
    7   -0.0637423    0.6423341    0.3047554   -0.0000000    0.0000000



   > Sigma <


 # Sigma Vector 0 #
 Irrep: 1
      1: -0.0000000
      2:  0.0000000
      3:  0.0000000
      4: -0.0000000
      5: -0.0000000
      6:  0.0000000
      7: -0.0000000
      8: -0.0000000
      9:  0.2872555
     10:  0.0000000


 # Sigma Vector 1 #
 Irrep: 1
      1:  0.0180084
      2:  0.0000000
      3: -0.0485372
      4: -0.0000000
      5:  0.0000000
      6: -0.0615255
      7:  0.3703281
      8:  0.0000000
      9: -0.0000000
     10: -0.0000000


 # Sigma Vector 2 #
 Irrep: 1
      1: -0.1957306
      2: -0.0000000
      3:  0.3770273
      4:  0.0000000
      5: -0.0000000
      6:  0.4661746
      7: -0.0763360
      8: -0.0000000
      9:  0.0000000
     10:  0.0000000


 # Sigma Vector 3 #
 Irrep: 1
      1:  1.8021105
      2:  0.0000000
      3: -1.0259493
      4: -0.0000000
      5: -0.0000000
      6:  0.3091441
      7:  0.0199389
      8:  0.0000000
      9: -0.0000000
     10:  0.0000000

   > SubspaceHamiltonian <

  ## Subspace Hamiltonian (Symmetry 0) ##
  Irrep: 1

                 1            2            3            4

    1    0.2872555   -0.0000000    0.0000000   -0.0000000
    2   -0.0000000    0.3703281   -0.0763360    0.0199389
    3    0.0000000   -0.0763360    0.5828480   -0.1647818
    4   -0.0000000    0.0199389   -0.1647818    1.2188188



   > SubspaceDiagonalize <

  ## Subspace Eigenvectors (Symmetry 0) ##
  Irrep: 1

                 1            2            3            4

    1    1.0000000    0.0000000    0.0000000   -0.0000000
    2    0.0000000   -0.9430562   -0.3299272    0.0423454
    3   -0.0000000   -0.3301328    0.9127700   -0.2405479
    4   -0.0000000   -0.0407117    0.2408298    0.9697131




 # Subspace Eigenvalues #
 Irrep: 1
      1:  0.2872555
      2:  0.3444661
      3:  0.5669633
      4:  1.2605654

   > Eigenvectors <


 # Eigenvector 0 #
 Irrep: 1
      1: -0.0000000
      2: -0.0000000
      3: -0.0000000
      4: -0.0000000
      5:  0.0000000
      6: -0.0000000
      7:  0.0000000
      8:  0.0000000
      9:  1.0000000
     10: -0.0000000


 # Eigenvector 1 #
 Irrep: 1
      1: -0.0003542
      2: -0.0000000
      3: -0.1007988
      4: -0.0000000
      5:  0.0000000
      6: -0.3169930
      7: -0.9430562
      8:  0.0000000
      9:  0.0000000
     10: -0.0000000

   > Eigenvalues <

    Eigenvalue 0, Irrep 0 =   2.8725547283947406E-01
    Eigenvalue 1, Irrep 0 =   3.4446613816708033E-01

   > Residuals <


 # Residual Vector 0 #
 Irrep: 1
      1: -0.0000000
      2:  0.0000000
      3: -0.0000000
      4: -0.0000000
      5: -0.0000000
      6:  0.0000000
      7:  0.0000000
      8: -0.0000000
      9: -0.0000000
     10:  0.0000000


 # Residual Vector 1 #
 Irrep: 1
      1: -0.0256108
      2: -0.0000000
      3: -0.0022058
      4: -0.0000000
      5: -0.0000000
      6:  0.0007300
      7: -0.0000000
      8: -0.0000000
      9: -0.0000000
     10:  0.0000000

    Residual 0 =   8.2776268542837620E-16
    Residual 1 =   2.5715978162253291E-02

    1 of 2 roots converged, we are not converged

      3           1           4    2.572E-02
   > Correctors <


 # Corrector Vector 1 #
 Irrep: 1
      1:  0.5546412
      2:  0.0000000
      3:  0.7255699
      4:  0.0000000
      5:  0.0000000
      6: -0.4073346
      7:  0.0000000
      8:  0.0000000
      9:  0.0000000
     10: -0.0000000

   > SubspaceExpansion <

Final subspace after addition


 # Subspace Vector 0 #
 Irrep: 1
      1:  0.0000000
      2:  0.0000000
      3:  0.0000000
      4:  0.0000000
      5:  0.0000000
      6:  0.0000000
      7:  0.0000000
      8:  0.0000000
      9:  1.0000000
     10:  0.0000000


 # Subspace Vector 1 #
 Irrep: 1
      1:  0.0000000
      2:  0.0000000
      3:  0.0000000
      4:  0.0000000
      5:  0.0000000
      6:  0.0000000
      7:  1.0000000
      8:  0.0000000
      9:  0.0000000
     10:  0.0000000


 # Corrector Vector 1 #
 Irrep: 1
      1: -0.0100009
      2: -0.0000000
      3:  0.4169181
      4:  0.0000000
      5: -0.0000000
      6:  0.9088890
      7:  0.0000000
      8: -0.0000000
      9:  0.0000000
     10:  0.0000000


 # Corrector Vector 1 #
 Irrep: 1
      1:  0.0897970
      2:  0.0000000
      3: -0.9048877
      4: -0.0000000
      5: -0.0000000
      6:  0.4160707
      7:  0.0000000
      8: -0.0000000
      9:  0.0000000
     10:  0.0000000


 # Corrector Vector 1 #
 Irrep: 1
      1:  0.9959099
      2:  0.0000000
      3:  0.0857766
      4:  0.0000000
      5:  0.0000000
      6: -0.0283883
      7:  0.0000000
      8:  0.0000000
      9:  0.0000000
     10: -0.0000000

   > JK <

  ## Caocc (Symmetry 0) ##
  Irrep: 1

                 1            2            3            4            5

    1   -0.9944346   -0.2391589    0.0000000    0.0936833   -0.0000000
    2   -0.0240970    0.8857356   -0.0000000   -0.4795859    0.0000000
    3   -0.0031615    0.0858962   -0.0000000    0.7474314   -0.0000000
    4    0.0000000    0.0000000    0.6072848    0.0000000    0.0000000
    5    0.0000000    0.0000000   -0.0000000    0.0000000    1.0000000
    6    0.0045937    0.1440396    0.4529977    0.3294712   -0.0000000
    7    0.0045937    0.1440396   -0.4529977    0.3294712   -0.0000000



  ## C_right, h = 0, N = 0 (Symmetry 0) ##
  Irrep: 1

                 1            2            3            4            5

    1   -0.1111833   -0.0095761   -0.0000000   -0.0000000    0.0000000
    2    0.6668404    0.0574342    0.0000000    0.0000000   -0.0000000
    3    0.7354681    0.0633450    0.0000000    0.0000000   -0.0000000
    4    0.0000000    0.0000000   -0.0260955    0.0000000   -0.0000000
    5   -0.0000000   -0.0000000   -0.0000000    0.0000000   -0.0000000
    6   -0.7069461   -0.0608885    0.0207933   -0.0000000    0.0000000
    7   -0.7069461   -0.0608885   -0.0207933    0.0000000   -0.0000000



  ## D 0 (SO) (Symmetry 0) ##
  Irrep: 1

                 1            2            3            4            5

    1    0.1128547   -0.6768651   -0.7465244   -0.0000000    0.0000000
    2   -0.0058027    0.0348026    0.0383843    0.0000000   -0.0000000
    3   -0.0004710    0.0028251    0.0031159    0.0000000   -0.0000000
    4   -0.0000000    0.0000000    0.0000000   -0.0158474   -0.0000000
    5   -0.0000000    0.0000000    0.0000000   -0.0000000   -0.0000000
    6   -0.0018901    0.0113361    0.0125027   -0.0118212   -0.0000000
    7   -0.0018901    0.0113361    0.0125027    0.0118212   -0.0000000

                 6            7

    1    0.7175737    0.7175737
    2   -0.0368958   -0.0368958
    3   -0.0029950   -0.0029950
    4    0.0126275   -0.0126275
    5    0.0000000   -0.0000000
    6   -0.0025985   -0.0214372
    7   -0.0214372   -0.0025985



  ## J 0 (AO) (Symmetry 0) ##
  Irrep: 1

                 1            2            3            4            5

    1    0.2129766    0.0231702   -0.0159356    0.0000000    0.0000000
    2    0.0231702    0.0116619   -0.0204387   -0.0000000    0.0000000
    3   -0.0159356   -0.0204387    0.0119726    0.0000000    0.0000000
    4    0.0000000   -0.0000000    0.0000000    0.0100039   -0.0000000
    5    0.0000000    0.0000000    0.0000000   -0.0000000    0.0118567
    6    0.0034812    0.0006652   -0.0036711   -0.0001224   -0.0000000
    7    0.0034812    0.0006652   -0.0036711    0.0001224    0.0000000

                 6            7

    1    0.0034812    0.0034812
    2    0.0006652    0.0006652
    3   -0.0036711   -0.0036711
    4   -0.0001224    0.0001224
    5   -0.0000000    0.0000000
    6   -0.0026464   -0.0003306
    7   -0.0003306   -0.0026464



  ## K 0 (AO) (Symmetry 0) ##
  Irrep: 1

                 1            2            3            4            5

    1    0.2113705   -0.2213708   -0.6189499   -0.0000000    0.0000000
    2    0.0218414   -0.0461125   -0.1162000    0.0000000    0.0000000
    3   -0.0159230   -0.0161943   -0.0044281    0.0000000    0.0000000
    4   -0.0000000    0.0000000    0.0000000   -0.0194027   -0.0000000
    5    0.0000000    0.0000000    0.0000000   -0.0000000   -0.0094397
    6    0.0031897   -0.0058511   -0.0118458   -0.0045576   -0.0000000
    7    0.0031897   -0.0058511   -0.0118458    0.0045576    0.0000000

                 6            7

    1    0.1068589    0.1068589
    2    0.0173385    0.0173385
    3   -0.0044130   -0.0044130
    4    0.0022899   -0.0022899
    5    0.0000000   -0.0000000
    6   -0.0018518   -0.0019838
    7   -0.0019838   -0.0018518




 # Corrector Vector 1 #
 Irrep: 1
      1:  0.9959099
      2:  0.0000000
      3:  0.0857766
      4:  0.0000000
      5:  0.0000000
      6: -0.0283883
      7:  0.0000000
      8:  0.0000000
      9:  0.0000000
     10: -0.0000000


 # Sigma Vector 4 #
 Irrep: 1
      1: 19.8760176
      2:  0.0000000
      3:  0.0888466
      4:  0.0000000
      5:  0.0000000
      6: -0.0155004
      7:  0.0155180
      8:  0.0000000
      9: -0.0000000
     10: -0.0000000

  ## Caocc (Symmetry 0) ##
  Irrep: 1

                 1            2            3            4            5

    1   -0.9944346   -0.2391589    0.0000000    0.0936833   -0.0000000
    2   -0.0240970    0.8857356   -0.0000000   -0.4795859    0.0000000
    3   -0.0031615    0.0858962   -0.0000000    0.7474314   -0.0000000
    4    0.0000000    0.0000000    0.6072848    0.0000000    0.0000000
    5    0.0000000    0.0000000   -0.0000000    0.0000000    1.0000000
    6    0.0045937    0.1440396    0.4529977    0.3294712   -0.0000000
    7    0.0045937    0.1440396   -0.4529977    0.3294712   -0.0000000



  ## C_right, h = 0, N = 0 (Symmetry 0) ##
  Irrep: 1

                 1            2            3            4            5

    1   -0.1111833   -0.0095761   -0.0000000   -0.0000000    0.0000000
    2    0.6668404    0.0574342    0.0000000    0.0000000   -0.0000000
    3    0.7354681    0.0633450    0.0000000    0.0000000   -0.0000000
    4    0.0000000    0.0000000   -0.0260955    0.0000000   -0.0000000
    5   -0.0000000   -0.0000000   -0.0000000    0.0000000   -0.0000000
    6   -0.7069461   -0.0608885    0.0207933   -0.0000000    0.0000000
    7   -0.7069461   -0.0608885   -0.0207933    0.0000000   -0.0000000



   > Sigma <


 # Sigma Vector 0 #
 Irrep: 1
      1: -0.0000000
      2:  0.0000000
      3:  0.0000000
      4: -0.0000000
      5: -0.0000000
      6:  0.0000000
      7: -0.0000000
      8: -0.0000000
      9:  0.2872555
     10:  0.0000000


 # Sigma Vector 1 #
 Irrep: 1
      1:  0.0180084
      2:  0.0000000
      3: -0.0485372
      4: -0.0000000
      5:  0.0000000
      6: -0.0615255
      7:  0.3703281
      8:  0.0000000
      9: -0.0000000
     10: -0.0000000


 # Sigma Vector 2 #
 Irrep: 1
      1: -0.1957306
      2: -0.0000000
      3:  0.3770273
      4:  0.0000000
      5: -0.0000000
      6:  0.4661746
      7: -0.0763360
      8: -0.0000000
      9:  0.0000000
     10:  0.0000000


 # Sigma Vector 3 #
 Irrep: 1
      1:  1.8021105
      2:  0.0000000
      3: -1.0259493
      4: -0.0000000
      5: -0.0000000
      6:  0.3091441
      7:  0.0199389
      8:  0.0000000
      9: -0.0000000
     10:  0.0000000


 # Sigma Vector 4 #
 Irrep: 1
      1: 19.8760176
      2:  0.0000000
      3:  0.0888466
      4:  0.0000000
      5:  0.0000000
      6: -0.0155004
      7:  0.0155180
      8:  0.0000000
      9: -0.0000000
     10: -0.0000000

   > SubspaceHamiltonian <

  ## Subspace Hamiltonian (Symmetry 0) ##
  Irrep: 1

                 1            2            3            4            5

    1    0.2872555   -0.0000000    0.0000000   -0.0000000   -0.0000000
    2   -0.0000000    0.3703281   -0.0763360    0.0199389    0.0155180
    3    0.0000000   -0.0763360    0.5828480   -0.1647818   -0.1758238
    4   -0.0000000    0.0199389   -0.1647818    1.2188188    1.6979611
    5   -0.0000000    0.0155180   -0.1758238    1.6979611   19.8027832



   > SubspaceDiagonalize <

  ## Subspace Eigenvectors (Symmetry 0) ##
  Irrep: 1

                 1            2            3            4            5

    1    1.0000000    0.0000000   -0.0000000   -0.0000000   -0.0000000
    2    0.0000000   -0.9425973    0.3297693    0.0525519    0.0009191
    3   -0.0000000   -0.3310172   -0.9019891   -0.2770326   -0.0098087
    4   -0.0000000   -0.0439931   -0.2782273    0.9552468    0.0903201
    5    0.0000000    0.0015996    0.0160455   -0.0894135    0.9958641




 # Subspace Eigenvalues #
 Irrep: 1
      1:  0.2872555
      2:  0.3444250
      3:  0.5630558
      4:  1.1087709
      5: 19.9585263

   > Eigenvectors <


 # Eigenvector 0 #
 Irrep: 1
      1:  0.0000000
      2: -0.0000000
      3: -0.0000000
      4: -0.0000000
      5:  0.0000000
      6: -0.0000000
      7:  0.0000000
      8:  0.0000000
      9:  1.0000000
     10: -0.0000000


 # Eigenvector 1 #
 Irrep: 1
      1:  0.0009530
      2: -0.0000000
      3: -0.0980611
      4: -0.0000000
      5:  0.0000000
      6: -0.3192075
      7: -0.9425973
      8:  0.0000000
      9:  0.0000000
     10: -0.0000000

   > Eigenvalues <

    Eigenvalue 0, Irrep 0 =   2.8725547283947406E-01
    Eigenvalue 1, Irrep 0 =   3.4442500336092324E-01

   > Residuals <


 # Residual Vector 0 #
 Irrep: 1
      1:  0.0000000
      2:  0.0000000
      3: -0.0000000
      4: -0.0000000
      5: -0.0000000
      6: -0.0000000
      7: -0.0000000
      8: -0.0000000
      9: -0.0000000
     10:  0.0000000


 # Residual Vector 1 #
 Irrep: 1
      1: -0.0000000
      2:  0.0000000
      3:  0.0000000
      4: -0.0000000
      5: -0.0000000
      6:  0.0000000
      7: -0.0000000
      8: -0.0000000
      9:  0.0000000
     10:  0.0000000

    Residual 0 =   3.1978578749074275E-16
    Residual 1 =   2.7699059529190716E-16

    2 of 2 roots converged, we are converged

      4           2           5    3.198E-16

    DLRSolver converged.

  ==> Excitation Energies <==

  -----------------------------------------------
  State Description         dE (H)        dE (eV)
  -----------------------------------------------
  1     T1    (  A)   2.872555E-01   7.816622E+00
  2     T2    (  A)   3.444250E-01   9.372285E+00
  3     S1    (  A)   3.564617E-01   9.699821E+00
  4     S2    (  A)   5.056283E-01   1.375885E+01
  -----------------------------------------------

  ## Dipole X (Symmetry 0) ##
  Irrep: 1

                 1            2            3            4            5

    1    0.0000000    0.0000000    0.0000000   -0.0507919    0.0000000
    2    0.0000000    0.0000000    0.0000000   -0.6411728    0.0000000
    3    0.0000000    0.0000000    0.0000000    0.0000000    0.0000000
    4   -0.0507919   -0.6411728    0.0000000    0.0000000    0.0000000
    5    0.0000000    0.0000000    0.0000000    0.0000000    0.0000000
    6   -0.0022297   -0.2627425   -0.1473994   -0.4376306    0.0000000
    7    0.0022297    0.2627425    0.1473994   -0.4376306    0.0000000

                 6            7

    1   -0.0022297    0.0022297
    2   -0.2627425    0.2627425
    3   -0.1473994    0.1473994
    4   -0.4376306   -0.4376306
    5    0.0000000    0.0000000
    6   -1.6380368    0.0000000
    7    0.0000000    1.6380368



  ## Dipole Y (Symmetry 0) ##
  Irrep: 1

                 1            2            3            4            5

    1    0.0000000    0.0000000    0.0000000    0.0000000   -0.0507919
    2    0.0000000    0.0000000    0.0000000    0.0000000   -0.6411728
    3    0.0000000    0.0000000    0.0000000    0.0000000    0.0000000
    4    0.0000000    0.0000000    0.0000000    0.0000000    0.0000000
    5   -0.0507919   -0.6411728    0.0000000    0.0000000    0.0000000
    6    0.0000000    0.0000000    0.0000000    0.0000000   -0.2489680
    7    0.0000000    0.0000000    0.0000000    0.0000000   -0.2489680

                 6            7

    1    0.0000000    0.0000000
    2    0.0000000    0.0000000
    3    0.0000000    0.0000000
    4    0.0000000    0.0000000
    5   -0.2489680   -0.2489680
    6    0.0000000    0.0000000
    7    0.0000000    0.0000000



  ## Dipole Z (Symmetry 0) ##
  Irrep: 1

                 1            2            3            4            5

    1    0.1432258    0.0339021   -0.0507919    0.0000000    0.0000000
    2    0.0339021    0.1432258   -0.6411728    0.0000000    0.0000000
    3   -0.0507919   -0.6411728    0.1432258    0.0000000    0.0000000
    4    0.0000000    0.0000000    0.0000000    0.1432258    0.0000000
    5    0.0000000    0.0000000    0.0000000    0.0000000    0.1432258
    6    0.0037587   -0.1499719   -0.3340907   -0.1089522    0.0000000
    7    0.0037587   -0.1499719   -0.3340907    0.1089522    0.0000000

                 6            7

    1    0.0037587    0.0037587
    2   -0.1499719   -0.1499719
    3   -0.3340907   -0.3340907
    4   -0.1089522    0.1089522
    5    0.0000000    0.0000000
    6   -1.1365488   -0.2065790
    7   -0.2065790   -1.1365488



  ==> GS->XS Oscillator Strengths <==

  --------------------------------------------------------------------
  State Description        mu_x        mu_y        mu_z              f
  --------------------------------------------------------------------
  1     T1    (  A)   2.193E-15  -7.019E-02  -8.939E-15   9.433603E-04
  2     T2    (  A)   2.109E-15   8.098E-16  -7.886E-01   1.427900E-01
  3     S1    (  A)   2.193E-15  -7.019E-02  -1.711E-15   1.170637E-03
  4     S2    (  A)  -1.166E-15   3.743E-16  -3.103E-01   3.246314E-02
  --------------------------------------------------------------------


*** PSI4 exiting successfully. Buy a developer a beer!
