
    -----------------------------------------------------------------------
          Psi4: An Open-Source Ab Initio Electronic Structure Package
                               Psi4 1.1rc3.dev5 

                         Git: Rev {master} 3fbd859 


    R. M. Parrish, L. A. Burns, D. G. A. Smith, A. C. Simmonett,
    A. E. DePrince III, E. G. Hohenstein, U. Bozkaya, A. Yu. Sokolov,
    R. Di Remigio, R. M. Richard, J. F. Gonthier, A. M. James,
    H. R. McAlexander, A. Kumar, M. Saitow, X. Wang, B. P. Pritchard,
    P. Verma, H. F. Schaefer III, K. Patkowski, R. A. King, E. F. Valeev,
    F. A. Evangelista, J. M. Turney, T. D. Crawford, and C. D. Sherrill,
    J. Chem. Theory Comput. in press (2017).
    (doi: 10.1021/acs.jctc.7b00174)

    -----------------------------------------------------------------------


    Psi4 started on: Monday, 15 May 2017 03:35PM

    Process ID:  13518
    PSIDATADIR: /home/psilocaluser/gits/hrw-direct/objdir4/stage/usr/local/psi4/share/psi4
    Memory:     500.0 MiB
    Threads:    1
    
  ==> Input File <==

--------------------------------------------------------------------------
#! DCFT calculation for the HF+ using DC-06 functional. This performs both
#! two-step and simultaneous update of the orbitals and cumulant using DIIS extrapolation.
#! Four-virtual integrals are first handled in the MO Basis for the first two energy computations.
#! In the next two the ao_basis=disk algorithm is used, where the transformation of integrals for 
#! four-virtual case is avoided. 
#! The computation is then repeated using the DC-12 functional with the same algorithms.

refscf      = -98.190834079292387  #TEST
refmp2      = -98.202705508819363  #TEST
refdcftscf  = -98.164839047679820  #TEST
refdcft     = -98.2078192401319967 #TEST

# DC-12                               #TEST
refdcftscfexact = -98.165972603361965 #TEST
refdcftexact = -98.207614955904603    #TEST

# ODC-06                              #TEST
refodc06scf = -98.161561565771748     #TEST
refodc06    = -98.2086151665222360    #TEST

# ODC-12                              #TEST
refodc12scf = -98.163060134490195     #TEST
refodc12    = -98.2083640708414407    #TEST

# ODC-13
refodc13scf = -98.162361155505053     #TEST
refodc13    = -98.2084516176586817    #TEST

molecule HF {
1 2
H
F 1 R

R = 1.000
}

set {
    r_convergence 12
    d_convergence 12
    ao_basis    none
    algorithm   twostep
    basis       sto-3g
    qc_coupling true
    reference   uhf
}

#DC-06
set dcft_functional dc-06
energy('dcft')

compare_values(refscf, get_variable("SCF TOTAL ENERGY"), 10, "SCF Energy");                                       #TEST
compare_values(refmp2, get_variable("MP2 TOTAL ENERGY"), 10, "MP2 Energy");                                             #TEST
compare_values(refdcftscf, get_variable("DCFT SCF ENERGY"), 10, "DC-06 SCF Energy (two-step, ao_basis=none)");     #TEST
compare_values(refdcft, get_variable("DCFT TOTAL ENERGY"), 10, "DC-06 Energy (two-step, ao_basis=none)");                #TEST

set ao_basis none
set algorithm simultaneous
energy('dcft')

compare_values(refdcftscf, get_variable("DCFT SCF ENERGY"), 10, "DC-06 SCF Energy (simultaneous, ao_basis=none)"); #TEST
compare_values(refdcft, get_variable("DCFT TOTAL ENERGY"), 10, "DC-06 Energy (simultaneous, ao_basis=none)");            #TEST

set ao_basis disk
set algorithm twostep
energy('dcft')

compare_values(refdcftscf, get_variable("DCFT SCF ENERGY"), 10, "DC-06 SCF Energy (two-step, ao_basis=disk)");     #TEST
compare_values(refdcft, get_variable("DCFT TOTAL ENERGY"), 10, "DC-06 Energy (two-step, ao_basis=disk)");                #TEST

set ao_basis disk
set algorithm simultaneous
energy('dcft')

compare_values(refdcftscf, get_variable("DCFT SCF ENERGY"), 10, "DC-06 SCF Energy (simultaneous, ao_basis=disk)"); #TEST
compare_values(refdcft, get_variable("DCFT TOTAL ENERGY"), 10, "DC-06 Energy (simultaneous, ao_basis=disk)");            #TEST

set ao_basis none
set algorithm qc
set qc_type simultaneous
energy('dcft')

compare_values(refdcftscf, get_variable("DCFT SCF ENERGY"), 10, "DC-06 SCF Energy (qc, qc_type=simultaneous, ao_basis=none)");     #TEST
compare_values(refdcft, get_variable("DCFT TOTAL ENERGY"), 10, "DC-06 Energy (qc, qc_type=simultaneous, ao_basis=none)");                #TEST

set ao_basis none
set algorithm qc
set qc_type twostep
energy('dcft')

compare_values(refdcftscf, get_variable("DCFT SCF ENERGY"), 10, "DC-06 SCF Energy (qc, qc_type=twostep, ao_basis=none)");     #TEST
compare_values(refdcft, get_variable("DCFT TOTAL ENERGY"), 10, "DC-06 Energy (qc, qc_type=twostep, ao_basis=none)");                #TEST

set ao_basis disk
set algorithm qc
set qc_type twostep
energy('dcft')

compare_values(refdcftscf, get_variable("DCFT SCF ENERGY"), 10, "DC-06 SCF Energy (qc, qc_type=twostep, ao_basis=disk)");     #TEST
compare_values(refdcft, get_variable("DCFT TOTAL ENERGY"), 10, "DC-06 Energy (qc, qc_type=twostep, ao_basis=disk)");                #TEST

#DC-12
set dcft_functional dc-12
set ao_basis none
set algorithm twostep
energy('dcft')

compare_values(refdcftscfexact, get_variable("DCFT SCF ENERGY"), 10, "DC-12 SCF Energy (two-step, ao_basis=none)");     #TEST
compare_values(refdcftexact, get_variable("DCFT TOTAL ENERGY"), 10, "DC-12 Energy (two-step, ao_basis=none)");                #TEST

set ao_basis disk
set algorithm twostep
energy('dcft')

compare_values(refdcftscfexact, get_variable("DCFT SCF ENERGY"), 10, "DC-12 SCF Energy (two-step, ao_basis=disk)");     #TEST
compare_values(refdcftexact, get_variable("DCFT TOTAL ENERGY"), 10, "DC-12 Energy (two-step, ao_basis=disk)");                #TEST

set ao_basis none
set algorithm simultaneous
energy('dcft')

compare_values(refdcftscfexact, get_variable("DCFT SCF ENERGY"), 10, "DC-12 SCF Energy (simultaneous, ao_basis=none)");     #TEST
compare_values(refdcftexact, get_variable("DCFT TOTAL ENERGY"), 10, "DC-12 Energy (simultaneous, ao_basis=none)");                #TEST

set ao_basis disk
set algorithm simultaneous
energy('dcft')

compare_values(refdcftscfexact, get_variable("DCFT SCF ENERGY"), 10, "DC-12 SCF Energy (simultaneous, ao_basis=disk)");     #TEST
compare_values(refdcftexact, get_variable("DCFT TOTAL ENERGY"), 10, "DC-12 Energy (simultaneous, ao_basis=disk)");                #TEST

set ao_basis none
set algorithm qc
set qc_type simultaneous
energy('dcft')

compare_values(refdcftscfexact, get_variable("DCFT SCF ENERGY"), 10, "DC-12 SCF Energy (qc, qc_type=simultaneous, ao_basis=none)");     #TEST
compare_values(refdcftexact, get_variable("DCFT TOTAL ENERGY"), 10, "DC-12 Energy (qc, qc_type=simultaneous, ao_basis=none)");                #TEST

#ODC-06
set dcft_functional odc-06
set ao_basis none
set algorithm simultaneous
energy('dcft')

compare_values(refodc06scf, get_variable("DCFT SCF ENERGY"), 10, "ODC-06 SCF Energy (simultaneous, ao_basis=none)");     #TEST
compare_values(refodc06, get_variable("DCFT TOTAL ENERGY"), 10, "ODC-06 Energy (simultaneous, ao_basis=none)");                #TEST

set ao_basis disk
set algorithm simultaneous
energy('dcft')

compare_values(refodc06scf, get_variable("DCFT SCF ENERGY"), 10, "ODC-06 SCF Energy (simultaneous, ao_basis=disk)");     #TEST
compare_values(refodc06, get_variable("DCFT TOTAL ENERGY"), 10, "ODC-06 Energy (simultaneous, ao_basis=disk)");                #TEST

set ao_basis none
set algorithm qc
set qc_type simultaneous
energy('dcft')

compare_values(refodc06scf, get_variable("DCFT SCF ENERGY"), 10, "ODC-06 SCF Energy (qc, qc_type=simultaneous, ao_basis=none)");     #TEST
compare_values(refodc06, get_variable("DCFT TOTAL ENERGY"), 10, "ODC-06 Energy (qc, qc_type=simultaneous, ao_basis=none)");                #TEST

set ao_basis none
set algorithm qc
set qc_type twostep
energy('dcft')

compare_values(refodc06scf, get_variable("DCFT SCF ENERGY"), 10, "ODC-06 SCF Energy (qc, qc_type=twostep, ao_basis=none)");     #TEST
compare_values(refodc06, get_variable("DCFT TOTAL ENERGY"), 10, "ODC-06 Energy (qc, qc_type=twostep, ao_basis=none)");                #TEST

#ODC-12
set dcft_functional odc-12
set ao_basis none
set algorithm simultaneous
energy('dcft')

compare_values(refodc12scf, get_variable("DCFT SCF ENERGY"), 10, "ODC-12 SCF Energy (simultaneous, ao_basis=none)");     #TEST
compare_values(refodc12, get_variable("DCFT TOTAL ENERGY"), 10, "ODC-12 Energy (simultaneous, ao_basis=none)");                #TEST

set ao_basis disk
set algorithm simultaneous
energy('dcft')
compare_values(refodc12scf, get_variable("DCFT SCF ENERGY"), 10, "ODC-12 SCF Energy (simultaneous, ao_basis=disk)");     #TEST
compare_values(refodc12, get_variable("DCFT TOTAL ENERGY"), 10, "ODC-12 Energy (simultaneous, ao_basis=disk)");                #TEST

set ao_basis none
set algorithm qc
set qc_type simultaneous
energy('dcft')

compare_values(refodc12scf, get_variable("DCFT SCF ENERGY"), 10, "ODC-12 SCF Energy (qc, qc_type=simultaneous, ao_basis=none)");     #TEST
compare_values(refodc12, get_variable("DCFT TOTAL ENERGY"), 10, "ODC-12 Energy (qc, qc_type=simultaneous, ao_basis=none)");                #TEST

#ODC-13
set dcft_functional odc-13
set ao_basis none
set algorithm simultaneous
energy('dcft')

compare_values(refodc13scf, get_variable("DCFT SCF ENERGY"), 10, "ODC-13 SCF Energy (simultaneous, ao_basis=none)");     #TEST
compare_values(refodc13, get_variable("DCFT TOTAL ENERGY"), 10, "ODC-13 Energy (simultaneous, ao_basis=none)");                #TEST

set ao_basis disk
set algorithm simultaneous
energy('dcft')
compare_values(refodc13scf, get_variable("DCFT SCF ENERGY"), 10, "ODC-13 SCF Energy (simultaneous, ao_basis=disk)");     #TEST
compare_values(refodc13, get_variable("DCFT TOTAL ENERGY"), 10, "ODC-13 Energy (simultaneous, ao_basis=disk)");                #TEST

set ao_basis none
set algorithm qc
set qc_type simultaneous
energy('dcft')

compare_values(refodc13scf, get_variable("DCFT SCF ENERGY"), 10, "ODC-13 SCF Energy (qc, qc_type=simultaneous, ao_basis=none)");     #TEST
compare_values(refodc13, get_variable("DCFT TOTAL ENERGY"), 10, "ODC-13 Energy (qc, qc_type=simultaneous, ao_basis=none)");                #TEST
--------------------------------------------------------------------------

*** tstart() called on psinet
*** at Mon May 15 15:35:21 2017

   => Loading Basis Set <=

    Name: STO-3G
    Role: ORBITAL
    Keyword: BASIS
    atoms 1 entry H          line    18 file /home/psilocaluser/gits/hrw-direct/objdir4/stage/usr/local/psi4/share/psi4/basis/sto-3g.gbs 
    atoms 2 entry F          line    90 file /home/psilocaluser/gits/hrw-direct/objdir4/stage/usr/local/psi4/share/psi4/basis/sto-3g.gbs 


         ---------------------------------------------------------
                                   SCF
            by Justin Turney, Rob Parrish, and Andy Simmonett
                              UHF Reference
                        1 Threads,    500 MiB Core
         ---------------------------------------------------------

  ==> Geometry <==

    Molecular point group: c2v
    Full point group: C_inf_v

    Geometry (in Angstrom), charge = 1, multiplicity = 2:

       Center              X                  Y                   Z               Mass       
    ------------   -----------------  -----------------  -----------------  -----------------
           H          0.000000000000     0.000000000000    -0.949624435992     1.007825032070
           F          0.000000000000     0.000000000000     0.050375564008    18.998403224000

  Running in c2v symmetry.

  Rotational constants: A = ************  B =     17.61406  C =     17.61406 [cm^-1]
  Rotational constants: A = ************  B = 528056.23332  C = 528056.23332 [MHz]
  Nuclear repulsion =    4.762594877310000

  Charge       = 1
  Multiplicity = 2
  Electrons    = 9
  Nalpha       = 5
  Nbeta        = 4

  ==> Algorithm <==

  SCF Algorithm Type is PK.
  DIIS enabled.
  MOM disabled.
  Fractional occupation disabled.
  Guess Type is GWH.
  Energy threshold   = 1.00e-08
  Density threshold  = 1.00e-12
  Integral threshold = 0.00e+00

  ==> Primary Basis <==

  Basis Set: STO-3G
    Blend: STO-3G
    Number of shells: 4
    Number of basis function: 6
    Number of Cartesian functions: 6
    Spherical Harmonics?: true
    Max angular momentum: 1

  ==> Pre-Iterations <==

   -------------------------------------------------------
    Irrep   Nso     Nmo     Nalpha   Nbeta   Ndocc  Nsocc
   -------------------------------------------------------
     A1         4       4       0       0       0       0
     A2         0       0       0       0       0       0
     B1         1       1       0       0       0       0
     B2         1       1       0       0       0       0
   -------------------------------------------------------
    Total       6       6       5       4       4       1
   -------------------------------------------------------

  ==> Integral Setup <==

  Using in-core PK algorithm.
   Calculation information:
      Number of atoms:                   2
      Number of AO shells:               4
      Number of primitives:             12
      Number of atomic orbitals:         6
      Number of basis functions:         6

      Integral cutoff                 1.00e-12
      Number of threads:                 1

  Performing in-core PK
  Using 462 doubles for integral storage.
  We computed 55 shell quartets total.
  Whereas there are 55 unique shell quartets.
  ==> DiskJK: Disk-Based J/K Matrices <==

    J tasked:                  Yes
    K tasked:                  Yes
    wK tasked:                  No
    Memory (MB):               375
    Schwarz Cutoff:          1E-12

    OpenMP threads:              1
  Minimum eigenvalue in the overlap matrix is 4.6927029010E-01.
  Using Symmetric Orthogonalization.

  SCF Guess: Generalized Wolfsberg-Helmholtz.

  ==> Iterations <==

                        Total Energy        Delta E     RMS |[F,P]|

   @UHF iter   1:   -98.01241588183251   -9.80124e+01   1.43031e-01 
   @UHF iter   2:   -98.17816155724050   -1.65746e-01   2.81732e-02 DIIS
   @UHF iter   3:   -98.19058868323246   -1.24271e-02   3.57835e-03 DIIS
   @UHF iter   4:   -98.19080145501356   -2.12772e-04   8.86516e-04 DIIS
   @UHF iter   5:   -98.19083092905989   -2.94740e-05   2.80025e-04 DIIS
   @UHF iter   6:   -98.19083403513193   -3.10607e-06   5.02927e-05 DIIS
   @UHF iter   7:   -98.19083407823692   -4.31050e-08   7.96433e-06 DIIS
   @UHF iter   8:   -98.19083407928990   -1.05298e-09   3.89280e-07 DIIS
   @UHF iter   9:   -98.19083407929253   -2.62901e-12   2.59252e-10 DIIS
   @UHF iter  10:   -98.19083407929250    2.84217e-14   1.48975e-12 DIIS
   @UHF iter  11:   -98.19083407929250    0.00000e+00   5.41851e-14 DIIS

  ==> Post-Iterations <==

   @Spin Contamination Metric:   2.709944135E-03
   @S^2 Expected:                7.500000000E-01
   @S^2 Observed:                7.527099441E-01
   @S   Expected:                5.000000000E-01
   @S   Observed:                5.000000000E-01

    Orbital Energies (a.u.)
    -----------------------

    Alpha Occupied:                                                       

       1A1   -26.874404     2A1    -2.223337     1B2    -1.305437  
       3A1    -1.274400     1B1    -1.197897  

    Alpha Virtual:                                                        

       4A1    -0.052935  

    Beta Occupied:                                                        

       1A1   -26.842614     2A1    -2.025654     3A1    -1.214259  
       1B1    -1.140536  

    Beta Virtual:                                                         

       1B2    -0.304333     4A1    -0.033590  

    Final Occupation by Irrep:
             A1    A2    B1    B2 
    DOCC [     3,    0,    1,    0 ]
    SOCC [     0,    0,    0,    1 ]

  Energy converged.

  @UHF Final Energy:   -98.19083407929250

   => Energetics <=

    Nuclear Repulsion Energy =              4.7625948773099998
    One-Electron Energy =                -141.8083197187785629
    Two-Electron Energy =                  38.8548907621760762
    DFT Exchange-Correlation Energy =       0.0000000000000000
    Empirical Dispersion Energy =           0.0000000000000000
    PCM Polarization Energy =               0.0000000000000000
    EFP Energy =                            0.0000000000000000
    Total Energy =                        -98.1908340792925003


  UHF NO Occupations:
  HONO-2 :    2 A1 2.0000000
  HONO-1 :    3 A1 1.9986441
  HONO-0 :    1 B2 1.0000000
  LUNO+0 :    4 A1 0.0013559



Properties will be evaluated at   0.000000,   0.000000,   0.000000 Bohr

Properties computed using the SCF density matrix

  Nuclear Dipole Moment: (a.u.)
     X:     0.0000      Y:     0.0000      Z:    -0.9378

  Electronic Dipole Moment: (a.u.)
     X:     0.0000      Y:     0.0000      Z:    -0.1219

  Dipole Moment: (a.u.)
     X:     0.0000      Y:     0.0000      Z:    -1.0596     Total:     1.0596

  Dipole Moment: (Debye)
     X:     0.0000      Y:     0.0000      Z:    -2.6933     Total:     2.6933


*** tstop() called on psinet at Mon May 15 15:35:21 2017
Module time:
	user time   =       0.11 seconds =       0.00 minutes
	system time =       0.01 seconds =       0.00 minutes
	total time  =          0 seconds =       0.00 minutes
Total time:
	user time   =       0.11 seconds =       0.00 minutes
	system time =       0.01 seconds =       0.00 minutes
	total time  =          0 seconds =       0.00 minutes
 MINTS: Wrapper to libmints.
   by Justin Turney

   Calculation information:
      Number of threads:                 1
      Number of atoms:                   2
      Number of AO shells:               4
      Number of SO shells:               4
      Number of primitives:             12
      Number of atomic orbitals:         6
      Number of basis functions:         6

      Number of irreps:                  4
      Integral cutoff                 0.00e+00
      Number of functions per irrep: [   4    0    1    1 ]

 OEINTS: Overlap, kinetic, potential, dipole, and quadrupole integrals
         stored in file 35.

      Computing two-electron integrals...done
      Computed 83 non-zero two-electron integrals.
        Stored in file 33.


*** tstart() called on psinet
*** at Mon May 15 15:35:21 2017



	***********************************************************************************
	*                        Density Cumulant Functional Theory                       *
	*                by Alexander Sokolov, Andy Simmonett, and Xiao Wang              *
	***********************************************************************************


	Transforming two-electron integrals (transformation type: unrestricted)...
	Computing MP2 amplitude guess...

	*Total Hartree-Fock energy        =  -98.190834079292500
	 Alpha - Alpha MP2 energy         =    0.000000000000000
	 Alpha - Beta  MP2 energy         =   -0.011871429526987
	 Beta  - Beta  MP2 energy         =    0.000000000000000
	 Total MP2 correlation energy     =   -0.011871429526987
	*Total MP2 energy                 =  -98.202705508819491

	DCFT Functional:    		 DC-06
	DCFT Type:          		 CONV
	Algorithm:          		 TWOSTEP
	AO-Basis Integrals: 		 NONE

	*=================================================================================*
	* Cycle  RMS [F, Kappa]   RMS Lambda Error   delta E        Total Energy     DIIS *
	*---------------------------------------------------------------------------------*
	                          *** Macro Iteration 1 ***
	Cumulant Iterations
	* 1        6.536e-15         1.519e-02     -2.295e-02    -98.225657510160076      *
	* 2        6.536e-15         5.817e-03     -4.304e-03    -98.229961070719824      *
	* 3        6.536e-15         2.926e-03     -1.778e-03    -98.231739171287259      *
	* 4        6.536e-15         1.838e-03     -8.474e-04    -98.232586548616268      *
	* 5        6.536e-15         1.268e-03     -4.732e-04    -98.233059699876506      *
	* 6        6.536e-15         9.014e-04     -2.987e-04    -98.233358444541750  S   *
	* 7        6.536e-15         6.468e-04     -2.030e-04    -98.233561468418714  S   *
	* 8        6.536e-15         4.658e-04     -3.491e-04    -98.233910610390936  S/E *
	* 9        6.536e-15         4.647e-06     -1.657e-04    -98.234076332731803  S/E *
	* 10       6.536e-15         2.448e-07     -5.409e-08    -98.234076386821116  S/E *
	* 11       6.536e-15         6.586e-09      9.207e-08    -98.234076294750551  S/E *
	* 12       6.536e-15         1.434e-09      4.930e-10    -98.234076294257505  S/E *
	* 13       6.536e-15         4.445e-11     -3.992e-11    -98.234076294297424  S/E *
	* 14       6.536e-15         9.534e-12      1.677e-12    -98.234076294295747  S/E *
	* 15       6.536e-15         1.810e-12      8.669e-13    -98.234076294294880  S/E *
	* 16       6.536e-15         7.238e-13      2.274e-13    -98.234076294294653  S/E *
	Orbital Updates
	* 1        5.925e-04         7.238e-13      2.615e-02    -98.207921456447778  S   *
	* 2        8.498e-05         7.238e-13     -4.789e-06    -98.207926245112006  S   *
	* 3        2.884e-05         7.238e-13     -1.148e-07    -98.207926359937900  S   *
	* 4        1.779e-05         7.238e-13     -1.857e-08    -98.207926378505235  S/E *
	* 5        2.262e-07         7.238e-13     -1.281e-08    -98.207926391315127  S/E *
	* 6        7.665e-09         7.238e-13     -1.080e-12    -98.207926391316207  S/E *
	* 7        1.655e-09         7.238e-13      1.421e-14    -98.207926391316192  S/E *
	* 8        7.851e-13         7.238e-13     -2.842e-14    -98.207926391316221  S/E *
	                          *** Macro Iteration 2 ***
	Cumulant Iterations
	* 1        7.851e-13         3.359e-04      1.894e-04    -98.207737026083180  S   *
	* 2        7.851e-13         8.236e-05      5.186e-05    -98.207685166362396  S   *
	* 3        7.851e-13         2.489e-05      2.102e-05    -98.207664149982833  S/E *
	* 4        7.851e-13         2.091e-06      2.491e-06    -98.207661659335940  S/E *
	* 5        7.851e-13         6.085e-07     -3.354e-07    -98.207661994779528  S/E *
	* 6        7.851e-13         3.364e-07     -2.997e-07    -98.207662294455517  S/E *
	* 7        7.851e-13         6.367e-08     -1.104e-07    -98.207662404820809  S/E *
	* 8        7.851e-13         9.594e-09     -3.522e-09    -98.207662408342728  S/E *
	* 9        7.851e-13         1.576e-09     -1.892e-10    -98.207662408531974  S/E *
	* 10       7.851e-13         7.390e-12      4.974e-13    -98.207662408531476  S/E *
	* 11       7.851e-13         2.064e-12      1.165e-12    -98.207662408530311  S/E *
	* 12       7.851e-13         9.032e-13      4.405e-13    -98.207662408529870  S/E *
	Orbital Updates
	* 1        5.878e-06         9.032e-13     -1.560e-04    -98.207818391145267  S   *
	* 2        1.846e-06         9.032e-13     -5.447e-10    -98.207818391690012  S   *
	* 3        1.124e-06         9.032e-13     -7.532e-11    -98.207818391765329  S   *
	* 4        7.283e-07         9.032e-13     -2.937e-11    -98.207818391794703  S/E *
	* 5        2.468e-09         9.032e-13     -2.157e-11    -98.207818391816275  S/E *
	* 6        1.957e-10         9.032e-13      2.842e-14    -98.207818391816247  S/E *
	* 7        1.741e-11         9.032e-13     -5.684e-14    -98.207818391816303  S/E *
	* 8        1.605e-13         9.032e-13      2.842e-14    -98.207818391816275  S/E *
	                          *** Macro Iteration 3 ***
	Cumulant Iterations
	* 1        1.605e-13         1.821e-06     -1.565e-06    -98.207819956329118  S   *
	* 2        1.605e-13         4.882e-07     -3.313e-07    -98.207820287604136  S   *
	* 3        1.605e-13         1.679e-07     -1.122e-07    -98.207820399836223  S/E *
	* 4        1.605e-13         4.859e-08      1.887e-08    -98.207820380967703  S/E *
	* 5        1.605e-13         1.452e-08      2.174e-08    -98.207820359228549  S/E *
	* 6        1.605e-13         2.968e-09      5.365e-09    -98.207820353863980  S/E *
	* 7        1.605e-13         5.937e-10      4.231e-10    -98.207820353440866  S/E *
	* 8        1.605e-13         5.709e-11      6.338e-12    -98.207820353434528  S/E *
	* 9        1.605e-13         1.588e-11      1.137e-13    -98.207820353434414  S/E *
	* 10       1.605e-13         9.558e-13     -4.263e-14    -98.207820353434457  S/E *
	Orbital Updates
	* 1        1.044e-07         9.558e-13      1.111e-06    -98.207819242731631  S   *
	* 2        6.167e-08         9.558e-13     -2.416e-13    -98.207819242731873  S   *
	* 3        3.985e-08         9.558e-13     -8.527e-14    -98.207819242731958  S   *
	* 4        2.589e-08         9.558e-13     -2.842e-14    -98.207819242731986  S/E *
	* 5        1.582e-11         9.558e-13     -7.105e-14    -98.207819242732057  S/E *
	* 6        4.326e-12         9.558e-13      2.842e-14    -98.207819242732029  S/E *
	* 7        1.989e-13         9.558e-13     -1.421e-14    -98.207819242732043  S/E *
	                          *** Macro Iteration 4 ***
	Cumulant Iterations
	* 1        1.989e-13         2.480e-08      5.218e-09    -98.207819237513633  S   *
	* 2        1.989e-13         8.682e-09     -7.446e-11    -98.207819237588097  S   *
	* 3        1.989e-13         4.828e-09     -2.310e-09    -98.207819239898527  S/E *
	* 4        1.989e-13         7.113e-10     -1.757e-09    -98.207819241655216  S/E *
	* 5        1.989e-13         1.027e-10     -2.613e-10    -98.207819241916468  S/E *
	* 6        1.989e-13         2.539e-11     -9.223e-12    -98.207819241925691  S/E *
	* 7        1.989e-13         6.468e-12      2.188e-12    -98.207819241923502  S/E *
	* 8        1.989e-13         1.816e-12      8.527e-13    -98.207819241922650  S/E *
	* 9        1.989e-13         5.789e-13      2.416e-13    -98.207819241922408  S/E *
	Orbital Updates
	* 1        3.289e-09         5.789e-13      1.630e-09    -98.207819240292679  S   *
	* 2        2.116e-09         5.789e-13     -2.842e-14    -98.207819240292707  S   *
	* 3        1.372e-09         5.789e-13      1.421e-14    -98.207819240292693  S   *
	* 4        8.914e-10         5.789e-13      2.842e-14    -98.207819240292665  S/E *
	* 5        5.559e-12         5.789e-13     -1.421e-14    -98.207819240292679  S/E *
	* 6        1.575e-12         5.789e-13     -1.421e-14    -98.207819240292693  S/E *
	* 7        8.364e-14         5.789e-13      2.842e-14    -98.207819240292665  S/E *
	                          *** Macro Iteration 5 ***
	Cumulant Iterations
	* 1        8.364e-14         8.682e-10      2.782e-10    -98.207819240014473  S   *
	* 2        8.364e-14         3.193e-10      1.100e-10    -98.207819239904495  S   *
	* 3        8.364e-14         1.800e-10      1.487e-10    -98.207819239755779  S/E *
	* 4        8.364e-14         1.667e-11      6.146e-11    -98.207819239694317  S/E *
	* 5        8.364e-14         7.450e-12     -2.984e-13    -98.207819239694615  S/E *
	* 6        8.364e-14         4.840e-13     -1.279e-13    -98.207819239694743  S/E *
	Orbital Updates
	* 1        1.123e-10         4.840e-13     -4.295e-10    -98.207819240124195  S   *
	* 2        7.221e-11         4.840e-13      5.684e-14    -98.207819240124138  S   *
	* 3        4.681e-11         4.840e-13     -5.684e-14    -98.207819240124195  S   *
	* 4        3.042e-11         4.840e-13      2.842e-14    -98.207819240124167  S/E *
	* 5        1.018e-12         4.840e-13     -1.421e-14    -98.207819240124181  S/E *
	* 6        2.907e-13         4.840e-13     -2.842e-14    -98.207819240124209  S/E *
	                          *** Macro Iteration 6 ***
	Cumulant Iterations
	* 1        2.907e-13         3.132e-11     -1.377e-11    -98.207819240137979  S   *
	* 2        2.907e-13         1.141e-11     -4.746e-12    -98.207819240142726  S   *
	* 3        2.907e-13         6.344e-12     -3.283e-12    -98.207819240146009  S/E *
	* 4        2.907e-13         3.717e-12     -1.819e-12    -98.207819240147828  S/E *
	* 5        2.907e-13         2.485e-12     -1.023e-12    -98.207819240148851  S/E *
	* 6        2.907e-13         1.652e-12     -6.963e-13    -98.207819240149547  S/E *
	* 7        2.907e-13         1.028e-12     -6.253e-13    -98.207819240150172  S/E *
	* 8        2.907e-13         3.835e-13     -2.984e-13    -98.207819240150471  S/E *
	Orbital Updates
	* 1        3.824e-12         3.835e-13      1.822e-11    -98.207819240132253  S   *
	* 2        2.443e-12         3.835e-13      2.842e-14    -98.207819240132224  S   *
	* 3        1.581e-12         3.835e-13     -1.421e-14    -98.207819240132238  S   *
	* 4        1.027e-12         3.835e-13      1.421e-14    -98.207819240132224  S/E *
	* 5        4.706e-14         3.835e-13     -4.263e-14    -98.207819240132267  S/E *
	                          *** Macro Iteration 7 ***
	Cumulant Iterations
	* 1        4.706e-14         1.170e-12      4.832e-13    -98.207819240131784  S   *
	* 2        4.706e-14         4.203e-13      1.847e-13    -98.207819240131599  S   *
	Orbital Updates
	* 1        1.266e-13         4.203e-13     -4.832e-13    -98.207819240132082  S   *
	*=================================================================================*

	*   DC-06 SCF Energy                                 =     -98.164839047680061
	*   DC-06 Lambda Energy                              =      -0.042980192452025
	*   DC-06 Total Energy                               =     -98.207819240132082

	Orbital occupations:
		Alpha occupied orbitals
		   1A1       1.0000     2A1       0.9999     1B1       0.9999     1B2       0.9985  
		   3A1       0.9917  

		Beta occupied orbitals
		   1A1       1.0000     1B1       0.9999     2A1       0.9998     3A1       0.9903  
		

		Alpha virtual orbitals
		   4A1       0.0100  

		Beta virtual orbitals
		   4A1       0.0085     1B2       0.0015  


*** tstop() called on psinet at Mon May 15 15:35:22 2017
Module time:
	user time   =       0.18 seconds =       0.00 minutes
	system time =       0.32 seconds =       0.01 minutes
	total time  =          1 seconds =       0.02 minutes
Total time:
	user time   =       0.31 seconds =       0.01 minutes
	system time =       0.33 seconds =       0.01 minutes
	total time  =          1 seconds =       0.02 minutes
	SCF Energy........................................................PASSED
	MP2 Energy........................................................PASSED
	DC-06 SCF Energy (two-step, ao_basis=none)........................PASSED
	DC-06 Energy (two-step, ao_basis=none)............................PASSED

*** tstart() called on psinet
*** at Mon May 15 15:35:22 2017

   => Loading Basis Set <=

    Name: STO-3G
    Role: ORBITAL
    Keyword: BASIS
    atoms 1 entry H          line    18 file /home/psilocaluser/gits/hrw-direct/objdir4/stage/usr/local/psi4/share/psi4/basis/sto-3g.gbs 
    atoms 2 entry F          line    90 file /home/psilocaluser/gits/hrw-direct/objdir4/stage/usr/local/psi4/share/psi4/basis/sto-3g.gbs 


         ---------------------------------------------------------
                                   SCF
            by Justin Turney, Rob Parrish, and Andy Simmonett
                              UHF Reference
                        1 Threads,    500 MiB Core
         ---------------------------------------------------------

  ==> Geometry <==

    Molecular point group: c2v
    Full point group: C_inf_v

    Geometry (in Angstrom), charge = 1, multiplicity = 2:

       Center              X                  Y                   Z               Mass       
    ------------   -----------------  -----------------  -----------------  -----------------
           H          0.000000000000     0.000000000000    -0.949624435992     1.007825032070
           F          0.000000000000     0.000000000000     0.050375564008    18.998403224000

  Running in c2v symmetry.

  Rotational constants: A = ************  B =     17.61406  C =     17.61406 [cm^-1]
  Rotational constants: A = ************  B = 528056.23332  C = 528056.23332 [MHz]
  Nuclear repulsion =    4.762594877310000

  Charge       = 1
  Multiplicity = 2
  Electrons    = 9
  Nalpha       = 5
  Nbeta        = 4

  ==> Algorithm <==

  SCF Algorithm Type is PK.
  DIIS enabled.
  MOM disabled.
  Fractional occupation disabled.
  Guess Type is GWH.
  Energy threshold   = 1.00e-08
  Density threshold  = 1.00e-12
  Integral threshold = 0.00e+00

  ==> Primary Basis <==

  Basis Set: STO-3G
    Blend: STO-3G
    Number of shells: 4
    Number of basis function: 6
    Number of Cartesian functions: 6
    Spherical Harmonics?: true
    Max angular momentum: 1

  ==> Pre-Iterations <==

   -------------------------------------------------------
    Irrep   Nso     Nmo     Nalpha   Nbeta   Ndocc  Nsocc
   -------------------------------------------------------
     A1         4       4       0       0       0       0
     A2         0       0       0       0       0       0
     B1         1       1       0       0       0       0
     B2         1       1       0       0       0       0
   -------------------------------------------------------
    Total       6       6       5       4       4       1
   -------------------------------------------------------

  ==> Integral Setup <==

  Using in-core PK algorithm.
   Calculation information:
      Number of atoms:                   2
      Number of AO shells:               4
      Number of primitives:             12
      Number of atomic orbitals:         6
      Number of basis functions:         6

      Integral cutoff                 1.00e-12
      Number of threads:                 1

  Performing in-core PK
  Using 462 doubles for integral storage.
  We computed 55 shell quartets total.
  Whereas there are 55 unique shell quartets.
  ==> DiskJK: Disk-Based J/K Matrices <==

    J tasked:                  Yes
    K tasked:                  Yes
    wK tasked:                  No
    Memory (MB):               375
    Schwarz Cutoff:          1E-12

    OpenMP threads:              1
  Minimum eigenvalue in the overlap matrix is 4.6927029010E-01.
  Using Symmetric Orthogonalization.

  SCF Guess: Generalized Wolfsberg-Helmholtz.

  ==> Iterations <==

                        Total Energy        Delta E     RMS |[F,P]|

   @UHF iter   1:   -98.01241588183251   -9.80124e+01   1.43031e-01 
   @UHF iter   2:   -98.17816155724050   -1.65746e-01   2.81732e-02 DIIS
   @UHF iter   3:   -98.19058868323246   -1.24271e-02   3.57835e-03 DIIS
   @UHF iter   4:   -98.19080145501356   -2.12772e-04   8.86516e-04 DIIS
   @UHF iter   5:   -98.19083092905989   -2.94740e-05   2.80025e-04 DIIS
   @UHF iter   6:   -98.19083403513193   -3.10607e-06   5.02927e-05 DIIS
   @UHF iter   7:   -98.19083407823692   -4.31050e-08   7.96433e-06 DIIS
   @UHF iter   8:   -98.19083407928990   -1.05298e-09   3.89280e-07 DIIS
   @UHF iter   9:   -98.19083407929253   -2.62901e-12   2.59252e-10 DIIS
   @UHF iter  10:   -98.19083407929250    2.84217e-14   1.48975e-12 DIIS
   @UHF iter  11:   -98.19083407929250    0.00000e+00   5.41851e-14 DIIS

  ==> Post-Iterations <==

   @Spin Contamination Metric:   2.709944135E-03
   @S^2 Expected:                7.500000000E-01
   @S^2 Observed:                7.527099441E-01
   @S   Expected:                5.000000000E-01
   @S   Observed:                5.000000000E-01

    Orbital Energies (a.u.)
    -----------------------

    Alpha Occupied:                                                       

       1A1   -26.874404     2A1    -2.223337     1B2    -1.305437  
       3A1    -1.274400     1B1    -1.197897  

    Alpha Virtual:                                                        

       4A1    -0.052935  

    Beta Occupied:                                                        

       1A1   -26.842614     2A1    -2.025654     3A1    -1.214259  
       1B1    -1.140536  

    Beta Virtual:                                                         

       1B2    -0.304333     4A1    -0.033590  

    Final Occupation by Irrep:
             A1    A2    B1    B2 
    DOCC [     3,    0,    1,    0 ]
    SOCC [     0,    0,    0,    1 ]

  Energy converged.

  @UHF Final Energy:   -98.19083407929250

   => Energetics <=

    Nuclear Repulsion Energy =              4.7625948773099998
    One-Electron Energy =                -141.8083197187785629
    Two-Electron Energy =                  38.8548907621760762
    DFT Exchange-Correlation Energy =       0.0000000000000000
    Empirical Dispersion Energy =           0.0000000000000000
    PCM Polarization Energy =               0.0000000000000000
    EFP Energy =                            0.0000000000000000
    Total Energy =                        -98.1908340792925003


  UHF NO Occupations:
  HONO-2 :    2 A1 2.0000000
  HONO-1 :    3 A1 1.9986441
  HONO-0 :    1 B2 1.0000000
  LUNO+0 :    4 A1 0.0013559



Properties will be evaluated at   0.000000,   0.000000,   0.000000 Bohr

Properties computed using the SCF density matrix

  Nuclear Dipole Moment: (a.u.)
     X:     0.0000      Y:     0.0000      Z:    -0.9378

  Electronic Dipole Moment: (a.u.)
     X:     0.0000      Y:     0.0000      Z:    -0.1219

  Dipole Moment: (a.u.)
     X:     0.0000      Y:     0.0000      Z:    -1.0596     Total:     1.0596

  Dipole Moment: (Debye)
     X:     0.0000      Y:     0.0000      Z:    -2.6933     Total:     2.6933


*** tstop() called on psinet at Mon May 15 15:35:22 2017
Module time:
	user time   =       0.12 seconds =       0.00 minutes
	system time =       0.01 seconds =       0.00 minutes
	total time  =          0 seconds =       0.00 minutes
Total time:
	user time   =       0.43 seconds =       0.01 minutes
	system time =       0.34 seconds =       0.01 minutes
	total time  =          1 seconds =       0.02 minutes
 MINTS: Wrapper to libmints.
   by Justin Turney

   Calculation information:
      Number of threads:                 1
      Number of atoms:                   2
      Number of AO shells:               4
      Number of SO shells:               4
      Number of primitives:             12
      Number of atomic orbitals:         6
      Number of basis functions:         6

      Number of irreps:                  4
      Integral cutoff                 0.00e+00
      Number of functions per irrep: [   4    0    1    1 ]

 OEINTS: Overlap, kinetic, potential, dipole, and quadrupole integrals
         stored in file 35.

      Computing two-electron integrals...done
      Computed 83 non-zero two-electron integrals.
        Stored in file 33.


*** tstart() called on psinet
*** at Mon May 15 15:35:22 2017



	***********************************************************************************
	*                        Density Cumulant Functional Theory                       *
	*                by Alexander Sokolov, Andy Simmonett, and Xiao Wang              *
	***********************************************************************************


	Transforming two-electron integrals (transformation type: unrestricted)...
	Computing MP2 amplitude guess...

	*Total Hartree-Fock energy        =  -98.190834079292500
	 Alpha - Alpha MP2 energy         =    0.000000000000000
	 Alpha - Beta  MP2 energy         =   -0.011871429526987
	 Beta  - Beta  MP2 energy         =    0.000000000000000
	 Total MP2 correlation energy     =   -0.011871429526987
	*Total MP2 energy                 =  -98.202705508819491

	DCFT Functional:    		 DC-06
	DCFT Type:          		 CONV
	Algorithm:          		 SIMULTANEOUS
	AO-Basis Integrals: 		 NONE

	*=================================================================================*
	* Cycle  RMS [F, Kappa]   RMS Lambda Error   delta E        Total Energy     DIIS *
	*---------------------------------------------------------------------------------*
	* 1        2.939e-04         1.508e-02     -1.102e-02    -98.213723488436642      *
	* 2        2.124e-04         5.764e-03      3.466e-03    -98.210257542867438      *
	* 3        9.938e-05         2.908e-03      1.444e-03    -98.208814010486350      *
	* 4        4.497e-05         1.832e-03      5.372e-04    -98.208276771976813      *
	* 5        2.235e-05         1.268e-03      2.057e-04    -98.208071024585536      *
	* 6        1.234e-05         9.035e-04      9.192e-05    -98.207979109479069  S   *
	* 7        7.233e-06         6.496e-04      4.967e-05    -98.207929443866547  S   *
	* 8        4.376e-06         4.686e-04      3.131e-05    -98.207898134227307  S   *
	* 9        2.715e-06         3.386e-04      2.158e-05    -98.207876555905941  S/E *
	* 10       4.159e-07         4.579e-06      5.942e-05    -98.207817138312180  S/E *
	* 11       2.410e-07         4.652e-06     -4.116e-06    -98.207821254206209  S/E *
	* 12       1.452e-07         1.604e-06      1.383e-06    -98.207819871659026  S/E *
	* 13       5.049e-09         9.610e-07      1.055e-06    -98.207818817118607  S/E *
	* 14       2.251e-10         2.499e-07     -3.125e-07    -98.207819129637031  S/E *
	* 15       2.826e-10         8.261e-08     -7.255e-08    -98.207819202188517  S/E *
	* 16       1.751e-10         2.275e-08     -2.763e-08    -98.207819229815456  S/E *
	* 17       4.107e-11         1.179e-09     -9.750e-09    -98.207819239565367  S/E *
	* 18       4.416e-12         4.036e-10     -3.473e-10    -98.207819239912681  S/E *
	* 19       2.285e-12         6.736e-11     -2.344e-10    -98.207819240147060  S/E *
	* 20       7.294e-13         2.022e-11      2.571e-11    -98.207819240121353  S/E *
	* 21       5.404e-13         3.237e-12     -1.234e-11    -98.207819240133688  S/E *
	* 22       3.358e-13         8.454e-13      1.933e-12    -98.207819240131755  S/E *
	*=================================================================================*

	*   DC-06 SCF Energy                                 =     -98.164839047679507
	*   DC-06 Lambda Energy                              =      -0.042980192452248
	*   DC-06 Total Energy                               =     -98.207819240131755

	Orbital occupations:
		Alpha occupied orbitals
		   1A1       1.0000     2A1       0.9999     1B1       0.9999     1B2       0.9985  
		   3A1       0.9917  

		Beta occupied orbitals
		   1A1       1.0000     1B1       0.9999     2A1       0.9998     3A1       0.9903  
		

		Alpha virtual orbitals
		   4A1       0.0100  

		Beta virtual orbitals
		   4A1       0.0085     1B2       0.0015  


*** tstop() called on psinet at Mon May 15 15:35:23 2017
Module time:
	user time   =       0.12 seconds =       0.00 minutes
	system time =       0.36 seconds =       0.01 minutes
	total time  =          1 seconds =       0.02 minutes
Total time:
	user time   =       0.57 seconds =       0.01 minutes
	system time =       0.70 seconds =       0.01 minutes
	total time  =          2 seconds =       0.03 minutes
	DC-06 SCF Energy (simultaneous, ao_basis=none)....................PASSED
	DC-06 Energy (simultaneous, ao_basis=none)........................PASSED

*** tstart() called on psinet
*** at Mon May 15 15:35:23 2017

   => Loading Basis Set <=

    Name: STO-3G
    Role: ORBITAL
    Keyword: BASIS
    atoms 1 entry H          line    18 file /home/psilocaluser/gits/hrw-direct/objdir4/stage/usr/local/psi4/share/psi4/basis/sto-3g.gbs 
    atoms 2 entry F          line    90 file /home/psilocaluser/gits/hrw-direct/objdir4/stage/usr/local/psi4/share/psi4/basis/sto-3g.gbs 


         ---------------------------------------------------------
                                   SCF
            by Justin Turney, Rob Parrish, and Andy Simmonett
                              UHF Reference
                        1 Threads,    500 MiB Core
         ---------------------------------------------------------

  ==> Geometry <==

    Molecular point group: c2v
    Full point group: C_inf_v

    Geometry (in Angstrom), charge = 1, multiplicity = 2:

       Center              X                  Y                   Z               Mass       
    ------------   -----------------  -----------------  -----------------  -----------------
           H          0.000000000000     0.000000000000    -0.949624435992     1.007825032070
           F          0.000000000000     0.000000000000     0.050375564008    18.998403224000

  Running in c2v symmetry.

  Rotational constants: A = ************  B =     17.61406  C =     17.61406 [cm^-1]
  Rotational constants: A = ************  B = 528056.23332  C = 528056.23332 [MHz]
  Nuclear repulsion =    4.762594877310000

  Charge       = 1
  Multiplicity = 2
  Electrons    = 9
  Nalpha       = 5
  Nbeta        = 4

  ==> Algorithm <==

  SCF Algorithm Type is PK.
  DIIS enabled.
  MOM disabled.
  Fractional occupation disabled.
  Guess Type is GWH.
  Energy threshold   = 1.00e-08
  Density threshold  = 1.00e-12
  Integral threshold = 0.00e+00

  ==> Primary Basis <==

  Basis Set: STO-3G
    Blend: STO-3G
    Number of shells: 4
    Number of basis function: 6
    Number of Cartesian functions: 6
    Spherical Harmonics?: true
    Max angular momentum: 1

  ==> Pre-Iterations <==

   -------------------------------------------------------
    Irrep   Nso     Nmo     Nalpha   Nbeta   Ndocc  Nsocc
   -------------------------------------------------------
     A1         4       4       0       0       0       0
     A2         0       0       0       0       0       0
     B1         1       1       0       0       0       0
     B2         1       1       0       0       0       0
   -------------------------------------------------------
    Total       6       6       5       4       4       1
   -------------------------------------------------------

  ==> Integral Setup <==

  Using in-core PK algorithm.
   Calculation information:
      Number of atoms:                   2
      Number of AO shells:               4
      Number of primitives:             12
      Number of atomic orbitals:         6
      Number of basis functions:         6

      Integral cutoff                 1.00e-12
      Number of threads:                 1

  Performing in-core PK
  Using 462 doubles for integral storage.
  We computed 55 shell quartets total.
  Whereas there are 55 unique shell quartets.
  ==> DiskJK: Disk-Based J/K Matrices <==

    J tasked:                  Yes
    K tasked:                  Yes
    wK tasked:                  No
    Memory (MB):               375
    Schwarz Cutoff:          1E-12

    OpenMP threads:              1
  Minimum eigenvalue in the overlap matrix is 4.6927029010E-01.
  Using Symmetric Orthogonalization.

  SCF Guess: Generalized Wolfsberg-Helmholtz.

  ==> Iterations <==

                        Total Energy        Delta E     RMS |[F,P]|

   @UHF iter   1:   -98.01241588183251   -9.80124e+01   1.43031e-01 
   @UHF iter   2:   -98.17816155724050   -1.65746e-01   2.81732e-02 DIIS
   @UHF iter   3:   -98.19058868323246   -1.24271e-02   3.57835e-03 DIIS
   @UHF iter   4:   -98.19080145501356   -2.12772e-04   8.86516e-04 DIIS
   @UHF iter   5:   -98.19083092905989   -2.94740e-05   2.80025e-04 DIIS
   @UHF iter   6:   -98.19083403513193   -3.10607e-06   5.02927e-05 DIIS
   @UHF iter   7:   -98.19083407823692   -4.31050e-08   7.96433e-06 DIIS
   @UHF iter   8:   -98.19083407928990   -1.05298e-09   3.89280e-07 DIIS
   @UHF iter   9:   -98.19083407929253   -2.62901e-12   2.59252e-10 DIIS
   @UHF iter  10:   -98.19083407929250    2.84217e-14   1.48975e-12 DIIS
   @UHF iter  11:   -98.19083407929250    0.00000e+00   5.41851e-14 DIIS

  ==> Post-Iterations <==

   @Spin Contamination Metric:   2.709944135E-03
   @S^2 Expected:                7.500000000E-01
   @S^2 Observed:                7.527099441E-01
   @S   Expected:                5.000000000E-01
   @S   Observed:                5.000000000E-01

    Orbital Energies (a.u.)
    -----------------------

    Alpha Occupied:                                                       

       1A1   -26.874404     2A1    -2.223337     1B2    -1.305437  
       3A1    -1.274400     1B1    -1.197897  

    Alpha Virtual:                                                        

       4A1    -0.052935  

    Beta Occupied:                                                        

       1A1   -26.842614     2A1    -2.025654     3A1    -1.214259  
       1B1    -1.140536  

    Beta Virtual:                                                         

       1B2    -0.304333     4A1    -0.033590  

    Final Occupation by Irrep:
             A1    A2    B1    B2 
    DOCC [     3,    0,    1,    0 ]
    SOCC [     0,    0,    0,    1 ]

  Energy converged.

  @UHF Final Energy:   -98.19083407929250

   => Energetics <=

    Nuclear Repulsion Energy =              4.7625948773099998
    One-Electron Energy =                -141.8083197187785629
    Two-Electron Energy =                  38.8548907621760762
    DFT Exchange-Correlation Energy =       0.0000000000000000
    Empirical Dispersion Energy =           0.0000000000000000
    PCM Polarization Energy =               0.0000000000000000
    EFP Energy =                            0.0000000000000000
    Total Energy =                        -98.1908340792925003


  UHF NO Occupations:
  HONO-2 :    2 A1 2.0000000
  HONO-1 :    3 A1 1.9986441
  HONO-0 :    1 B2 1.0000000
  LUNO+0 :    4 A1 0.0013559



Properties will be evaluated at   0.000000,   0.000000,   0.000000 Bohr

Properties computed using the SCF density matrix

  Nuclear Dipole Moment: (a.u.)
     X:     0.0000      Y:     0.0000      Z:    -0.9378

  Electronic Dipole Moment: (a.u.)
     X:     0.0000      Y:     0.0000      Z:    -0.1219

  Dipole Moment: (a.u.)
     X:     0.0000      Y:     0.0000      Z:    -1.0596     Total:     1.0596

  Dipole Moment: (Debye)
     X:     0.0000      Y:     0.0000      Z:    -2.6933     Total:     2.6933


*** tstop() called on psinet at Mon May 15 15:35:23 2017
Module time:
	user time   =       0.11 seconds =       0.00 minutes
	system time =       0.01 seconds =       0.00 minutes
	total time  =          0 seconds =       0.00 minutes
Total time:
	user time   =       0.69 seconds =       0.01 minutes
	system time =       0.71 seconds =       0.01 minutes
	total time  =          2 seconds =       0.03 minutes
 MINTS: Wrapper to libmints.
   by Justin Turney

   Calculation information:
      Number of threads:                 1
      Number of atoms:                   2
      Number of AO shells:               4
      Number of SO shells:               4
      Number of primitives:             12
      Number of atomic orbitals:         6
      Number of basis functions:         6

      Number of irreps:                  4
      Integral cutoff                 0.00e+00
      Number of functions per irrep: [   4    0    1    1 ]

 OEINTS: Overlap, kinetic, potential, dipole, and quadrupole integrals
         stored in file 35.

      Computing two-electron integrals...done
      Computed 83 non-zero two-electron integrals.
        Stored in file 33.


*** tstart() called on psinet
*** at Mon May 15 15:35:23 2017



	***********************************************************************************
	*                        Density Cumulant Functional Theory                       *
	*                by Alexander Sokolov, Andy Simmonett, and Xiao Wang              *
	***********************************************************************************


	Transforming two-electron integrals (transformation type: unrestricted)...
	Computing MP2 amplitude guess...

	*Total Hartree-Fock energy        =  -98.190834079292500
	 Alpha - Alpha MP2 energy         =    0.000000000000000
	 Alpha - Beta  MP2 energy         =   -0.011871429526987
	 Beta  - Beta  MP2 energy         =    0.000000000000000
	 Total MP2 correlation energy     =   -0.011871429526987
	*Total MP2 energy                 =  -98.202705508819491

	DCFT Functional:    		 DC-06
	DCFT Type:          		 CONV
	Algorithm:          		 TWOSTEP
	AO-Basis Integrals: 		 DISK

	*=================================================================================*
	* Cycle  RMS [F, Kappa]   RMS Lambda Error   delta E        Total Energy     DIIS *
	*---------------------------------------------------------------------------------*
	                          *** Macro Iteration 1 ***
	Cumulant Iterations
	* 1        6.536e-15         1.519e-02     -2.295e-02    -98.225657510160076      *
	* 2        6.536e-15         5.817e-03     -4.304e-03    -98.229961070719824      *
	* 3        6.536e-15         2.926e-03     -1.778e-03    -98.231739171287259      *
	* 4        6.536e-15         1.838e-03     -8.474e-04    -98.232586548616268      *
	* 5        6.536e-15         1.268e-03     -4.732e-04    -98.233059699876506      *
	* 6        6.536e-15         9.014e-04     -2.987e-04    -98.233358444541750  S   *
	* 7        6.536e-15         6.468e-04     -2.030e-04    -98.233561468418714  S   *
	* 8        6.536e-15         4.658e-04     -3.491e-04    -98.233910610390936  S/E *
	* 9        6.536e-15         4.647e-06     -1.657e-04    -98.234076332731803  S/E *
	* 10       6.536e-15         2.448e-07     -5.409e-08    -98.234076386821116  S/E *
	* 11       6.536e-15         6.586e-09      9.207e-08    -98.234076294750551  S/E *
	* 12       6.536e-15         1.434e-09      4.930e-10    -98.234076294257505  S/E *
	* 13       6.536e-15         4.445e-11     -3.992e-11    -98.234076294297424  S/E *
	* 14       6.536e-15         9.534e-12      1.677e-12    -98.234076294295747  S/E *
	* 15       6.536e-15         1.810e-12      8.669e-13    -98.234076294294880  S/E *
	* 16       6.536e-15         7.238e-13      2.274e-13    -98.234076294294653  S/E *
	Orbital Updates
	* 1        5.925e-04         7.238e-13      2.615e-02    -98.207921456447778  S   *
	* 2        8.498e-05         7.238e-13     -4.789e-06    -98.207926245112006  S   *
	* 3        2.884e-05         7.238e-13     -1.148e-07    -98.207926359937900  S   *
	* 4        1.779e-05         7.238e-13     -1.857e-08    -98.207926378505235  S/E *
	* 5        2.262e-07         7.238e-13     -1.281e-08    -98.207926391315127  S/E *
	* 6        7.665e-09         7.238e-13     -1.080e-12    -98.207926391316207  S/E *
	* 7        1.655e-09         7.238e-13      1.421e-14    -98.207926391316192  S/E *
	* 8        7.851e-13         7.238e-13     -2.842e-14    -98.207926391316221  S/E *
	                          *** Macro Iteration 2 ***
	Cumulant Iterations
	* 1        7.851e-13         3.359e-04      1.894e-04    -98.207737026083180  S   *
	* 2        7.851e-13         8.236e-05      5.186e-05    -98.207685166362396  S   *
	* 3        7.851e-13         2.489e-05      2.102e-05    -98.207664149982833  S/E *
	* 4        7.851e-13         2.091e-06      2.491e-06    -98.207661659335940  S/E *
	* 5        7.851e-13         6.085e-07     -3.354e-07    -98.207661994779528  S/E *
	* 6        7.851e-13         3.364e-07     -2.997e-07    -98.207662294455517  S/E *
	* 7        7.851e-13         6.367e-08     -1.104e-07    -98.207662404820809  S/E *
	* 8        7.851e-13         9.594e-09     -3.522e-09    -98.207662408342728  S/E *
	* 9        7.851e-13         1.576e-09     -1.892e-10    -98.207662408531974  S/E *
	* 10       7.851e-13         7.390e-12      4.974e-13    -98.207662408531476  S/E *
	* 11       7.851e-13         2.064e-12      1.165e-12    -98.207662408530311  S/E *
	* 12       7.851e-13         9.033e-13      4.405e-13    -98.207662408529870  S/E *
	Orbital Updates
	* 1        5.878e-06         9.033e-13     -1.560e-04    -98.207818391145267  S   *
	* 2        1.846e-06         9.033e-13     -5.447e-10    -98.207818391690012  S   *
	* 3        1.124e-06         9.033e-13     -7.532e-11    -98.207818391765329  S   *
	* 4        7.283e-07         9.033e-13     -2.937e-11    -98.207818391794703  S/E *
	* 5        2.468e-09         9.033e-13     -2.157e-11    -98.207818391816275  S/E *
	* 6        1.957e-10         9.033e-13      2.842e-14    -98.207818391816247  S/E *
	* 7        1.741e-11         9.033e-13     -5.684e-14    -98.207818391816303  S/E *
	* 8        1.605e-13         9.033e-13      2.842e-14    -98.207818391816275  S/E *
	                          *** Macro Iteration 3 ***
	Cumulant Iterations
	* 1        1.605e-13         1.821e-06     -1.565e-06    -98.207819956329118  S   *
	* 2        1.605e-13         4.882e-07     -3.313e-07    -98.207820287604136  S   *
	* 3        1.605e-13         1.679e-07     -1.122e-07    -98.207820399836223  S/E *
	* 4        1.605e-13         4.859e-08      1.887e-08    -98.207820380967703  S/E *
	* 5        1.605e-13         1.452e-08      2.174e-08    -98.207820359228549  S/E *
	* 6        1.605e-13         2.968e-09      5.365e-09    -98.207820353863980  S/E *
	* 7        1.605e-13         5.937e-10      4.231e-10    -98.207820353440866  S/E *
	* 8        1.605e-13         5.709e-11      6.338e-12    -98.207820353434528  S/E *
	* 9        1.605e-13         1.588e-11      1.137e-13    -98.207820353434414  S/E *
	* 10       1.605e-13         9.558e-13     -4.263e-14    -98.207820353434457  S/E *
	Orbital Updates
	* 1        1.044e-07         9.558e-13      1.111e-06    -98.207819242731631  S   *
	* 2        6.167e-08         9.558e-13     -2.416e-13    -98.207819242731873  S   *
	* 3        3.985e-08         9.558e-13     -8.527e-14    -98.207819242731958  S   *
	* 4        2.589e-08         9.558e-13     -2.842e-14    -98.207819242731986  S/E *
	* 5        1.582e-11         9.558e-13     -2.842e-14    -98.207819242732015  S/E *
	* 6        4.325e-12         9.558e-13      0.000e+00    -98.207819242732015  S/E *
	* 7        1.998e-13         9.558e-13     -2.842e-14    -98.207819242732043  S/E *
	                          *** Macro Iteration 4 ***
	Cumulant Iterations
	* 1        1.998e-13         2.480e-08      5.218e-09    -98.207819237513633  S   *
	* 2        1.998e-13         8.682e-09     -7.446e-11    -98.207819237588097  S   *
	* 3        1.998e-13         4.828e-09     -2.310e-09    -98.207819239898527  S/E *
	* 4        1.998e-13         7.113e-10     -1.757e-09    -98.207819241655216  S/E *
	* 5        1.998e-13         1.027e-10     -2.613e-10    -98.207819241916468  S/E *
	* 6        1.998e-13         2.539e-11     -9.223e-12    -98.207819241925691  S/E *
	* 7        1.998e-13         6.468e-12      2.188e-12    -98.207819241923502  S/E *
	* 8        1.998e-13         1.816e-12      8.527e-13    -98.207819241922650  S/E *
	* 9        1.998e-13         5.789e-13      2.416e-13    -98.207819241922408  S/E *
	Orbital Updates
	* 1        3.289e-09         5.789e-13      1.630e-09    -98.207819240292679  S   *
	* 2        2.116e-09         5.789e-13     -4.263e-14    -98.207819240292721  S   *
	* 3        1.372e-09         5.789e-13      4.263e-14    -98.207819240292679  S   *
	* 4        8.914e-10         5.789e-13     -1.421e-14    -98.207819240292693  S/E *
	* 5        5.559e-12         5.789e-13      1.421e-14    -98.207819240292679  S/E *
	* 6        1.575e-12         5.789e-13      1.421e-14    -98.207819240292665  S/E *
	* 7        8.327e-14         5.789e-13      4.263e-14    -98.207819240292622  S/E *
	                          *** Macro Iteration 5 ***
	Cumulant Iterations
	* 1        8.327e-14         8.682e-10      2.782e-10    -98.207819240014430  S   *
	* 2        8.327e-14         3.193e-10      1.100e-10    -98.207819239904453  S   *
	* 3        8.327e-14         1.800e-10      1.487e-10    -98.207819239755736  S/E *
	* 4        8.327e-14         1.667e-11      6.146e-11    -98.207819239694274  S/E *
	* 5        8.327e-14         7.450e-12     -2.984e-13    -98.207819239694572  S/E *
	* 6        8.327e-14         4.840e-13     -1.279e-13    -98.207819239694700  S/E *
	Orbital Updates
	* 1        1.123e-10         4.840e-13     -4.294e-10    -98.207819240124138  S   *
	* 2        7.221e-11         4.840e-13     -8.527e-14    -98.207819240124223  S   *
	* 3        4.681e-11         4.840e-13      5.684e-14    -98.207819240124167  S   *
	* 4        3.042e-11         4.840e-13      1.421e-14    -98.207819240124152  S/E *
	* 5        1.018e-12         4.840e-13     -2.842e-14    -98.207819240124181  S/E *
	* 6        2.910e-13         4.840e-13      4.263e-14    -98.207819240124138  S/E *
	                          *** Macro Iteration 6 ***
	Cumulant Iterations
	* 1        2.910e-13         3.132e-11     -1.377e-11    -98.207819240137908  S   *
	* 2        2.910e-13         1.141e-11     -4.746e-12    -98.207819240142655  S   *
	* 3        2.910e-13         6.344e-12     -3.283e-12    -98.207819240145938  S/E *
	* 4        2.910e-13         3.717e-12     -1.819e-12    -98.207819240147757  S/E *
	* 5        2.910e-13         2.485e-12     -1.023e-12    -98.207819240148780  S/E *
	* 6        2.910e-13         1.652e-12     -6.963e-13    -98.207819240149476  S/E *
	* 7        2.910e-13         1.028e-12     -6.253e-13    -98.207819240150101  S/E *
	* 8        2.910e-13         3.835e-13     -2.984e-13    -98.207819240150400  S/E *
	Orbital Updates
	* 1        3.823e-12         3.835e-13      1.815e-11    -98.207819240132253  S   *
	* 2        2.443e-12         3.835e-13      1.421e-14    -98.207819240132238  S   *
	* 3        1.581e-12         3.835e-13      0.000e+00    -98.207819240132238  S   *
	* 4        1.027e-12         3.835e-13      1.421e-14    -98.207819240132224  S/E *
	* 5        4.684e-14         3.835e-13     -5.684e-14    -98.207819240132281  S/E *
	                          *** Macro Iteration 7 ***
	Cumulant Iterations
	* 1        4.684e-14         1.170e-12      4.832e-13    -98.207819240131798  S   *
	* 2        4.684e-14         4.203e-13      1.847e-13    -98.207819240131613  S   *
	Orbital Updates
	* 1        1.262e-13         4.203e-13     -4.832e-13    -98.207819240132096  S   *
	*=================================================================================*

	*   DC-06 SCF Energy                                 =     -98.164839047680076
	*   DC-06 Lambda Energy                              =      -0.042980192452025
	*   DC-06 Total Energy                               =     -98.207819240132096

	Orbital occupations:
		Alpha occupied orbitals
		   1A1       1.0000     2A1       0.9999     1B1       0.9999     1B2       0.9985  
		   3A1       0.9917  

		Beta occupied orbitals
		   1A1       1.0000     1B1       0.9999     2A1       0.9998     3A1       0.9903  
		

		Alpha virtual orbitals
		   4A1       0.0100  

		Beta virtual orbitals
		   4A1       0.0085     1B2       0.0015  


*** tstop() called on psinet at Mon May 15 15:35:23 2017
Module time:
	user time   =       0.17 seconds =       0.00 minutes
	system time =       0.25 seconds =       0.00 minutes
	total time  =          0 seconds =       0.00 minutes
Total time:
	user time   =       0.87 seconds =       0.01 minutes
	system time =       0.97 seconds =       0.02 minutes
	total time  =          2 seconds =       0.03 minutes
	DC-06 SCF Energy (two-step, ao_basis=disk)........................PASSED
	DC-06 Energy (two-step, ao_basis=disk)............................PASSED

*** tstart() called on psinet
*** at Mon May 15 15:35:23 2017

   => Loading Basis Set <=

    Name: STO-3G
    Role: ORBITAL
    Keyword: BASIS
    atoms 1 entry H          line    18 file /home/psilocaluser/gits/hrw-direct/objdir4/stage/usr/local/psi4/share/psi4/basis/sto-3g.gbs 
    atoms 2 entry F          line    90 file /home/psilocaluser/gits/hrw-direct/objdir4/stage/usr/local/psi4/share/psi4/basis/sto-3g.gbs 


         ---------------------------------------------------------
                                   SCF
            by Justin Turney, Rob Parrish, and Andy Simmonett
                              UHF Reference
                        1 Threads,    500 MiB Core
         ---------------------------------------------------------

  ==> Geometry <==

    Molecular point group: c2v
    Full point group: C_inf_v

    Geometry (in Angstrom), charge = 1, multiplicity = 2:

       Center              X                  Y                   Z               Mass       
    ------------   -----------------  -----------------  -----------------  -----------------
           H          0.000000000000     0.000000000000    -0.949624435992     1.007825032070
           F          0.000000000000     0.000000000000     0.050375564008    18.998403224000

  Running in c2v symmetry.

  Rotational constants: A = ************  B =     17.61406  C =     17.61406 [cm^-1]
  Rotational constants: A = ************  B = 528056.23332  C = 528056.23332 [MHz]
  Nuclear repulsion =    4.762594877310000

  Charge       = 1
  Multiplicity = 2
  Electrons    = 9
  Nalpha       = 5
  Nbeta        = 4

  ==> Algorithm <==

  SCF Algorithm Type is PK.
  DIIS enabled.
  MOM disabled.
  Fractional occupation disabled.
  Guess Type is GWH.
  Energy threshold   = 1.00e-08
  Density threshold  = 1.00e-12
  Integral threshold = 0.00e+00

  ==> Primary Basis <==

  Basis Set: STO-3G
    Blend: STO-3G
    Number of shells: 4
    Number of basis function: 6
    Number of Cartesian functions: 6
    Spherical Harmonics?: true
    Max angular momentum: 1

  ==> Pre-Iterations <==

   -------------------------------------------------------
    Irrep   Nso     Nmo     Nalpha   Nbeta   Ndocc  Nsocc
   -------------------------------------------------------
     A1         4       4       0       0       0       0
     A2         0       0       0       0       0       0
     B1         1       1       0       0       0       0
     B2         1       1       0       0       0       0
   -------------------------------------------------------
    Total       6       6       5       4       4       1
   -------------------------------------------------------

  ==> Integral Setup <==

  Using in-core PK algorithm.
   Calculation information:
      Number of atoms:                   2
      Number of AO shells:               4
      Number of primitives:             12
      Number of atomic orbitals:         6
      Number of basis functions:         6

      Integral cutoff                 1.00e-12
      Number of threads:                 1

  Performing in-core PK
  Using 462 doubles for integral storage.
  We computed 55 shell quartets total.
  Whereas there are 55 unique shell quartets.
  ==> DiskJK: Disk-Based J/K Matrices <==

    J tasked:                  Yes
    K tasked:                  Yes
    wK tasked:                  No
    Memory (MB):               375
    Schwarz Cutoff:          1E-12

    OpenMP threads:              1
  Minimum eigenvalue in the overlap matrix is 4.6927029010E-01.
  Using Symmetric Orthogonalization.

  SCF Guess: Generalized Wolfsberg-Helmholtz.

  ==> Iterations <==

                        Total Energy        Delta E     RMS |[F,P]|

   @UHF iter   1:   -98.01241588183251   -9.80124e+01   1.43031e-01 
   @UHF iter   2:   -98.17816155724050   -1.65746e-01   2.81732e-02 DIIS
   @UHF iter   3:   -98.19058868323246   -1.24271e-02   3.57835e-03 DIIS
   @UHF iter   4:   -98.19080145501356   -2.12772e-04   8.86516e-04 DIIS
   @UHF iter   5:   -98.19083092905989   -2.94740e-05   2.80025e-04 DIIS
   @UHF iter   6:   -98.19083403513193   -3.10607e-06   5.02927e-05 DIIS
   @UHF iter   7:   -98.19083407823692   -4.31050e-08   7.96433e-06 DIIS
   @UHF iter   8:   -98.19083407928990   -1.05298e-09   3.89280e-07 DIIS
   @UHF iter   9:   -98.19083407929253   -2.62901e-12   2.59252e-10 DIIS
   @UHF iter  10:   -98.19083407929250    2.84217e-14   1.48975e-12 DIIS
   @UHF iter  11:   -98.19083407929250    0.00000e+00   5.41851e-14 DIIS

  ==> Post-Iterations <==

   @Spin Contamination Metric:   2.709944135E-03
   @S^2 Expected:                7.500000000E-01
   @S^2 Observed:                7.527099441E-01
   @S   Expected:                5.000000000E-01
   @S   Observed:                5.000000000E-01

    Orbital Energies (a.u.)
    -----------------------

    Alpha Occupied:                                                       

       1A1   -26.874404     2A1    -2.223337     1B2    -1.305437  
       3A1    -1.274400     1B1    -1.197897  

    Alpha Virtual:                                                        

       4A1    -0.052935  

    Beta Occupied:                                                        

       1A1   -26.842614     2A1    -2.025654     3A1    -1.214259  
       1B1    -1.140536  

    Beta Virtual:                                                         

       1B2    -0.304333     4A1    -0.033590  

    Final Occupation by Irrep:
             A1    A2    B1    B2 
    DOCC [     3,    0,    1,    0 ]
    SOCC [     0,    0,    0,    1 ]

  Energy converged.

  @UHF Final Energy:   -98.19083407929250

   => Energetics <=

    Nuclear Repulsion Energy =              4.7625948773099998
    One-Electron Energy =                -141.8083197187785629
    Two-Electron Energy =                  38.8548907621760762
    DFT Exchange-Correlation Energy =       0.0000000000000000
    Empirical Dispersion Energy =           0.0000000000000000
    PCM Polarization Energy =               0.0000000000000000
    EFP Energy =                            0.0000000000000000
    Total Energy =                        -98.1908340792925003


  UHF NO Occupations:
  HONO-2 :    2 A1 2.0000000
  HONO-1 :    3 A1 1.9986441
  HONO-0 :    1 B2 1.0000000
  LUNO+0 :    4 A1 0.0013559



Properties will be evaluated at   0.000000,   0.000000,   0.000000 Bohr

Properties computed using the SCF density matrix

  Nuclear Dipole Moment: (a.u.)
     X:     0.0000      Y:     0.0000      Z:    -0.9378

  Electronic Dipole Moment: (a.u.)
     X:     0.0000      Y:     0.0000      Z:    -0.1219

  Dipole Moment: (a.u.)
     X:     0.0000      Y:     0.0000      Z:    -1.0596     Total:     1.0596

  Dipole Moment: (Debye)
     X:     0.0000      Y:     0.0000      Z:    -2.6933     Total:     2.6933


*** tstop() called on psinet at Mon May 15 15:35:23 2017
Module time:
	user time   =       0.11 seconds =       0.00 minutes
	system time =       0.02 seconds =       0.00 minutes
	total time  =          0 seconds =       0.00 minutes
Total time:
	user time   =       0.98 seconds =       0.02 minutes
	system time =       0.99 seconds =       0.02 minutes
	total time  =          2 seconds =       0.03 minutes
 MINTS: Wrapper to libmints.
   by Justin Turney

   Calculation information:
      Number of threads:                 1
      Number of atoms:                   2
      Number of AO shells:               4
      Number of SO shells:               4
      Number of primitives:             12
      Number of atomic orbitals:         6
      Number of basis functions:         6

      Number of irreps:                  4
      Integral cutoff                 0.00e+00
      Number of functions per irrep: [   4    0    1    1 ]

 OEINTS: Overlap, kinetic, potential, dipole, and quadrupole integrals
         stored in file 35.

      Computing two-electron integrals...done
      Computed 83 non-zero two-electron integrals.
        Stored in file 33.


*** tstart() called on psinet
*** at Mon May 15 15:35:23 2017



	***********************************************************************************
	*                        Density Cumulant Functional Theory                       *
	*                by Alexander Sokolov, Andy Simmonett, and Xiao Wang              *
	***********************************************************************************


	Transforming two-electron integrals (transformation type: unrestricted)...
	Computing MP2 amplitude guess...

	*Total Hartree-Fock energy        =  -98.190834079292500
	 Alpha - Alpha MP2 energy         =    0.000000000000000
	 Alpha - Beta  MP2 energy         =   -0.011871429526987
	 Beta  - Beta  MP2 energy         =    0.000000000000000
	 Total MP2 correlation energy     =   -0.011871429526987
	*Total MP2 energy                 =  -98.202705508819491

	DCFT Functional:    		 DC-06
	DCFT Type:          		 CONV
	Algorithm:          		 SIMULTANEOUS
	AO-Basis Integrals: 		 DISK

	*=================================================================================*
	* Cycle  RMS [F, Kappa]   RMS Lambda Error   delta E        Total Energy     DIIS *
	*---------------------------------------------------------------------------------*
	* 1        2.939e-04         1.508e-02     -1.102e-02    -98.213723488436642      *
	* 2        2.124e-04         5.764e-03      3.466e-03    -98.210257542867438      *
	* 3        9.938e-05         2.908e-03      1.444e-03    -98.208814010486350      *
	* 4        4.497e-05         1.832e-03      5.372e-04    -98.208276771976813      *
	* 5        2.235e-05         1.268e-03      2.057e-04    -98.208071024585536      *
	* 6        1.234e-05         9.035e-04      9.192e-05    -98.207979109479069  S   *
	* 7        7.233e-06         6.496e-04      4.967e-05    -98.207929443866547  S   *
	* 8        4.376e-06         4.686e-04      3.131e-05    -98.207898134227321  S   *
	* 9        2.715e-06         3.386e-04      2.158e-05    -98.207876555905955  S/E *
	* 10       4.159e-07         4.579e-06      5.942e-05    -98.207817138312237  S/E *
	* 11       2.410e-07         4.652e-06     -4.116e-06    -98.207821254206237  S/E *
	* 12       1.452e-07         1.604e-06      1.383e-06    -98.207819871658984  S/E *
	* 13       5.049e-09         9.610e-07      1.055e-06    -98.207818817118607  S/E *
	* 14       2.251e-10         2.499e-07     -3.125e-07    -98.207819129637016  S/E *
	* 15       2.826e-10         8.261e-08     -7.255e-08    -98.207819202188489  S/E *
	* 16       1.751e-10         2.275e-08     -2.763e-08    -98.207819229815456  S/E *
	* 17       4.107e-11         1.179e-09     -9.750e-09    -98.207819239565325  S/E *
	* 18       4.416e-12         4.036e-10     -3.474e-10    -98.207819239912695  S/E *
	* 19       2.284e-12         6.736e-11     -2.344e-10    -98.207819240147074  S/E *
	* 20       7.291e-13         2.022e-11      2.572e-11    -98.207819240121353  S/E *
	* 21       5.406e-13         3.238e-12     -1.229e-11    -98.207819240133645  S/E *
	* 22       3.359e-13         8.456e-13      1.847e-12    -98.207819240131798  S/E *
	*=================================================================================*

	*   DC-06 SCF Energy                                 =     -98.164839047679550
	*   DC-06 Lambda Energy                              =      -0.042980192452248
	*   DC-06 Total Energy                               =     -98.207819240131798

	Orbital occupations:
		Alpha occupied orbitals
		   1A1       1.0000     2A1       0.9999     1B1       0.9999     1B2       0.9985  
		   3A1       0.9917  

		Beta occupied orbitals
		   1A1       1.0000     1B1       0.9999     2A1       0.9998     3A1       0.9903  
		

		Alpha virtual orbitals
		   4A1       0.0100  

		Beta virtual orbitals
		   4A1       0.0085     1B2       0.0015  


*** tstop() called on psinet at Mon May 15 15:35:24 2017
Module time:
	user time   =       0.12 seconds =       0.00 minutes
	system time =       0.28 seconds =       0.00 minutes
	total time  =          1 seconds =       0.02 minutes
Total time:
	user time   =       1.11 seconds =       0.02 minutes
	system time =       1.27 seconds =       0.02 minutes
	total time  =          3 seconds =       0.05 minutes
	DC-06 SCF Energy (simultaneous, ao_basis=disk)....................PASSED
	DC-06 Energy (simultaneous, ao_basis=disk)........................PASSED

*** tstart() called on psinet
*** at Mon May 15 15:35:24 2017

   => Loading Basis Set <=

    Name: STO-3G
    Role: ORBITAL
    Keyword: BASIS
    atoms 1 entry H          line    18 file /home/psilocaluser/gits/hrw-direct/objdir4/stage/usr/local/psi4/share/psi4/basis/sto-3g.gbs 
    atoms 2 entry F          line    90 file /home/psilocaluser/gits/hrw-direct/objdir4/stage/usr/local/psi4/share/psi4/basis/sto-3g.gbs 


         ---------------------------------------------------------
                                   SCF
            by Justin Turney, Rob Parrish, and Andy Simmonett
                              UHF Reference
                        1 Threads,    500 MiB Core
         ---------------------------------------------------------

  ==> Geometry <==

    Molecular point group: c2v
    Full point group: C_inf_v

    Geometry (in Angstrom), charge = 1, multiplicity = 2:

       Center              X                  Y                   Z               Mass       
    ------------   -----------------  -----------------  -----------------  -----------------
           H          0.000000000000     0.000000000000    -0.949624435992     1.007825032070
           F          0.000000000000     0.000000000000     0.050375564008    18.998403224000

  Running in c2v symmetry.

  Rotational constants: A = ************  B =     17.61406  C =     17.61406 [cm^-1]
  Rotational constants: A = ************  B = 528056.23332  C = 528056.23332 [MHz]
  Nuclear repulsion =    4.762594877310000

  Charge       = 1
  Multiplicity = 2
  Electrons    = 9
  Nalpha       = 5
  Nbeta        = 4

  ==> Algorithm <==

  SCF Algorithm Type is PK.
  DIIS enabled.
  MOM disabled.
  Fractional occupation disabled.
  Guess Type is GWH.
  Energy threshold   = 1.00e-08
  Density threshold  = 1.00e-12
  Integral threshold = 0.00e+00

  ==> Primary Basis <==

  Basis Set: STO-3G
    Blend: STO-3G
    Number of shells: 4
    Number of basis function: 6
    Number of Cartesian functions: 6
    Spherical Harmonics?: true
    Max angular momentum: 1

  ==> Pre-Iterations <==

   -------------------------------------------------------
    Irrep   Nso     Nmo     Nalpha   Nbeta   Ndocc  Nsocc
   -------------------------------------------------------
     A1         4       4       0       0       0       0
     A2         0       0       0       0       0       0
     B1         1       1       0       0       0       0
     B2         1       1       0       0       0       0
   -------------------------------------------------------
    Total       6       6       5       4       4       1
   -------------------------------------------------------

  ==> Integral Setup <==

  Using in-core PK algorithm.
   Calculation information:
      Number of atoms:                   2
      Number of AO shells:               4
      Number of primitives:             12
      Number of atomic orbitals:         6
      Number of basis functions:         6

      Integral cutoff                 1.00e-12
      Number of threads:                 1

  Performing in-core PK
  Using 462 doubles for integral storage.
  We computed 55 shell quartets total.
  Whereas there are 55 unique shell quartets.
  ==> DiskJK: Disk-Based J/K Matrices <==

    J tasked:                  Yes
    K tasked:                  Yes
    wK tasked:                  No
    Memory (MB):               375
    Schwarz Cutoff:          1E-12

    OpenMP threads:              1
  Minimum eigenvalue in the overlap matrix is 4.6927029010E-01.
  Using Symmetric Orthogonalization.

  SCF Guess: Generalized Wolfsberg-Helmholtz.

  ==> Iterations <==

                        Total Energy        Delta E     RMS |[F,P]|

   @UHF iter   1:   -98.01241588183251   -9.80124e+01   1.43031e-01 
   @UHF iter   2:   -98.17816155724050   -1.65746e-01   2.81732e-02 DIIS
   @UHF iter   3:   -98.19058868323246   -1.24271e-02   3.57835e-03 DIIS
   @UHF iter   4:   -98.19080145501356   -2.12772e-04   8.86516e-04 DIIS
   @UHF iter   5:   -98.19083092905989   -2.94740e-05   2.80025e-04 DIIS
   @UHF iter   6:   -98.19083403513193   -3.10607e-06   5.02927e-05 DIIS
   @UHF iter   7:   -98.19083407823692   -4.31050e-08   7.96433e-06 DIIS
   @UHF iter   8:   -98.19083407928990   -1.05298e-09   3.89280e-07 DIIS
   @UHF iter   9:   -98.19083407929253   -2.62901e-12   2.59252e-10 DIIS
   @UHF iter  10:   -98.19083407929250    2.84217e-14   1.48975e-12 DIIS
   @UHF iter  11:   -98.19083407929250    0.00000e+00   5.41851e-14 DIIS

  ==> Post-Iterations <==

   @Spin Contamination Metric:   2.709944135E-03
   @S^2 Expected:                7.500000000E-01
   @S^2 Observed:                7.527099441E-01
[...]

    Beta Virtual:                                                         

       1B2    -0.304333     4A1    -0.033590  

    Final Occupation by Irrep:
             A1    A2    B1    B2 
    DOCC [     3,    0,    1,    0 ]
    SOCC [     0,    0,    0,    1 ]

  Energy converged.

  @UHF Final Energy:   -98.19083407929250

   => Energetics <=

    Nuclear Repulsion Energy =              4.7625948773099998
    One-Electron Energy =                -141.8083197187785629
    Two-Electron Energy =                  38.8548907621760762
    DFT Exchange-Correlation Energy =       0.0000000000000000
    Empirical Dispersion Energy =           0.0000000000000000
    PCM Polarization Energy =               0.0000000000000000
    EFP Energy =                            0.0000000000000000
    Total Energy =                        -98.1908340792925003


  UHF NO Occupations:
  HONO-2 :    2 A1 2.0000000
  HONO-1 :    3 A1 1.9986441
  HONO-0 :    1 B2 1.0000000
  LUNO+0 :    4 A1 0.0013559



Properties will be evaluated at   0.000000,   0.000000,   0.000000 Bohr

Properties computed using the SCF density matrix

  Nuclear Dipole Moment: (a.u.)
     X:     0.0000      Y:     0.0000      Z:    -0.9378

  Electronic Dipole Moment: (a.u.)
     X:     0.0000      Y:     0.0000      Z:    -0.1219

  Dipole Moment: (a.u.)
     X:     0.0000      Y:     0.0000      Z:    -1.0596     Total:     1.0596

  Dipole Moment: (Debye)
     X:     0.0000      Y:     0.0000      Z:    -2.6933     Total:     2.6933


*** tstop() called on psinet at Mon May 15 15:35:37 2017
Module time:
	user time   =       0.11 seconds =       0.00 minutes
	system time =       0.00 seconds =       0.00 minutes
	total time  =          0 seconds =       0.00 minutes
Total time:
	user time   =       6.57 seconds =       0.11 minutes
	system time =       8.12 seconds =       0.14 minutes
	total time  =         16 seconds =       0.27 minutes
 MINTS: Wrapper to libmints.
   by Justin Turney

   Calculation information:
      Number of threads:                 1
      Number of atoms:                   2
      Number of AO shells:               4
      Number of SO shells:               4
      Number of primitives:             12
      Number of atomic orbitals:         6
      Number of basis functions:         6

      Number of irreps:                  4
      Integral cutoff                 0.00e+00
      Number of functions per irrep: [   4    0    1    1 ]

 OEINTS: Overlap, kinetic, potential, dipole, and quadrupole integrals
         stored in file 35.

      Computing two-electron integrals...done
      Computed 83 non-zero two-electron integrals.
        Stored in file 33.


*** tstart() called on psinet
*** at Mon May 15 15:35:37 2017



	***********************************************************************************
	*                        Density Cumulant Functional Theory                       *
	*                by Alexander Sokolov, Andy Simmonett, and Xiao Wang              *
	***********************************************************************************


	Transforming two-electron integrals (transformation type: unrestricted)...
	Computing MP2 amplitude guess...

	*Total Hartree-Fock energy        =  -98.190834079292500
	 Alpha - Alpha MP2 energy         =    0.000000000000000
	 Alpha - Beta  MP2 energy         =   -0.011717605064701
	 Beta  - Beta  MP2 energy         =    0.000000000000000
	 Total MP2 correlation energy     =   -0.011717605064701
	*Total MP2 energy                 =  -98.202551684357203

	DCFT Functional:    		 ODC-13
	DCFT Type:          		 CONV
	Algorithm:          		 SIMULTANEOUS
	AO-Basis Integrals: 		 DISK

	*=================================================================================*
	* Cycle   Max Orb Grad    RMS Lambda Error   delta E        Total Energy     DIIS *
	*---------------------------------------------------------------------------------*
	* 1        3.396e-02         1.530e-02     -1.621e-02    -98.218764695819360      *
	* 2        9.466e-03         6.970e-03      1.016e-02    -98.208607757173496      *
	* 3        4.069e-03         3.429e-03     -4.883e-05    -98.208656583364245      *
	* 4        2.129e-03         2.050e-03      6.082e-05    -98.208595759612209      *
	* 5        1.248e-03         1.383e-03      4.085e-05    -98.208554911036259      *
	* 6        7.902e-04         9.809e-04      2.603e-05    -98.208528880846885  S   *
	* 7        5.263e-04         7.075e-04      1.844e-05    -98.208510438225005  S   *
	* 8        3.619e-04         5.134e-04      1.401e-05    -98.208496428179004  S   *
	* 9        2.538e-04         3.734e-04      1.088e-05    -98.208485549723534  S/E *
	* 10       8.728e-07         1.251e-06      1.189e-04    -98.208366658209854  S/E *
	* 11       4.151e-07         6.298e-07     -8.494e-05    -98.208451598910671  S/E *
	* 12       3.818e-08         3.138e-08      5.241e-08    -98.208451546502161  S/E *
	* 13       1.186e-08         8.958e-09     -7.061e-08    -98.208451617107272  S/E *
	* 14       2.977e-10         7.282e-10      1.079e-09    -98.208451616027915  S/E *
	* 15       1.154e-10         2.654e-10     -1.607e-09    -98.208451617634523  S/E *
	* 16       2.841e-11         2.926e-11      6.324e-12    -98.208451617628199  S/E *
	* 17       6.015e-12         1.136e-11     -2.859e-11    -98.208451617656792  S/E *
	* 18       4.394e-12         7.217e-12     -8.384e-13    -98.208451617657630  S/E *
	* 19       3.364e-12         4.985e-12     -4.405e-13    -98.208451617658071  S/E *
	* 20       8.332e-13         1.690e-12     -6.963e-13    -98.208451617658767  S/E *
	* 21       4.629e-13         7.469e-13      1.705e-13    -98.208451617658596  S/E *
	*=================================================================================*

	*   ODC-13 SCF Energy                                 =     -98.162361155505010
	*   ODC-13 Lambda Energy                              =      -0.046090462153584
	*   ODC-13 Total Energy                               =     -98.208451617658596

	Orbital occupations:
		Alpha occupied orbitals
		   1A1       1.0000     2A1       0.9999     1B1       0.9999     1B2       0.9984  
		   3A1       0.9910  

		Beta occupied orbitals
		   1A1       1.0000     1B1       0.9999     2A1       0.9998     3A1       0.9896  
		

		Alpha virtual orbitals
		   4A1       0.0107  

		Beta virtual orbitals
		   4A1       0.0091     1B2       0.0016  



Properties will be evaluated at   0.000000,   0.000000,   0.000000 Bohr

Properties computed using the ODC-13 density matrix

  Nuclear Dipole Moment: (a.u.)
     X:     0.0000      Y:     0.0000      Z:    -0.9378

  Electronic Dipole Moment: (a.u.)
     X:     0.0000      Y:     0.0000      Z:    -0.0440

  Dipole Moment: (a.u.)
     X:     0.0000      Y:     0.0000      Z:    -0.9818     Total:     0.9818

  Dipole Moment: (Debye)
     X:     0.0000      Y:     0.0000      Z:    -2.4954     Total:     2.4954


*** tstop() called on psinet at Mon May 15 15:35:38 2017
Module time:
	user time   =       0.38 seconds =       0.01 minutes
	system time =       0.57 seconds =       0.01 minutes
	total time  =          1 seconds =       0.02 minutes
Total time:
	user time   =       6.96 seconds =       0.12 minutes
	system time =       8.70 seconds =       0.14 minutes
	total time  =         17 seconds =       0.28 minutes
	ODC-13 SCF Energy (simultaneous, ao_basis=disk)...................PASSED
	ODC-13 Energy (simultaneous, ao_basis=disk).......................PASSED

*** tstart() called on psinet
*** at Mon May 15 15:35:38 2017

   => Loading Basis Set <=

    Name: STO-3G
    Role: ORBITAL
    Keyword: BASIS
    atoms 1 entry H          line    18 file /home/psilocaluser/gits/hrw-direct/objdir4/stage/usr/local/psi4/share/psi4/basis/sto-3g.gbs 
    atoms 2 entry F          line    90 file /home/psilocaluser/gits/hrw-direct/objdir4/stage/usr/local/psi4/share/psi4/basis/sto-3g.gbs 


         ---------------------------------------------------------
                                   SCF
            by Justin Turney, Rob Parrish, and Andy Simmonett
                              UHF Reference
                        1 Threads,    500 MiB Core
         ---------------------------------------------------------

  ==> Geometry <==

    Molecular point group: c2v
    Full point group: C_inf_v

    Geometry (in Angstrom), charge = 1, multiplicity = 2:

       Center              X                  Y                   Z               Mass       
    ------------   -----------------  -----------------  -----------------  -----------------
           H          0.000000000000     0.000000000000    -0.949624435992     1.007825032070
           F          0.000000000000     0.000000000000     0.050375564008    18.998403224000

  Running in c2v symmetry.

  Rotational constants: A = ************  B =     17.61406  C =     17.61406 [cm^-1]
  Rotational constants: A = ************  B = 528056.23332  C = 528056.23332 [MHz]
  Nuclear repulsion =    4.762594877310000

  Charge       = 1
  Multiplicity = 2
  Electrons    = 9
  Nalpha       = 5
  Nbeta        = 4

  ==> Algorithm <==

  SCF Algorithm Type is PK.
  DIIS enabled.
  MOM disabled.
  Fractional occupation disabled.
  Guess Type is GWH.
  Energy threshold   = 1.00e-08
  Density threshold  = 1.00e-12
  Integral threshold = 0.00e+00

  ==> Primary Basis <==

  Basis Set: STO-3G
    Blend: STO-3G
    Number of shells: 4
    Number of basis function: 6
    Number of Cartesian functions: 6
    Spherical Harmonics?: true
    Max angular momentum: 1

  ==> Pre-Iterations <==

   -------------------------------------------------------
    Irrep   Nso     Nmo     Nalpha   Nbeta   Ndocc  Nsocc
   -------------------------------------------------------
     A1         4       4       0       0       0       0
     A2         0       0       0       0       0       0
     B1         1       1       0       0       0       0
     B2         1       1       0       0       0       0
   -------------------------------------------------------
    Total       6       6       5       4       4       1
   -------------------------------------------------------

  ==> Integral Setup <==

  Using in-core PK algorithm.
   Calculation information:
      Number of atoms:                   2
      Number of AO shells:               4
      Number of primitives:             12
      Number of atomic orbitals:         6
      Number of basis functions:         6

      Integral cutoff                 1.00e-12
      Number of threads:                 1

  Performing in-core PK
  Using 462 doubles for integral storage.
  We computed 55 shell quartets total.
  Whereas there are 55 unique shell quartets.
  ==> DiskJK: Disk-Based J/K Matrices <==

    J tasked:                  Yes
    K tasked:                  Yes
    wK tasked:                  No
    Memory (MB):               375
    Schwarz Cutoff:          1E-12

    OpenMP threads:              1
  Minimum eigenvalue in the overlap matrix is 4.6927029010E-01.
  Using Symmetric Orthogonalization.

  SCF Guess: Generalized Wolfsberg-Helmholtz.

  ==> Iterations <==

                        Total Energy        Delta E     RMS |[F,P]|

   @UHF iter   1:   -98.01241588183251   -9.80124e+01   1.43031e-01 
   @UHF iter   2:   -98.17816155724050   -1.65746e-01   2.81732e-02 DIIS
   @UHF iter   3:   -98.19058868323246   -1.24271e-02   3.57835e-03 DIIS
   @UHF iter   4:   -98.19080145501356   -2.12772e-04   8.86516e-04 DIIS
   @UHF iter   5:   -98.19083092905989   -2.94740e-05   2.80025e-04 DIIS
   @UHF iter   6:   -98.19083403513193   -3.10607e-06   5.02927e-05 DIIS
   @UHF iter   7:   -98.19083407823692   -4.31050e-08   7.96433e-06 DIIS
   @UHF iter   8:   -98.19083407928990   -1.05298e-09   3.89280e-07 DIIS
   @UHF iter   9:   -98.19083407929253   -2.62901e-12   2.59252e-10 DIIS
   @UHF iter  10:   -98.19083407929250    2.84217e-14   1.48975e-12 DIIS
   @UHF iter  11:   -98.19083407929250    0.00000e+00   5.41851e-14 DIIS

  ==> Post-Iterations <==

   @Spin Contamination Metric:   2.709944135E-03
   @S^2 Expected:                7.500000000E-01
   @S^2 Observed:                7.527099441E-01
   @S   Expected:                5.000000000E-01
   @S   Observed:                5.000000000E-01

    Orbital Energies (a.u.)
    -----------------------

    Alpha Occupied:                                                       

       1A1   -26.874404     2A1    -2.223337     1B2    -1.305437  
       3A1    -1.274400     1B1    -1.197897  

    Alpha Virtual:                                                        

       4A1    -0.052935  

    Beta Occupied:                                                        

       1A1   -26.842614     2A1    -2.025654     3A1    -1.214259  
       1B1    -1.140536  

    Beta Virtual:                                                         

       1B2    -0.304333     4A1    -0.033590  

    Final Occupation by Irrep:
             A1    A2    B1    B2 
    DOCC [     3,    0,    1,    0 ]
    SOCC [     0,    0,    0,    1 ]

  Energy converged.

  @UHF Final Energy:   -98.19083407929250

   => Energetics <=

    Nuclear Repulsion Energy =              4.7625948773099998
    One-Electron Energy =                -141.8083197187785629
    Two-Electron Energy =                  38.8548907621760762
    DFT Exchange-Correlation Energy =       0.0000000000000000
    Empirical Dispersion Energy =           0.0000000000000000
    PCM Polarization Energy =               0.0000000000000000
    EFP Energy =                            0.0000000000000000
    Total Energy =                        -98.1908340792925003


  UHF NO Occupations:
  HONO-2 :    2 A1 2.0000000
  HONO-1 :    3 A1 1.9986441
  HONO-0 :    1 B2 1.0000000
  LUNO+0 :    4 A1 0.0013559



Properties will be evaluated at   0.000000,   0.000000,   0.000000 Bohr

Properties computed using the SCF density matrix

  Nuclear Dipole Moment: (a.u.)
     X:     0.0000      Y:     0.0000      Z:    -0.9378

  Electronic Dipole Moment: (a.u.)
     X:     0.0000      Y:     0.0000      Z:    -0.1219

  Dipole Moment: (a.u.)
     X:     0.0000      Y:     0.0000      Z:    -1.0596     Total:     1.0596

  Dipole Moment: (Debye)
     X:     0.0000      Y:     0.0000      Z:    -2.6933     Total:     2.6933


*** tstop() called on psinet at Mon May 15 15:35:39 2017
Module time:
	user time   =       0.10 seconds =       0.00 minutes
	system time =       0.01 seconds =       0.00 minutes
	total time  =          1 seconds =       0.02 minutes
Total time:
	user time   =       7.06 seconds =       0.12 minutes
	system time =       8.71 seconds =       0.15 minutes
	total time  =         18 seconds =       0.30 minutes
 MINTS: Wrapper to libmints.
   by Justin Turney

   Calculation information:
      Number of threads:                 1
      Number of atoms:                   2
      Number of AO shells:               4
      Number of SO shells:               4
      Number of primitives:             12
      Number of atomic orbitals:         6
      Number of basis functions:         6

      Number of irreps:                  4
      Integral cutoff                 0.00e+00
      Number of functions per irrep: [   4    0    1    1 ]

 OEINTS: Overlap, kinetic, potential, dipole, and quadrupole integrals
         stored in file 35.

      Computing two-electron integrals...done
      Computed 83 non-zero two-electron integrals.
        Stored in file 33.


*** tstart() called on psinet
*** at Mon May 15 15:35:39 2017



	***********************************************************************************
	*                        Density Cumulant Functional Theory                       *
	*                by Alexander Sokolov, Andy Simmonett, and Xiao Wang              *
	***********************************************************************************


	Transforming two-electron integrals (transformation type: unrestricted)...
	Computing MP2 amplitude guess...

	*Total Hartree-Fock energy        =  -98.190834079292500
	 Alpha - Alpha MP2 energy         =    0.000000000000000
	 Alpha - Beta  MP2 energy         =   -0.011717605064701
	 Beta  - Beta  MP2 energy         =    0.000000000000000
	 Total MP2 correlation energy     =   -0.011717605064701
	*Total MP2 energy                 =  -98.202551684357203

	DCFT Functional:    		 ODC-13
	DCFT Type:          		 CONV
	Algorithm:          		 QC
	AO-Basis Integrals: 		 NONE
	QC type:            		 SIMULTANEOUS
	QC coupling:        		 TRUE

	*==========================================================================================*
	* Cycle   RMS Orb Grad   RMS Lambda Error    delta E         Total Energy     NI(NR)  DIIS *
	*------------------------------------------------------------------------------------------*
About to Copied C matrices
Copied C matrices
Compute scf_error_vector
	* 1        6.942e-03         4.206e-02     -3.367e-03    -98.205918223896305    12        *
	* 2        3.067e-03         3.632e-03     -2.361e-03    -98.208278747188885    12        *
	* 3        3.757e-04         1.821e-03     -1.592e-04    -98.208437919812042    11        *
	* 4        2.125e-04         2.096e-04     -9.607e-06    -98.208447527063171    11    S   *
	* 5        2.177e-05         1.316e-04     -3.669e-06    -98.208451195602493    10    S   *
	* 6        1.628e-05         1.174e-05     -1.695e-07    -98.208451365060540    10    S   *
	* 7        1.173e-06         1.010e-05     -2.317e-07    -98.208451596749015     9    S/E *
	* 8        8.470e-08         3.967e-08      1.350e-10    -98.208451596613997     7    S/E *
	* 9        7.700e-09         2.808e-09     -2.106e-08    -98.208451617678449     6    S/E *
	* 10       1.363e-09         1.818e-10      2.393e-11    -98.208451617654518     4    S/E *
	* 11       1.587e-11         4.600e-12     -2.856e-12    -98.208451617657374     2    S/E *
	* 12       1.644e-12         1.355e-12     -1.208e-12    -98.208451617658582     1    S/E *
	* 13       2.267e-13         3.292e-13     -2.842e-14    -98.208451617658611     1    S/E *
	*==========================================================================================*

	*   ODC-13 SCF Energy                                 =     -98.162361155505707
	*   ODC-13 Lambda Energy                              =      -0.046090462152899
	*   ODC-13 Total Energy                               =     -98.208451617658611

	Orbital occupations:
		Alpha occupied orbitals
		   1A1       1.0000     2A1       0.9999     1B1       0.9999     1B2       0.9984  
		   3A1       0.9910  

		Beta occupied orbitals
		   1A1       1.0000     1B1       0.9999     2A1       0.9998     3A1       0.9896  
		

		Alpha virtual orbitals
		   4A1       0.0107  

		Beta virtual orbitals
		   4A1       0.0091     1B2       0.0016  



Properties will be evaluated at   0.000000,   0.000000,   0.000000 Bohr

Properties computed using the ODC-13 density matrix

  Nuclear Dipole Moment: (a.u.)
     X:     0.0000      Y:     0.0000      Z:    -0.9378

  Electronic Dipole Moment: (a.u.)
     X:     0.0000      Y:     0.0000      Z:    -0.0440

  Dipole Moment: (a.u.)
     X:     0.0000      Y:     0.0000      Z:    -0.9818     Total:     0.9818

  Dipole Moment: (Debye)
     X:     0.0000      Y:     0.0000      Z:    -2.4954     Total:     2.4954


*** tstop() called on psinet at Mon May 15 15:35:40 2017
Module time:
	user time   =       0.37 seconds =       0.01 minutes
	system time =       0.52 seconds =       0.01 minutes
	total time  =          1 seconds =       0.02 minutes
Total time:
	user time   =       7.45 seconds =       0.12 minutes
	system time =       9.23 seconds =       0.15 minutes
	total time  =         19 seconds =       0.32 minutes
	ODC-13 SCF Energy (qc, qc_type=simultaneous, ao_basis=none).......PASSED
	ODC-13 Energy (qc, qc_type=simultaneous, ao_basis=none)...........PASSED

*** Psi4 exiting successfully. Buy a developer a beer!
