
    -----------------------------------------------------------------------
          Psi4: An Open-Source Ab Initio Electronic Structure Package
                               Psi4 1.3a1.dev455 

                         Git: Rev {cbs_dict} ed71323 


    R. M. Parrish, L. A. Burns, D. G. A. Smith, A. C. Simmonett,
    A. E. DePrince III, E. G. Hohenstein, U. Bozkaya, A. Yu. Sokolov,
    R. Di Remigio, R. M. Richard, J. F. Gonthier, A. M. James,
    H. R. McAlexander, A. Kumar, M. Saitow, X. Wang, B. P. Pritchard,
    P. Verma, H. F. Schaefer III, K. Patkowski, R. A. King, E. F. Valeev,
    F. A. Evangelista, J. M. Turney, T. D. Crawford, and C. D. Sherrill,
    J. Chem. Theory Comput. 13(7) pp 3185--3197 (2017).
    (doi: 10.1021/acs.jctc.7b00174)


                         Additional Contributions by
    P. Kraus, H. Kruse, M. H. Lechner, M. C. Schieber, and R. A. Shaw

    -----------------------------------------------------------------------


    Psi4 started on: Tuesday, 25 September 2018 01:51PM

    Process ID: 15329
    Host:       silver
    PSIDATADIR: /home/kraus/psi4bin/cbs_dict/share/psi4
    Memory:     500.0 MiB
    Threads:    8
    
  ==> Input File <==

--------------------------------------------------------------------------
#! Various gradients for a strained helium dimer and water molecule
import numpy as np

nucenergy_ref = 9.16819326039

molecule h2o_dz {
  O
  H 1 0.96
  H 1 0.96 2 104.5
}

molecule h2o_tz {
    O       
    H             1    0.940607
    H             1    0.940607      2  106.000618
}

molecule h2o_dtz {
    O       
    H             1    0.939201
    H             1    0.939201      2  106.350145
}

# Conventional to keep angular momentum low
set {
    scf_type df
    e_convergence 1.e-10
}

h2o_dz.update_geometry()
compare_values(nucenergy_ref, h2o_dz.nuclear_repulsion_energy(), 9, "Nuclear repulsion energy") #TEST

clean()

# SCF TESTS

# reference frequencies: CFOUR v1.0 with:
# *ACES2(CALC=HF,BASIS=PVDZ,ABCDTYPE=AOBASIS,CC_PROG=ECC,VIB=ANALYTIC,SCF_CONV=10,LINEQ_CONV=10)
# 1808.8119, 3923.3122, 4020.3029

scf_dz, wfn_dz = freq('SCF/cc-pVDZ', return_wfn=True, dertype=1, molecule=h2o_dz)
compare_values(wfn_dz.frequencies().get(0), 1809.2462, 2, "SCF/cc-pVDZ Frequency 1")            #TEST
compare_values(wfn_dz.frequencies().get(1), 3923.1513, 2, "SCF/cc-pVDZ Frequency 2")            #TEST
compare_values(wfn_dz.frequencies().get(2), 4020.1774, 2, "SCF/cc-pVDZ Frequency 3")            #TEST

# reference frequencies: G09.D01 with:
# freq=noraman hf/cc-pvtz
# 1753.0400, 4126.9754, 4226.8715
# reference frequencies: CFOUR v1.0 with: 
# *ACES2(CALC=HF,BASIS=PVTZ,ABCDTYPE=AOBASIS,CC_PROG=ECC,VIB=ANALYTIC,SCF_CONV=10,LINEQ_CONV=10)
# 1753.0405, 4126.9714, 4226.8671

scf_tz, wfn_tz = freq('SCF/cc-pVTZ', return_wfn=True, dertype=1, molecule=h2o_tz)
compare_values(wfn_tz.frequencies().get(0), 1753.0273, 2, "SCF/cc-pVTZ Frequency 1")            #TEST
compare_values(wfn_tz.frequencies().get(1), 4127.0329, 2, "SCF/cc-pVTZ Frequency 2")            #TEST
compare_values(wfn_tz.frequencies().get(2), 4227.0130, 2, "SCF/cc-pVTZ Frequency 3")            #TEST

scf_dtz, wfn_dtz = freq('scf/cc-pv[dt]z', return_wfn=True, molecule=h2o_dtz)
compare_values(wfn_dtz.frequencies().get(0), 1747.7410, 2, "SCF/cc-pV[DT]Z Frequency 1")        #TEST
compare_values(wfn_dtz.frequencies().get(1), 4130.2255, 2, "SCF/cc-pV[DT]Z Frequency 1")        #TEST
compare_values(wfn_dtz.frequencies().get(2), 4230.5752, 2, "SCF/cc-pV[DT]Z Frequency 1")        #TEST


--------------------------------------------------------------------------
	Nuclear repulsion energy..........................................PASSED
gradient() will perform analytic gradient computation.

*** tstart() called on silver
*** at Tue Sep 25 13:51:13 2018

   => Loading Basis Set <=

    Name: CC-PVDZ
    Role: ORBITAL
    Keyword: BASIS
    atoms 1   entry O          line   198 file /home/kraus/psi4bin/cbs_dict/share/psi4/basis/cc-pvdz.gbs 
    atoms 2-3 entry H          line    22 file /home/kraus/psi4bin/cbs_dict/share/psi4/basis/cc-pvdz.gbs 


         ---------------------------------------------------------
                                   SCF
            by Justin Turney, Rob Parrish, Andy Simmonett
                             and Daniel Smith
                              RHF Reference
                        8 Threads,    500 MiB Core
         ---------------------------------------------------------

  ==> Geometry <==

    Molecular point group: c2v
    Full point group: C2v

    Geometry (in Angstrom), charge = 0, multiplicity = 1:

       Center              X                  Y                   Z               Mass       
    ------------   -----------------  -----------------  -----------------  -----------------
         O            0.000000000000     0.000000000000    -0.065775570538    15.994914619560
         H            0.000000000000    -0.759061990794     0.521953018295     1.007825032070
         H            0.000000000000     0.759061990794     0.521953018295     1.007825032070

  Running in c2v symmetry.

  Rotational constants: A =     27.26297  B =     14.51533  C =      9.47217 [cm^-1]
  Rotational constants: A = 817323.20514  B = 435158.59817  C = 283968.37324 [MHz]
  Nuclear repulsion =    9.168193260387573

  Charge       = 0
  Multiplicity = 1
  Electrons    = 10
  Nalpha       = 5
  Nbeta        = 5

  ==> Algorithm <==

  SCF Algorithm Type is DF.
  DIIS enabled.
  MOM disabled.
  Fractional occupation disabled.
  Guess Type is SAD.
  Energy threshold   = 1.00e-10
  Density threshold  = 1.00e-08
  Integral threshold = 0.00e+00

  ==> Primary Basis <==

  Basis Set: CC-PVDZ
    Blend: CC-PVDZ
    Number of shells: 12
    Number of basis function: 24
    Number of Cartesian functions: 25
    Spherical Harmonics?: true
    Max angular momentum: 2

   => Loading Basis Set <=

    Name: (CC-PVDZ AUX)
    Role: JKFIT
    Keyword: DF_BASIS_SCF
    atoms 1   entry O          line   221 file /home/kraus/psi4bin/cbs_dict/share/psi4/basis/cc-pvdz-jkfit.gbs 
    atoms 2-3 entry H          line    51 file /home/kraus/psi4bin/cbs_dict/share/psi4/basis/cc-pvdz-jkfit.gbs 

  ==> Pre-Iterations <==

   -------------------------------------------------------
    Irrep   Nso     Nmo     Nalpha   Nbeta   Ndocc  Nsocc
   -------------------------------------------------------
     A1        11      11       0       0       0       0
     A2         2       2       0       0       0       0
     B1         4       4       0       0       0       0
     B2         7       7       0       0       0       0
   -------------------------------------------------------
    Total      24      24       5       5       5       0
   -------------------------------------------------------

  ==> Integral Setup <==

  DFHelper Memory: AOs need 0.001 [GiB]; user supplied 0.366 [GiB]. Using in-core AOs.

  ==> MemDFJK: Density-Fitted J/K Matrices <==

    J tasked:                   Yes
    K tasked:                   Yes
    wK tasked:                   No
    OpenMP threads:               8
    Memory (MB):                375
    Algorithm:                 Core
    Schwarz Cutoff:           1E-12
    Mask sparsity (%):       0.0000
    Fitting Condition:        1E-12

   => Auxiliary Basis Set <=

  Basis Set: (CC-PVDZ AUX)
    Blend: CC-PVDZ-JKFIT
    Number of shells: 42
    Number of basis function: 116
    Number of Cartesian functions: 131
    Spherical Harmonics?: true
    Max angular momentum: 3

  Minimum eigenvalue in the overlap matrix is 3.4377086883E-02.
  Using Symmetric Orthogonalization.

  SCF Guess: Superposition of Atomic Densities via on-the-fly atomic UHF.

  ==> Iterations <==

                           Total Energy        Delta E     RMS |[F,P]|

   @DF-RHF iter   0:   -75.99554773877419   -7.59955e+01   2.07061e-01 
   @DF-RHF iter   1:   -75.98243705758790    1.31107e-02   3.47009e-02 
   @DF-RHF iter   2:   -76.01715752504842   -3.47205e-02   1.75558e-02 DIIS
   @DF-RHF iter   3:   -76.02597931961122   -8.82179e-03   3.72961e-03 DIIS
   @DF-RHF iter   4:   -76.02657012930283   -5.90810e-04   9.02803e-04 DIIS
   @DF-RHF iter   5:   -76.02663007727399   -5.99480e-05   1.43099e-04 DIIS
   @DF-RHF iter   6:   -76.02663263740753   -2.56013e-06   3.44423e-05 DIIS
   @DF-RHF iter   7:   -76.02663273258347   -9.51759e-08   4.40081e-06 DIIS
   @DF-RHF iter   8:   -76.02663273487059   -2.28712e-09   6.33475e-07 DIIS
   @DF-RHF iter   9:   -76.02663273490650   -3.59108e-11   5.90759e-08 DIIS
   @DF-RHF iter  10:   -76.02663273490671   -2.13163e-13   5.77635e-09 DIIS
  Energy converged.


  ==> Post-Iterations <==

    Orbital Energies [Eh]
    ---------------------

    Doubly Occupied:                                                      

       1A1   -20.550925     2A1    -1.335311     1B2    -0.697803  
       3A1    -0.566087     1B1    -0.492948  

    Virtual:                                                              

       4A1     0.185107     2B2     0.255846     3B2     0.787336  
       5A1     0.851826     6A1     1.163856     2B1     1.200424  
       4B2     1.253573     7A1     1.445291     1A2     1.476011  
       3B1     1.674661     8A1     1.868110     5B2     1.932579  
       6B2     2.446529     9A1     2.483817     4B1     3.283958  
       2A2     3.336669    10A1     3.507634    11A1     3.863421  
       7B2     4.144760  

    Final Occupation by Irrep:
             A1    A2    B1    B2 
    DOCC [     3,    0,    1,    1 ]

  @DF-RHF Final Energy:   -76.02663273490671

   => Energetics <=

    Nuclear Repulsion Energy =              9.1681932603875733
    One-Electron Energy =                -123.1035071074840346
    Two-Electron Energy =                  37.9086811121897540
    Total Energy =                        -76.0266327349067126

Computation Completed


Properties will be evaluated at   0.000000,   0.000000,   0.000000 [a0]

Properties computed using the SCF density matrix

  Nuclear Dipole Moment: [e a0]
     X:     0.0000      Y:     0.0000      Z:     0.9783

  Electronic Dipole Moment: [e a0]
     X:     0.0000      Y:     0.0000      Z:    -0.1680

  Dipole Moment: [e a0]
     X:     0.0000      Y:     0.0000      Z:     0.8103     Total:     0.8103

  Dipole Moment: [D]
     X:     0.0000      Y:     0.0000      Z:     2.0595     Total:     2.0595


*** tstop() called on silver at Tue Sep 25 13:51:15 2018
Module time:
	user time   =       7.28 seconds =       0.12 minutes
	system time =       0.08 seconds =       0.00 minutes
	total time  =          2 seconds =       0.03 minutes
Total time:
	user time   =       7.28 seconds =       0.12 minutes
	system time =       0.08 seconds =       0.00 minutes
	total time  =          2 seconds =       0.03 minutes

*** tstart() called on silver
*** at Tue Sep 25 13:51:15 2018


         ------------------------------------------------------------
                                   SCF GRAD                          
                          Rob Parrish, Justin Turney,                
                       Andy Simmonett, and Alex Sokolov              
         ------------------------------------------------------------

  ==> Geometry <==

    Molecular point group: c2v
    Full point group: C2v

    Geometry (in Angstrom), charge = 0, multiplicity = 1:

       Center              X                  Y                   Z               Mass       
    ------------   -----------------  -----------------  -----------------  -----------------
         O            0.000000000000     0.000000000000    -0.065775570538    15.994914619560
         H            0.000000000000    -0.759061990794     0.521953018295     1.007825032070
         H            0.000000000000     0.759061990794     0.521953018295     1.007825032070

  Nuclear repulsion =    9.168193260387575

  ==> Basis Set <==

  Basis Set: CC-PVDZ
    Blend: CC-PVDZ
    Number of shells: 12
    Number of basis function: 24
    Number of Cartesian functions: 25
    Spherical Harmonics?: true
    Max angular momentum: 2

  ==> DFJKGrad: Density-Fitted SCF Gradients <==

    Gradient:                    1
    J tasked:                  Yes
    K tasked:                  Yes
    wK tasked:                  No
    OpenMP threads:              8
    Integrals threads:           8
    Memory (MB):               375
    Schwarz Cutoff:          0E+00
    Fitting Condition:       1E-12

   => Auxiliary Basis Set <=

  Basis Set: (CC-PVDZ AUX)
    Blend: CC-PVDZ-JKFIT
    Number of shells: 42
    Number of basis function: 116
    Number of Cartesian functions: 131
    Spherical Harmonics?: true
    Max angular momentum: 3


  -Total Gradient:
     Atom            X                  Y                   Z
    ------   -----------------  -----------------  -----------------
       1       -0.000000000000     0.000000000000    -0.017641632736
       2        0.000000000000    -0.012438417883     0.008820816368
       3       -0.000000000000     0.012438417883     0.008820816368


*** tstop() called on silver at Tue Sep 25 13:51:16 2018
Module time:
	user time   =       9.31 seconds =       0.16 minutes
	system time =       0.22 seconds =       0.00 minutes
	total time  =          1 seconds =       0.02 minutes
Total time:
	user time   =      16.61 seconds =       0.28 minutes
	system time =       0.30 seconds =       0.01 minutes
	total time  =          3 seconds =       0.05 minutes

  Based on options and gradient (rms=1.14E-02), recommend projecting translations and projecting rotations.
hessian() will perform frequency computation by finite difference of analytic gradients.

         ----------------------------------------------------------
                                   FINDIF
                     R. A. King and Jonathon Misiewicz
         ---------------------------------------------------------

  Using finite-differences of gradients to determine vibrational frequencies and 
  normal modes.  Resulting frequencies are only valid at stationary points.
    Generating geometries for use with 3-point formula.
    Displacement size will be 5.00e-03.
    Number of atoms is 3.
    Number of irreps is 4.
    Number of SALCs is 3.
    Translations projected? 1. Rotations projected? 1.
    Index of SALCs per irrep:
     1 :  0  1 
     2 : 
     3 : 
     4 :  2 
    Number of SALCs per irrep:
     Irrep 1: 2
     Irrep 2: 0
     Irrep 3: 0
     Irrep 4: 1
    Number of geometries (including reference) is 6.
    Number of displacements per irrep:
      Irrep 1: 4
      Irrep 2: 0
      Irrep 3: 0
      Irrep 4: 1

  //>>>>>>>>>>>>>>>>>>>>>>>>>>>>>>>>>>>//
  //    Loading displacement 1 of 6    //
  //<<<<<<<<<<<<<<<<<<<<<<<<<<<<<<<<<<<//
gradient() will perform analytic gradient computation.

*** tstart() called on silver
*** at Tue Sep 25 13:51:16 2018

   => Loading Basis Set <=

    Name: CC-PVDZ
    Role: ORBITAL
    Keyword: BASIS
    atoms 1   entry O          line   198 file /home/kraus/psi4bin/cbs_dict/share/psi4/basis/cc-pvdz.gbs 
    atoms 2-3 entry H          line    22 file /home/kraus/psi4bin/cbs_dict/share/psi4/basis/cc-pvdz.gbs 


         ---------------------------------------------------------
                                   SCF
            by Justin Turney, Rob Parrish, Andy Simmonett
                             and Daniel Smith
                              RHF Reference
                        8 Threads,    500 MiB Core
         ---------------------------------------------------------

  ==> Geometry <==

    Molecular point group: c2v
    Full point group: C2v

    Geometry (in Angstrom), charge = 0, multiplicity = 1:

       Center              X                  Y                   Z               Mass       
    ------------   -----------------  -----------------  -----------------  -----------------
         O            0.000000000000     0.000000000000    -0.065996892278    15.994914619560
         H            0.000000000000    -0.759061990794     0.523709286607     1.007825032070
         H            0.000000000000     0.759061990794     0.523709286607     1.007825032070

  Running in c2v symmetry.

  Rotational constants: A =     27.08042  B =     14.51533  C =      9.45003 [cm^-1]
  Rotational constants: A = 811850.58131  B = 435158.59817  C = 283304.85990 [MHz]
  Nuclear repulsion =    9.157072652201339

  Charge       = 0
  Multiplicity = 1
  Electrons    = 10
  Nalpha       = 5
  Nbeta        = 5

  ==> Algorithm <==

  SCF Algorithm Type is DF.
  DIIS enabled.
  MOM disabled.
  Fractional occupation disabled.
  Guess Type is SAD.
  Energy threshold   = 1.00e-10
  Density threshold  = 1.00e-08
  Integral threshold = 0.00e+00

  ==> Primary Basis <==

  Basis Set: CC-PVDZ
    Blend: CC-PVDZ
    Number of shells: 12
    Number of basis function: 24
    Number of Cartesian functions: 25
    Spherical Harmonics?: true
    Max angular momentum: 2

   => Loading Basis Set <=

    Name: (CC-PVDZ AUX)
    Role: JKFIT
    Keyword: DF_BASIS_SCF
    atoms 1   entry O          line   221 file /home/kraus/psi4bin/cbs_dict/share/psi4/basis/cc-pvdz-jkfit.gbs 
    atoms 2-3 entry H          line    51 file /home/kraus/psi4bin/cbs_dict/share/psi4/basis/cc-pvdz-jkfit.gbs 

  ==> Pre-Iterations <==

   -------------------------------------------------------
    Irrep   Nso     Nmo     Nalpha   Nbeta   Ndocc  Nsocc
   -------------------------------------------------------
     A1        11      11       0       0       0       0
     A2         2       2       0       0       0       0
     B1         4       4       0       0       0       0
     B2         7       7       0       0       0       0
   -------------------------------------------------------
    Total      24      24       5       5       5       0
   -------------------------------------------------------

  ==> Integral Setup <==

  DFHelper Memory: AOs need 0.001 [GiB]; user supplied 0.366 [GiB]. Using in-core AOs.

  ==> MemDFJK: Density-Fitted J/K Matrices <==

    J tasked:                   Yes
    K tasked:                   Yes
    wK tasked:                   No
    OpenMP threads:               8
    Memory (MB):                375
    Algorithm:                 Core
    Schwarz Cutoff:           1E-12
    Mask sparsity (%):       0.0000
    Fitting Condition:        1E-12

   => Auxiliary Basis Set <=

  Basis Set: (CC-PVDZ AUX)
    Blend: CC-PVDZ-JKFIT
    Number of shells: 42
    Number of basis function: 116
    Number of Cartesian functions: 131
    Spherical Harmonics?: true
    Max angular momentum: 3

  Minimum eigenvalue in the overlap matrix is 3.4436784146E-02.
  Using Symmetric Orthogonalization.

  SCF Guess: Superposition of Atomic Densities via on-the-fly atomic UHF.

  ==> Iterations <==

                           Total Energy        Delta E     RMS |[F,P]|

   @DF-RHF iter   0:   -75.91957309019273   -7.59196e+01   1.64764e-01 
   @DF-RHF iter   1:   -75.99559333498026   -7.60202e-02   3.05678e-02 
   @DF-RHF iter   2:   -76.01964277974788   -2.40494e-02   1.50784e-02 DIIS
   @DF-RHF iter   3:   -76.02630086754195   -6.65809e-03   1.98510e-03 DIIS
   @DF-RHF iter   4:   -76.02653589926793   -2.35032e-04   6.36913e-04 DIIS
   @DF-RHF iter   5:   -76.02656133821952   -2.54390e-05   1.46032e-04 DIIS
   @DF-RHF iter   6:   -76.02656321576180   -1.87754e-06   2.19564e-05 DIIS
   @DF-RHF iter   7:   -76.02656326821511   -5.24533e-08   2.21541e-06 DIIS
   @DF-RHF iter   8:   -76.02656326866223   -4.47116e-10   4.69006e-07 DIIS
   @DF-RHF iter   9:   -76.02656326867898   -1.67546e-11   3.89812e-08 DIIS
   @DF-RHF iter  10:   -76.02656326867917   -1.84741e-13   3.85323e-09 DIIS
  Energy converged.


  ==> Post-Iterations <==

    Orbital Energies [Eh]
    ---------------------

    Doubly Occupied:                                                      

       1A1   -20.551241     2A1    -1.334848     1B2    -0.696804  
       3A1    -0.566244     1B1    -0.492930  

    Virtual:                                                              

       4A1     0.184865     2B2     0.255688     3B2     0.785834  
       5A1     0.851533     6A1     1.164082     2B1     1.200358  
       4B2     1.253844     7A1     1.443781     1A2     1.476308  
       3B1     1.673401     8A1     1.867961     5B2     1.932335  
       6B2     2.443168     9A1     2.481133     4B1     3.283863  
       2A2     3.334769    10A1     3.506857    11A1     3.860644  
       7B2     4.144448  

    Final Occupation by Irrep:
             A1    A2    B1    B2 
    DOCC [     3,    0,    1,    1 ]

  @DF-RHF Final Energy:   -76.02656326867917

   => Energetics <=

    Nuclear Repulsion Energy =              9.1570726522013395
    One-Electron Energy =                -123.0831369380330216
    Two-Electron Energy =                  37.8995010171525166
    Total Energy =                        -76.0265632686791690

Computation Completed


Properties will be evaluated at   0.000000,   0.000000,   0.000000 [a0]

Properties computed using the SCF density matrix

  Nuclear Dipole Moment: [e a0]
     X:     0.0000      Y:     0.0000      Z:     0.9816

  Electronic Dipole Moment: [e a0]
     X:     0.0000      Y:     0.0000      Z:    -0.1698

  Dipole Moment: [e a0]
     X:     0.0000      Y:     0.0000      Z:     0.8119     Total:     0.8119

  Dipole Moment: [D]
     X:     0.0000      Y:     0.0000      Z:     2.0635     Total:     2.0635


*** tstop() called on silver at Tue Sep 25 13:51:17 2018
Module time:
	user time   =       8.30 seconds =       0.14 minutes
	system time =       0.14 seconds =       0.00 minutes
	total time  =          1 seconds =       0.02 minutes
Total time:
	user time   =      25.04 seconds =       0.42 minutes
	system time =       0.44 seconds =       0.01 minutes
	total time  =          4 seconds =       0.07 minutes

*** tstart() called on silver
*** at Tue Sep 25 13:51:17 2018


         ------------------------------------------------------------
                                   SCF GRAD                          
                          Rob Parrish, Justin Turney,                
                       Andy Simmonett, and Alex Sokolov              
         ------------------------------------------------------------

  ==> Geometry <==

    Molecular point group: c2v
    Full point group: C2v

    Geometry (in Angstrom), charge = 0, multiplicity = 1:

       Center              X                  Y                   Z               Mass       
    ------------   -----------------  -----------------  -----------------  -----------------
         O            0.000000000000     0.000000000000    -0.065996892278    15.994914619560
         H            0.000000000000    -0.759061990794     0.523709286607     1.007825032070
         H            0.000000000000     0.759061990794     0.523709286607     1.007825032070

  Nuclear repulsion =    9.157072652201339

  ==> Basis Set <==

  Basis Set: CC-PVDZ
    Blend: CC-PVDZ
    Number of shells: 12
    Number of basis function: 24
    Number of Cartesian functions: 25
    Spherical Harmonics?: true
    Max angular momentum: 2

  ==> DFJKGrad: Density-Fitted SCF Gradients <==

    Gradient:                    1
    J tasked:                  Yes
    K tasked:                  Yes
    wK tasked:                  No
    OpenMP threads:              8
    Integrals threads:           8
    Memory (MB):               375
    Schwarz Cutoff:          0E+00
    Fitting Condition:       1E-12

   => Auxiliary Basis Set <=

  Basis Set: (CC-PVDZ AUX)
    Blend: CC-PVDZ-JKFIT
    Number of shells: 42
    Number of basis function: 116
    Number of Cartesian functions: 131
    Spherical Harmonics?: true
    Max angular momentum: 3


  -Total Gradient:
     Atom            X                  Y                   Z
    ------   -----------------  -----------------  -----------------
       1       -0.000000000000     0.000000000000    -0.019533905890
       2        0.000000000000    -0.013209290715     0.009766952945
       3       -0.000000000000     0.013209290715     0.009766952945


*** tstop() called on silver at Tue Sep 25 13:51:19 2018
Module time:
	user time   =       9.32 seconds =       0.16 minutes
	system time =       0.21 seconds =       0.00 minutes
	total time  =          2 seconds =       0.03 minutes
Total time:
	user time   =      34.38 seconds =       0.57 minutes
	system time =       0.65 seconds =       0.01 minutes
	total time  =          6 seconds =       0.10 minutes

  //>>>>>>>>>>>>>>>>>>>>>>>>>>>>>>>>>>>//
  //    Loading displacement 2 of 6    //
  //<<<<<<<<<<<<<<<<<<<<<<<<<<<<<<<<<<<//
gradient() will perform analytic gradient computation.

*** tstart() called on silver
*** at Tue Sep 25 13:51:19 2018

   => Loading Basis Set <=

    Name: CC-PVDZ
    Role: ORBITAL
    Keyword: BASIS
    atoms 1   entry O          line   198 file /home/kraus/psi4bin/cbs_dict/share/psi4/basis/cc-pvdz.gbs 
    atoms 2-3 entry H          line    22 file /home/kraus/psi4bin/cbs_dict/share/psi4/basis/cc-pvdz.gbs 


         ---------------------------------------------------------
                                   SCF
            by Justin Turney, Rob Parrish, Andy Simmonett
                             and Daniel Smith
                              RHF Reference
                        8 Threads,    500 MiB Core
         ---------------------------------------------------------

  ==> Geometry <==

    Molecular point group: c2v
    Full point group: C2v

    Geometry (in Angstrom), charge = 0, multiplicity = 1:

       Center              X                  Y                   Z               Mass       
    ------------   -----------------  -----------------  -----------------  -----------------
         O            0.000000000000     0.000000000000    -0.065554248798    15.994914619560
         H            0.000000000000    -0.759061990794     0.520196749984     1.007825032070
         H            0.000000000000     0.759061990794     0.520196749984     1.007825032070

  Running in c2v symmetry.

  Rotational constants: A =     27.44737  B =     14.51533  C =      9.49433 [cm^-1]
  Rotational constants: A = 822851.35188  B = 435158.59817  C = 284632.75729 [MHz]
  Nuclear repulsion =    9.179318525428764

  Charge       = 0
  Multiplicity = 1
  Electrons    = 10
  Nalpha       = 5
  Nbeta        = 5

  ==> Algorithm <==

  SCF Algorithm Type is DF.
  DIIS enabled.
  MOM disabled.
  Fractional occupation disabled.
  Guess Type is SAD.
  Energy threshold   = 1.00e-10
  Density threshold  = 1.00e-08
  Integral threshold = 0.00e+00

  ==> Primary Basis <==

  Basis Set: CC-PVDZ
    Blend: CC-PVDZ
    Number of shells: 12
    Number of basis function: 24
    Number of Cartesian functions: 25
    Spherical Harmonics?: true
    Max angular momentum: 2

   => Loading Basis Set <=

    Name: (CC-PVDZ AUX)
    Role: JKFIT
    Keyword: DF_BASIS_SCF
    atoms 1   entry O          line   221 file /home/kraus/psi4bin/cbs_dict/share/psi4/basis/cc-pvdz-jkfit.gbs 
    atoms 2-3 entry H          line    51 file /home/kraus/psi4bin/cbs_dict/share/psi4/basis/cc-pvdz-jkfit.gbs 

  ==> Pre-Iterations <==

   -------------------------------------------------------
    Irrep   Nso     Nmo     Nalpha   Nbeta   Ndocc  Nsocc
   -------------------------------------------------------
     A1        11      11       0       0       0       0
     A2         2       2       0       0       0       0
     B1         4       4       0       0       0       0
     B2         7       7       0       0       0       0
   -------------------------------------------------------
    Total      24      24       5       5       5       0
   -------------------------------------------------------

  ==> Integral Setup <==

  DFHelper Memory: AOs need 0.001 [GiB]; user supplied 0.366 [GiB]. Using in-core AOs.

  ==> MemDFJK: Density-Fitted J/K Matrices <==

    J tasked:                   Yes
    K tasked:                   Yes
    wK tasked:                   No
    OpenMP threads:               8
    Memory (MB):                375
    Algorithm:                 Core
    Schwarz Cutoff:           1E-12
    Mask sparsity (%):       0.0000
    Fitting Condition:        1E-12

   => Auxiliary Basis Set <=

  Basis Set: (CC-PVDZ AUX)
    Blend: CC-PVDZ-JKFIT
    Number of shells: 42
    Number of basis function: 116
    Number of Cartesian functions: 131
    Spherical Harmonics?: true
    Max angular momentum: 3

  Minimum eigenvalue in the overlap matrix is 3.4317700075E-02.
  Using Symmetric Orthogonalization.

  SCF Guess: Superposition of Atomic Densities via on-the-fly atomic UHF.

  ==> Iterations <==

                           Total Energy        Delta E     RMS |[F,P]|

   @DF-RHF iter   0:   -75.98367848452720   -7.59837e+01   1.92100e-01 
   @DF-RHF iter   1:   -75.98843482191133   -4.75634e-03   2.89682e-02 
   @DF-RHF iter   2:   -76.01834607107234   -2.99112e-02   2.19070e-02 DIIS
   @DF-RHF iter   3:   -76.02628287808560   -7.93681e-03   2.60077e-03 DIIS
   @DF-RHF iter   4:   -76.02665706061252   -3.74183e-04   6.90952e-04 DIIS
   @DF-RHF iter   5:   -76.02669317452700   -3.61139e-05   1.35979e-04 DIIS
   @DF-RHF iter   6:   -76.02669504992893   -1.87540e-06   2.54659e-05 DIIS
   @DF-RHF iter   7:   -76.02669511721706   -6.72881e-08   3.73909e-06 DIIS
   @DF-RHF iter   8:   -76.02669511866613   -1.44907e-09   5.60471e-07 DIIS
   @DF-RHF iter   9:   -76.02669511869709   -3.09655e-11   4.73204e-08 DIIS
   @DF-RHF iter  10:   -76.02669511869721   -1.13687e-13   4.94403e-09 DIIS
  Energy converged.


  ==> Post-Iterations <==

    Orbital Energies [Eh]
    ---------------------

    Doubly Occupied:                                                      

       1A1   -20.550608     2A1    -1.335773     1B2    -0.698803  
       3A1    -0.565927     1B1    -0.492966  

    Virtual:                                                              

       4A1     0.185349     2B2     0.256002     3B2     0.788846  
       5A1     0.852111     6A1     1.163631     2B1     1.200488  
       4B2     1.253305     7A1     1.446799     1A2     1.475713  
       3B1     1.675928     8A1     1.868266     5B2     1.932818  
       6B2     2.449906     9A1     2.486500     4B1     3.284041  
       2A2     3.338574    10A1     3.508366    11A1     3.866243  
       7B2     4.145052  

    Final Occupation by Irrep:
             A1    A2    B1    B2 
    DOCC [     3,    0,    1,    1 ]

  @DF-RHF Final Energy:   -76.02669511869721

   => Energetics <=

    Nuclear Repulsion Energy =              9.1793185254287639
    One-Electron Energy =                -123.1238719154403327
    Two-Electron Energy =                  37.9178582713143655
    Total Energy =                        -76.0266951186972051

Computation Completed


Properties will be evaluated at   0.000000,   0.000000,   0.000000 [a0]

Properties computed using the SCF density matrix

  Nuclear Dipole Moment: [e a0]
     X:     0.0000      Y:     0.0000      Z:     0.9750

  Electronic Dipole Moment: [e a0]
     X:     0.0000      Y:     0.0000      Z:    -0.1663

  Dipole Moment: [e a0]
     X:     0.0000      Y:     0.0000      Z:     0.8087     Total:     0.8087

  Dipole Moment: [D]
     X:     0.0000      Y:     0.0000      Z:     2.0555     Total:     2.0555


*** tstop() called on silver at Tue Sep 25 13:51:20 2018
Module time:
	user time   =       8.30 seconds =       0.14 minutes
	system time =       0.10 seconds =       0.00 minutes
	total time  =          1 seconds =       0.02 minutes
Total time:
	user time   =      42.80 seconds =       0.71 minutes
	system time =       0.75 seconds =       0.01 minutes
	total time  =          7 seconds =       0.12 minutes

*** tstart() called on silver
*** at Tue Sep 25 13:51:20 2018


         ------------------------------------------------------------
                                   SCF GRAD                          
                          Rob Parrish, Justin Turney,                
                       Andy Simmonett, and Alex Sokolov              
         ------------------------------------------------------------

  ==> Geometry <==

    Molecular point group: c2v
    Full point group: C2v

    Geometry (in Angstrom), charge = 0, multiplicity = 1:

       Center              X                  Y                   Z               Mass       
    ------------   -----------------  -----------------  -----------------  -----------------
         O            0.000000000000     0.000000000000    -0.065554248798    15.994914619560
         H            0.000000000000    -0.759061990794     0.520196749984     1.007825032070
         H            0.000000000000     0.759061990794     0.520196749984     1.007825032070

  Nuclear repulsion =    9.179318525428764

  ==> Basis Set <==

  Basis Set: CC-PVDZ
    Blend: CC-PVDZ
    Number of shells: 12
    Number of basis function: 24
    Number of Cartesian functions: 25
    Spherical Harmonics?: true
    Max angular momentum: 2

  ==> DFJKGrad: Density-Fitted SCF Gradients <==

    Gradient:                    1
    J tasked:                  Yes
    K tasked:                  Yes
    wK tasked:                  No
    OpenMP threads:              8
    Integrals threads:           8
    Memory (MB):               375
    Schwarz Cutoff:          0E+00
    Fitting Condition:       1E-12

   => Auxiliary Basis Set <=

  Basis Set: (CC-PVDZ AUX)
    Blend: CC-PVDZ-JKFIT
    Number of shells: 42
    Number of basis function: 116
    Number of Cartesian functions: 131
    Spherical Harmonics?: true
    Max angular momentum: 3


  -Total Gradient:
     Atom            X                  Y                   Z
    ------   -----------------  -----------------  -----------------
       1       -0.000000000000     0.000000000000    -0.015743588759
       2        0.000000000000    -0.011659060650     0.007871794379
       3       -0.000000000000     0.011659060650     0.007871794379


*** tstop() called on silver at Tue Sep 25 13:51:21 2018
Module time:
	user time   =       9.32 seconds =       0.16 minutes
	system time =       0.21 seconds =       0.00 minutes
	total time  =          1 seconds =       0.02 minutes
Total time:
	user time   =      52.14 seconds =       0.87 minutes
	system time =       0.96 seconds =       0.02 minutes
	total time  =          8 seconds =       0.13 minutes

  //>>>>>>>>>>>>>>>>>>>>>>>>>>>>>>>>>>>//
  //    Loading displacement 3 of 6    //
  //<<<<<<<<<<<<<<<<<<<<<<<<<<<<<<<<<<<//
gradient() will perform analytic gradient computation.

*** tstart() called on silver
*** at Tue Sep 25 13:51:21 2018

   => Loading Basis Set <=

    Name: CC-PVDZ
    Role: ORBITAL
    Keyword: BASIS
    atoms 1   entry O          line   198 file /home/kraus/psi4bin/cbs_dict/share/psi4/basis/cc-pvdz.gbs 
    atoms 2-3 entry H          line    22 file /home/kraus/psi4bin/cbs_dict/share/psi4/basis/cc-pvdz.gbs 


         ---------------------------------------------------------
                                   SCF
            by Justin Turney, Rob Parrish, Andy Simmonett
                             and Daniel Smith
                              RHF Reference
                        8 Threads,    500 MiB Core
         ---------------------------------------------------------

  ==> Geometry <==

    Molecular point group: c2v
    Full point group: C2v

    Geometry (in Angstrom), charge = 0, multiplicity = 1:

       Center              X                  Y                   Z               Mass       
    ------------   -----------------  -----------------  -----------------  -----------------
         O            0.000000000000     0.000000000000    -0.065775570538    15.994914619560
         H            0.000000000000    -0.760925637419     0.521953018295     1.007825032070
         H            0.000000000000     0.760925637419     0.521953018295     1.007825032070

  Running in c2v symmetry.

  Rotational constants: A =     27.26297  B =     14.44431  C =      9.44187 [cm^-1]
  Rotational constants: A = 817323.20514  B = 433029.64182  C = 283060.23826 [MHz]
  Nuclear repulsion =    9.153816284505739

  Charge       = 0
  Multiplicity = 1
  Electrons    = 10
  Nalpha       = 5
  Nbeta        = 5

  ==> Algorithm <==

  SCF Algorithm Type is DF.
  DIIS enabled.
  MOM disabled.
  Fractional occupation disabled.
  Guess Type is SAD.
  Energy threshold   = 1.00e-10
  Density threshold  = 1.00e-08
  Integral threshold = 0.00e+00

  ==> Primary Basis <==

  Basis Set: CC-PVDZ
    Blend: CC-PVDZ
    Number of shells: 12
    Number of basis function: 24
    Number of Cartesian functions: 25
    Spherical Harmonics?: true
    Max angular momentum: 2

   => Loading Basis Set <=

    Name: (CC-PVDZ AUX)
    Role: JKFIT
    Keyword: DF_BASIS_SCF
    atoms 1   entry O          line   221 file /home/kraus/psi4bin/cbs_dict/share/psi4/basis/cc-pvdz-jkfit.gbs 
    atoms 2-3 entry H          line    51 file /home/kraus/psi4bin/cbs_dict/share/psi4/basis/cc-pvdz-jkfit.gbs 

  ==> Pre-Iterations <==

   -------------------------------------------------------
    Irrep   Nso     Nmo     Nalpha   Nbeta   Ndocc  Nsocc
   -------------------------------------------------------
     A1        11      11       0       0       0       0
     A2         2       2       0       0       0       0
     B1         4       4       0       0       0       0
     B2         7       7       0       0       0       0
   -------------------------------------------------------
    Total      24      24       5       5       5       0
   -------------------------------------------------------

  ==> Integral Setup <==

  DFHelper Memory: AOs need 0.001 [GiB]; user supplied 0.366 [GiB]. Using in-core AOs.

  ==> MemDFJK: Density-Fitted J/K Matrices <==

    J tasked:                   Yes
    K tasked:                   Yes
    wK tasked:                   No
    OpenMP threads:               8
    Memory (MB):                375
    Algorithm:                 Core
    Schwarz Cutoff:           1E-12
    Mask sparsity (%):       0.0000
    Fitting Condition:        1E-12

   => Auxiliary Basis Set <=

  Basis Set: (CC-PVDZ AUX)
    Blend: CC-PVDZ-JKFIT
    Number of shells: 42
    Number of basis function: 116
    Number of Cartesian functions: 131
    Spherical Harmonics?: true
    Max angular momentum: 3

  Minimum eigenvalue in the overlap matrix is 3.4503039484E-02.
  Using Symmetric Orthogonalization.

  SCF Guess: Superposition of Atomic Densities via on-the-fly atomic UHF.

  ==> Iterations <==

                           Total Energy        Delta E     RMS |[F,P]|

   @DF-RHF iter   0:   -75.89253678848510   -7.58925e+01   1.66571e-01 
   @DF-RHF iter   1:   -76.00519083235311   -1.12654e-01   2.34857e-02 
   @DF-RHF iter   2:   -76.02198604766386   -1.67952e-02   1.36537e-02 DIIS
   @DF-RHF iter   3:   -76.02635882876913   -4.37278e-03   2.07481e-03 DIIS
   @DF-RHF iter   4:   -76.02652322009256   -1.64391e-04   3.59075e-04 DIIS
   @DF-RHF iter   5:   -76.02653872046388   -1.55004e-05   9.23871e-05 DIIS
   @DF-RHF iter   6:   -76.02653981858883   -1.09812e-06   1.70879e-05 DIIS
   @DF-RHF iter   7:   -76.02653985072483   -3.21360e-08   2.17645e-06 DIIS
   @DF-RHF iter   8:   -76.02653985113137   -4.06544e-10   4.16740e-07 DIIS
   @DF-RHF iter   9:   -76.02653985114262   -1.12408e-11   4.16666e-08 DIIS
   @DF-RHF iter  10:   -76.02653985114273   -1.13687e-13   4.07017e-09 DIIS
  Energy converged.


  ==> Post-Iterations <==

    Orbital Energies [Eh]
    ---------------------

    Doubly Occupied:                                                      

       1A1   -20.551108     2A1    -1.334459     1B2    -0.697272  
       3A1    -0.565535     1B1    -0.492793  

    Virtual:                                                              

       4A1     0.184884     2B2     0.255612     3B2     0.786753  
       5A1     0.849825     6A1     1.163856     2B1     1.200440  
       4B2     1.253521     7A1     1.446771     1A2     1.475189  
       3B1     1.675136     8A1     1.868732     5B2     1.930166  
       6B2     2.443433     9A1     2.479885     4B1     3.281943  
       2A2     3.335741    10A1     3.505045    11A1     3.862917  
       7B2     4.142293  

    Final Occupation by Irrep:
             A1    A2    B1    B2 
    DOCC [     3,    0,    1,    1 ]

  @DF-RHF Final Energy:   -76.02653985114273

   => Energetics <=

    Nuclear Repulsion Energy =              9.1538162845057389
    One-Electron Energy =                -123.0783779688797637
    Two-Electron Energy =                  37.8980218332312973
    Total Energy =                        -76.0265398511427293

Computation Completed


Properties will be evaluated at   0.000000,   0.000000,   0.000000 [a0]

Properties computed using the SCF density matrix

  Nuclear Dipole Moment: [e a0]
     X:     0.0000      Y:     0.0000      Z:     0.9783

  Electronic Dipole Moment: [e a0]
     X:     0.0000      Y:     0.0000      Z:    -0.1683

  Dipole Moment: [e a0]
     X:     0.0000      Y:     0.0000      Z:     0.8100     Total:     0.8100

  Dipole Moment: [D]
     X:     0.0000      Y:     0.0000      Z:     2.0589     Total:     2.0589


*** tstop() called on silver at Tue Sep 25 13:51:23 2018
Module time:
	user time   =       8.30 seconds =       0.14 minutes
	system time =       0.11 seconds =       0.00 minutes
	total time  =          2 seconds =       0.03 minutes
Total time:
	user time   =      60.56 seconds =       1.01 minutes
	system time =       1.07 seconds =       0.02 minutes
	total time  =         10 seconds =       0.17 minutes

*** tstart() called on silver
*** at Tue Sep 25 13:51:23 2018


         ------------------------------------------------------------
                                   SCF GRAD                          
                          Rob Parrish, Justin Turney,                
                       Andy Simmonett, and Alex Sokolov              
         ------------------------------------------------------------

  ==> Geometry <==

    Molecular point group: c2v
    Full point group: C2v

    Geometry (in Angstrom), charge = 0, multiplicity = 1:

       Center              X                  Y                   Z               Mass       
    ------------   -----------------  -----------------  -----------------  -----------------
         O            0.000000000000     0.000000000000    -0.065775570538    15.994914619560
         H            0.000000000000    -0.760925637419     0.521953018295     1.007825032070
         H            0.000000000000     0.760925637419     0.521953018295     1.007825032070

  Nuclear repulsion =    9.153816284505739

  ==> Basis Set <==

  Basis Set: CC-PVDZ
    Blend: CC-PVDZ
    Number of shells: 12
    Number of basis function: 24
    Number of Cartesian functions: 25
    Spherical Harmonics?: true
    Max angular momentum: 2

  ==> DFJKGrad: Density-Fitted SCF Gradients <==

    Gradient:                    1
    J tasked:                  Yes
    K tasked:                  Yes
    wK tasked:                  No
    OpenMP threads:              8
    Integrals threads:           8
    Memory (MB):               375
    Schwarz Cutoff:          0E+00
    Fitting Condition:       1E-12

   => Auxiliary Basis Set <=

  Basis Set: (CC-PVDZ AUX)
    Blend: CC-PVDZ-JKFIT
    Number of shells: 42
    Number of basis function: 116
    Number of Cartesian functions: 131
    Spherical Harmonics?: true
    Max angular momentum: 3


  -Total Gradient:
     Atom            X                  Y                   Z
    ------   -----------------  -----------------  -----------------
       1        0.000000000000     0.000000000000    -0.019091966387
       2        0.000000000000    -0.013933554794     0.009545983193
       3       -0.000000000000     0.013933554794     0.009545983193


*** tstop() called on silver at Tue Sep 25 13:51:24 2018
Module time:
	user time   =       9.34 seconds =       0.16 minutes
	system time =       0.21 seconds =       0.00 minutes
	total time  =          1 seconds =       0.02 minutes
Total time:
	user time   =      69.92 seconds =       1.17 minutes
	system time =       1.28 seconds =       0.02 minutes
	total time  =         11 seconds =       0.18 minutes

  //>>>>>>>>>>>>>>>>>>>>>>>>>>>>>>>>>>>//
  //    Loading displacement 4 of 6    //
  //<<<<<<<<<<<<<<<<<<<<<<<<<<<<<<<<<<<//
gradient() will perform analytic gradient computation.

*** tstart() called on silver
*** at Tue Sep 25 13:51:24 2018

   => Loading Basis Set <=

    Name: CC-PVDZ
    Role: ORBITAL
    Keyword: BASIS
    atoms 1   entry O          line   198 file /home/kraus/psi4bin/cbs_dict/share/psi4/basis/cc-pvdz.gbs 
    atoms 2-3 entry H          line    22 file /home/kraus/psi4bin/cbs_dict/share/psi4/basis/cc-pvdz.gbs 


         ---------------------------------------------------------
                                   SCF
            by Justin Turney, Rob Parrish, Andy Simmonett
                             and Daniel Smith
                              RHF Reference
                        8 Threads,    500 MiB Core
         ---------------------------------------------------------

  ==> Geometry <==

    Molecular point group: c2v
    Full point group: C2v

    Geometry (in Angstrom), charge = 0, multiplicity = 1:

       Center              X                  Y                   Z               Mass       
    ------------   -----------------  -----------------  -----------------  -----------------
         O            0.000000000000     0.000000000000    -0.065775570538    15.994914619560
         H            0.000000000000    -0.757198344170     0.521953018295     1.007825032070
         H            0.000000000000     0.757198344170     0.521953018295     1.007825032070

  Running in c2v symmetry.

  Rotational constants: A =     27.26297  B =     14.58687  C =      9.50258 [cm^-1]
  Rotational constants: A = 817323.20514  B = 437303.29346  C = 284880.10562 [MHz]
  Nuclear repulsion =    9.182603540794874

  Charge       = 0
  Multiplicity = 1
  Electrons    = 10
  Nalpha       = 5
  Nbeta        = 5

  ==> Algorithm <==

  SCF Algorithm Type is DF.
  DIIS enabled.
  MOM disabled.
  Fractional occupation disabled.
  Guess Type is SAD.
  Energy threshold   = 1.00e-10
  Density threshold  = 1.00e-08
  Integral threshold = 0.00e+00

  ==> Primary Basis <==

  Basis Set: CC-PVDZ
    Blend: CC-PVDZ
    Number of shells: 12
    Number of basis function: 24
    Number of Cartesian functions: 25
    Spherical Harmonics?: true
    Max angular momentum: 2

   => Loading Basis Set <=

    Name: (CC-PVDZ AUX)
    Role: JKFIT
    Keyword: DF_BASIS_SCF
    atoms 1   entry O          line   221 file /home/kraus/psi4bin/cbs_dict/share/psi4/basis/cc-pvdz-jkfit.gbs 
    atoms 2-3 entry H          line    51 file /home/kraus/psi4bin/cbs_dict/share/psi4/basis/cc-pvdz-jkfit.gbs 

  ==> Pre-Iterations <==

   -------------------------------------------------------
    Irrep   Nso     Nmo     Nalpha   Nbeta   Ndocc  Nsocc
   -------------------------------------------------------
     A1        11      11       0       0       0       0
     A2         2       2       0       0       0       0
     B1         4       4       0       0       0       0
     B2         7       7       0       0       0       0
   -------------------------------------------------------
    Total      24      24       5       5       5       0
   -------------------------------------------------------

  ==> Integral Setup <==

  DFHelper Memory: AOs need 0.001 [GiB]; user supplied 0.366 [GiB]. Using in-core AOs.

  ==> MemDFJK: Density-Fitted J/K Matrices <==

    J tasked:                   Yes
    K tasked:                   Yes
    wK tasked:                   No
    OpenMP threads:               8
    Memory (MB):                375
    Algorithm:                 Core
    Schwarz Cutoff:           1E-12
    Mask sparsity (%):       0.0000
    Fitting Condition:        1E-12

   => Auxiliary Basis Set <=

  Basis Set: (CC-PVDZ AUX)
    Blend: CC-PVDZ-JKFIT
    Number of shells: 42
    Number of basis function: 116
    Number of Cartesian functions: 131
    Spherical Harmonics?: true
    Max angular momentum: 3

  Minimum eigenvalue in the overlap matrix is 3.4252102229E-02.
  Using Symmetric Orthogonalization.

  SCF Guess: Superposition of Atomic Densities via on-the-fly atomic UHF.

  ==> Iterations <==

                           Total Energy        Delta E     RMS |[F,P]|

   @DF-RHF iter   0:   -75.89807589421447   -7.58981e+01   2.05350e-01 
   @DF-RHF iter   1:   -76.00529159902791   -1.07216e-01   2.66830e-02 
   @DF-RHF iter   2:   -76.02216222924777   -1.68706e-02   1.49610e-02 DIIS
   @DF-RHF iter   3:   -76.02653354068680   -4.37131e-03   1.69307e-03 DIIS
   @DF-RHF iter   4:   -76.02669840083654   -1.64860e-04   4.75159e-04 DIIS
   @DF-RHF iter   5:   -76.02671392214720   -1.55213e-05   1.01213e-04 DIIS
   @DF-RHF iter   6:   -76.02671501103666   -1.08889e-06   1.53335e-05 DIIS
   @DF-RHF iter   7:   -76.02671504244923   -3.14126e-08   2.00491e-06 DIIS
   @DF-RHF iter   8:   -76.02671504284672   -3.97492e-10   3.03148e-07 DIIS
   @DF-RHF iter   9:   -76.02671504285773   -1.10134e-11   3.61700e-08 DIIS
   @DF-RHF iter  10:   -76.02671504285797   -2.41585e-13   3.19341e-09 DIIS
  Energy converged.


  ==> Post-Iterations <==

    Orbital Energies [Eh]
    ---------------------

    Doubly Occupied:                                                      

       1A1   -20.550740     2A1    -1.336166     1B2    -0.698332  
       3A1    -0.566639     1B1    -0.493103  

    Virtual:                                                              

       4A1     0.185329     2B2     0.256080     3B2     0.787921  
       5A1     0.853833     6A1     1.163858     2B1     1.200406  
       4B2     1.253627     7A1     1.443806     1A2     1.476840  
       3B1     1.674180     8A1     1.867491     5B2     1.935005  
       6B2     2.449628     9A1     2.487765     4B1     3.285980  
       2A2     3.337595    10A1     3.510206    11A1     3.863931  
       7B2     4.147230  

    Final Occupation by Irrep:
             A1    A2    B1    B2 
    DOCC [     3,    0,    1,    1 ]

  @DF-RHF Final Energy:   -76.02671504285797

   => Energetics <=

    Nuclear Repulsion Energy =              9.1826035407948741
    One-Electron Energy =                -123.1286765158269105
    Two-Electron Energy =                  37.9193579321740728
    Total Energy =                        -76.0267150428579725

Computation Completed


Properties will be evaluated at   0.000000,   0.000000,   0.000000 [a0]

Properties computed using the SCF density matrix

  Nuclear Dipole Moment: [e a0]
     X:     0.0000      Y:     0.0000      Z:     0.9783

  Electronic Dipole Moment: [e a0]
     X:     0.0000      Y:     0.0000      Z:    -0.1678

  Dipole Moment: [e a0]
     X:     0.0000      Y:     0.0000      Z:     0.8105     Total:     0.8105

  Dipole Moment: [D]
     X:     0.0000      Y:     0.0000      Z:     2.0602     Total:     2.0602


*** tstop() called on silver at Tue Sep 25 13:51:26 2018
Module time:
	user time   =       8.49 seconds =       0.14 minutes
	system time =       0.13 seconds =       0.00 minutes
	total time  =          2 seconds =       0.03 minutes
Total time:
	user time   =      78.52 seconds =       1.31 minutes
	system time =       1.41 seconds =       0.02 minutes
	total time  =         13 seconds =       0.22 minutes

*** tstart() called on silver
*** at Tue Sep 25 13:51:26 2018


         ------------------------------------------------------------
                                   SCF GRAD                          
                          Rob Parrish, Justin Turney,                
                       Andy Simmonett, and Alex Sokolov              
         ------------------------------------------------------------

  ==> Geometry <==

    Molecular point group: c2v
    Full point group: C2v

    Geometry (in Angstrom), charge = 0, multiplicity = 1:

       Center              X                  Y                   Z               Mass       
    ------------   -----------------  -----------------  -----------------  -----------------
         O            0.000000000000     0.000000000000    -0.065775570538    15.994914619560
         H            0.000000000000    -0.757198344170     0.521953018295     1.007825032070
         H            0.000000000000     0.757198344170     0.521953018295     1.007825032070

  Nuclear repulsion =    9.182603540794874

  ==> Basis Set <==

  Basis Set: CC-PVDZ
    Blend: CC-PVDZ
    Number of shells: 12
    Number of basis function: 24
    Number of Cartesian functions: 25
    Spherical Harmonics?: true
    Max angular momentum: 2

  ==> DFJKGrad: Density-Fitted SCF Gradients <==

    Gradient:                    1
    J tasked:                  Yes
    K tasked:                  Yes
    wK tasked:                  No
    OpenMP threads:              8
    Integrals threads:           8
    Memory (MB):               375
    Schwarz Cutoff:          0E+00
    Fitting Condition:       1E-12

   => Auxiliary Basis Set <=

  Basis Set: (CC-PVDZ AUX)
    Blend: CC-PVDZ-JKFIT
    Number of shells: 42
    Number of basis function: 116
    Number of Cartesian functions: 131
    Spherical Harmonics?: true
    Max angular momentum: 3


  -Total Gradient:
     Atom            X                  Y                   Z
    ------   -----------------  -----------------  -----------------
       1       -0.000000000000     0.000000000000    -0.016170101482
       2        0.000000000000    -0.010930573734     0.008085050741
       3       -0.000000000000     0.010930573734     0.008085050741


*** tstop() called on silver at Tue Sep 25 13:51:27 2018
Module time:
	user time   =       9.32 seconds =       0.16 minutes
	system time =       0.20 seconds =       0.00 minutes
	total time  =          1 seconds =       0.02 minutes
Total time:
	user time   =      87.86 seconds =       1.46 minutes
	system time =       1.61 seconds =       0.03 minutes
	total time  =         14 seconds =       0.23 minutes

  //>>>>>>>>>>>>>>>>>>>>>>>>>>>>>>>>>>>//
  //    Loading displacement 5 of 6    //
  //<<<<<<<<<<<<<<<<<<<<<<<<<<<<<<<<<<<//
gradient() will perform analytic gradient computation.

*** tstart() called on silver
*** at Tue Sep 25 13:51:27 2018

   => Loading Basis Set <=

    Name: CC-PVDZ
    Role: ORBITAL
    Keyword: BASIS
    atoms 1   entry O          line   198 file /home/kraus/psi4bin/cbs_dict/share/psi4/basis/cc-pvdz.gbs 
    atoms 2-3 entry H          line    22 file /home/kraus/psi4bin/cbs_dict/share/psi4/basis/cc-pvdz.gbs 


         ---------------------------------------------------------
                                   SCF
            by Justin Turney, Rob Parrish, Andy Simmonett
                             and Daniel Smith
                              RHF Reference
                        8 Threads,    500 MiB Core
         ---------------------------------------------------------

  ==> Geometry <==

    Molecular point group: cs
    Full point group: Cs

    Geometry (in Angstrom), charge = 0, multiplicity = 1:

       Center              X                  Y                   Z               Mass       
    ------------   -----------------  -----------------  -----------------  -----------------
         O            0.000000000000    -0.000178786729    -0.065775570538    15.994914619560
         H            0.000000000000    -0.757643253230     0.520854514304     1.007825032070
         H            0.000000000000     0.760480728358     0.523051522286     1.007825032070

  Running in cs symmetry.

  Rotational constants: A =     27.26378  B =     14.51501  C =      9.47213 [cm^-1]
  Rotational constants: A = 817347.49341  B = 435149.09044  C = 283967.25621 [MHz]
  Nuclear repulsion =    9.168228694827295

  Charge       = 0
  Multiplicity = 1
  Electrons    = 10
  Nalpha       = 5
  Nbeta        = 5

  ==> Algorithm <==

  SCF Algorithm Type is DF.
  DIIS enabled.
  MOM disabled.
  Fractional occupation disabled.
  Guess Type is SAD.
  Energy threshold   = 1.00e-10
  Density threshold  = 1.00e-08
  Integral threshold = 0.00e+00

  ==> Primary Basis <==

  Basis Set: CC-PVDZ
    Blend: CC-PVDZ
    Number of shells: 12
    Number of basis function: 24
    Number of Cartesian functions: 25
    Spherical Harmonics?: true
    Max angular momentum: 2

   => Loading Basis Set <=

    Name: (CC-PVDZ AUX)
    Role: JKFIT
    Keyword: DF_BASIS_SCF
    atoms 1   entry O          line   221 file /home/kraus/psi4bin/cbs_dict/share/psi4/basis/cc-pvdz-jkfit.gbs 
    atoms 2-3 entry H          line    51 file /home/kraus/psi4bin/cbs_dict/share/psi4/basis/cc-pvdz-jkfit.gbs 

  ==> Pre-Iterations <==

   -------------------------------------------------------
    Irrep   Nso     Nmo     Nalpha   Nbeta   Ndocc  Nsocc
   -------------------------------------------------------
     A'        18      18       0       0       0       0
     A"         6       6       0       0       0       0
   -------------------------------------------------------
    Total      24      24       5       5       5       0
   -------------------------------------------------------

  ==> Integral Setup <==

  DFHelper Memory: AOs need 0.001 [GiB]; user supplied 0.366 [GiB]. Using in-core AOs.

  ==> MemDFJK: Density-Fitted J/K Matrices <==

    J tasked:                   Yes
    K tasked:                   Yes
    wK tasked:                   No
    OpenMP threads:               8
    Memory (MB):                375
    Algorithm:                 Core
    Schwarz Cutoff:           1E-12
    Mask sparsity (%):       0.0000
    Fitting Condition:        1E-12

   => Auxiliary Basis Set <=

  Basis Set: (CC-PVDZ AUX)
    Blend: CC-PVDZ-JKFIT
    Number of shells: 42
    Number of basis function: 116
    Number of Cartesian functions: 131
    Spherical Harmonics?: true
    Max angular momentum: 3

  Minimum eigenvalue in the overlap matrix is 3.4376245210E-02.
  Using Symmetric Orthogonalization.

  SCF Guess: Superposition of Atomic Densities via on-the-fly atomic UHF.

  ==> Iterations <==

                           Total Energy        Delta E     RMS |[F,P]|

   @DF-RHF iter   0:   -76.09613561767939   -7.60961e+01   1.78355e-01 
   @DF-RHF iter   1:   -75.97316728851428    1.22968e-01   2.82905e-02 
   @DF-RHF iter   2:   -76.01558749618056   -4.24202e-02   1.76125e-02 DIIS
   @DF-RHF iter   3:   -76.02563619243142   -1.00487e-02   2.56671e-03 DIIS
   @DF-RHF iter   4:   -76.02654410240216   -9.07910e-04   6.94461e-04 DIIS
   @DF-RHF iter   5:   -76.02662205151748   -7.79491e-05   1.38761e-04 DIIS
   @DF-RHF iter   6:   -76.02662495547526   -2.90396e-06   2.61080e-05 DIIS
   @DF-RHF iter   7:   -76.02662508631546   -1.30840e-07   3.76631e-06 DIIS
   @DF-RHF iter   8:   -76.02662508970069   -3.38522e-09   5.49808e-07 DIIS
   @DF-RHF iter   9:   -76.02662508974153   -4.08420e-11   4.16107e-08 DIIS
   @DF-RHF iter  10:   -76.02662508974171   -1.84741e-13   4.54830e-09 DIIS
  Energy converged.


  ==> Post-Iterations <==

    Orbital Energies [Eh]
    ---------------------

    Doubly Occupied:                                                      

       1Ap   -20.550924     2Ap    -1.335315     3Ap    -0.697804  
       4Ap    -0.566085     1App   -0.492948  

    Virtual:                                                              

       5Ap     0.185105     6Ap     0.255847     7Ap     0.787295  
       8Ap     0.851875     9Ap     1.163850     2App    1.200420  
      10Ap     1.253581    11Ap     1.445293     3App    1.476016  
       4App    1.674663    12Ap     1.868110    13Ap     1.932579  
      14Ap     2.445954    15Ap     2.484412     5App    3.283886  
       6App    3.336747    16Ap     3.507640    17Ap     3.863403  
      18Ap     4.144784  

    Final Occupation by Irrep:
             Ap   App 
    DOCC [     4,    1 ]

  @DF-RHF Final Energy:   -76.02662508974171

   => Energetics <=

    Nuclear Repulsion Energy =              9.1682286948272953
    One-Electron Energy =                -123.1035547533186474
    Two-Electron Energy =                  37.9087009687496419
    Total Energy =                        -76.0266250897417137

Computation Completed


Properties will be evaluated at   0.000000,   0.000000,   0.000000 [a0]

Properties computed using the SCF density matrix

  Nuclear Dipole Moment: [e a0]
     X:     0.0000      Y:     0.0027      Z:     0.9783

  Electronic Dipole Moment: [e a0]
     X:     0.0000      Y:    -0.0015      Z:    -0.1680

  Dipole Moment: [e a0]
     X:     0.0000      Y:     0.0012      Z:     0.8103     Total:     0.8103

  Dipole Moment: [D]
     X:     0.0000      Y:     0.0031      Z:     2.0595     Total:     2.0595


*** tstop() called on silver at Tue Sep 25 13:51:28 2018
Module time:
	user time   =       8.31 seconds =       0.14 minutes
	system time =       0.13 seconds =       0.00 minutes
	total time  =          1 seconds =       0.02 minutes
Total time:
	user time   =      96.28 seconds =       1.60 minutes
	system time =       1.74 seconds =       0.03 minutes
	total time  =         15 seconds =       0.25 minutes

*** tstart() called on silver
*** at Tue Sep 25 13:51:28 2018


         ------------------------------------------------------------
                                   SCF GRAD                          
                          Rob Parrish, Justin Turney,                
                       Andy Simmonett, and Alex Sokolov              
         ------------------------------------------------------------

  ==> Geometry <==

    Molecular point group: cs
    Full point group: Cs

    Geometry (in Angstrom), charge = 0, multiplicity = 1:

       Center              X                  Y                   Z               Mass       
    ------------   -----------------  -----------------  -----------------  -----------------
         O            0.000000000000    -0.000178786729    -0.065775570538    15.994914619560
         H            0.000000000000    -0.757643253230     0.520854514304     1.007825032070
         H            0.000000000000     0.760480728358     0.523051522286     1.007825032070

  Nuclear repulsion =    9.168228694827295

  ==> Basis Set <==

  Basis Set: CC-PVDZ
    Blend: CC-PVDZ
    Number of shells: 12
    Number of basis function: 24
    Number of Cartesian functions: 25
    Spherical Harmonics?: true
    Max angular momentum: 2

  ==> DFJKGrad: Density-Fitted SCF Gradients <==

    Gradient:                    1
    J tasked:                  Yes
    K tasked:                  Yes
    wK tasked:                  No
    OpenMP threads:              8
    Integrals threads:           8
    Memory (MB):               375
    Schwarz Cutoff:          0E+00
    Fitting Condition:       1E-12

   => Auxiliary Basis Set <=

  Basis Set: (CC-PVDZ AUX)
    Blend: CC-PVDZ-JKFIT
    Number of shells: 42
    Number of basis function: 116
    Number of Cartesian functions: 131
    Spherical Harmonics?: true
    Max angular momentum: 3


  -Total Gradient:
     Atom            X                  Y                   Z
    ------   -----------------  -----------------  -----------------
       1        0.000000000000    -0.003305711403    -0.017624077668
       2        0.000000000000    -0.010774934449     0.007532821609
       3        0.000000000000     0.014080645852     0.010091256059


*** tstop() called on silver at Tue Sep 25 13:51:30 2018
Module time:
	user time   =       9.29 seconds =       0.15 minutes
	system time =       0.23 seconds =       0.00 minutes
	total time  =          2 seconds =       0.03 minutes
Total time:
	user time   =     105.59 seconds =       1.76 minutes
	system time =       1.97 seconds =       0.03 minutes
	total time  =         17 seconds =       0.28 minutes

  //>>>>>>>>>>>>>>>>>>>>>>>>>>>>>>>>>>>//
  //    Loading displacement 6 of 6    //
  //<<<<<<<<<<<<<<<<<<<<<<<<<<<<<<<<<<<//
gradient() will perform analytic gradient computation.

*** tstart() called on silver
*** at Tue Sep 25 13:51:30 2018

   => Loading Basis Set <=

    Name: CC-PVDZ
    Role: ORBITAL
    Keyword: BASIS
    atoms 1   entry O          line   198 file /home/kraus/psi4bin/cbs_dict/share/psi4/basis/cc-pvdz.gbs 
    atoms 2-3 entry H          line    22 file /home/kraus/psi4bin/cbs_dict/share/psi4/basis/cc-pvdz.gbs 


         ---------------------------------------------------------
                                   SCF
            by Justin Turney, Rob Parrish, Andy Simmonett
                             and Daniel Smith
                              RHF Reference
                        8 Threads,    500 MiB Core
         ---------------------------------------------------------

  ==> Geometry <==

    Molecular point group: c2v
    Full point group: C2v

    Geometry (in Angstrom), charge = 0, multiplicity = 1:

       Center              X                  Y                   Z               Mass       
    ------------   -----------------  -----------------  -----------------  -----------------
         O            0.000000000000     0.000000000000    -0.065775570538    15.994914619560
         H            0.000000000000    -0.759061990794     0.521953018295     1.007825032070
         H            0.000000000000     0.759061990794     0.521953018295     1.007825032070

  Running in c2v symmetry.

  Rotational constants: A =     27.26297  B =     14.51533  C =      9.47217 [cm^-1]
  Rotational constants: A = 817323.20514  B = 435158.59817  C = 283968.37324 [MHz]
  Nuclear repulsion =    9.168193260387577

  Charge       = 0
  Multiplicity = 1
  Electrons    = 10
  Nalpha       = 5
  Nbeta        = 5

  ==> Algorithm <==

  SCF Algorithm Type is DF.
  DIIS enabled.
  MOM disabled.
  Fractional occupation disabled.
  Guess Type is SAD.
  Energy threshold   = 1.00e-10
  Density threshold  = 1.00e-08
  Integral threshold = 0.00e+00

  ==> Primary Basis <==

  Basis Set: CC-PVDZ
    Blend: CC-PVDZ
    Number of shells: 12
    Number of basis function: 24
    Number of Cartesian functions: 25
    Spherical Harmonics?: true
    Max angular momentum: 2

   => Loading Basis Set <=

    Name: (CC-PVDZ AUX)
    Role: JKFIT
    Keyword: DF_BASIS_SCF
    atoms 1   entry O          line   221 file /home/kraus/psi4bin/cbs_dict/share/psi4/basis/cc-pvdz-jkfit.gbs 
    atoms 2-3 entry H          line    51 file /home/kraus/psi4bin/cbs_dict/share/psi4/basis/cc-pvdz-jkfit.gbs 

  ==> Pre-Iterations <==

   -------------------------------------------------------
    Irrep   Nso     Nmo     Nalpha   Nbeta   Ndocc  Nsocc
   -------------------------------------------------------
     A1        11      11       0       0       0       0
     A2         2       2       0       0       0       0
     B1         4       4       0       0       0       0
     B2         7       7       0       0       0       0
   -------------------------------------------------------
    Total      24      24       5       5       5       0
   -------------------------------------------------------

  ==> Integral Setup <==

  DFHelper Memory: AOs need 0.001 [GiB]; user supplied 0.366 [GiB]. Using in-core AOs.

  ==> MemDFJK: Density-Fitted J/K Matrices <==

    J tasked:                   Yes
    K tasked:                   Yes
    wK tasked:                   No
    OpenMP threads:               8
    Memory (MB):                375
    Algorithm:                 Core
    Schwarz Cutoff:           1E-12
    Mask sparsity (%):       0.0000
    Fitting Condition:        1E-12

   => Auxiliary Basis Set <=

  Basis Set: (CC-PVDZ AUX)
    Blend: CC-PVDZ-JKFIT
    Number of shells: 42
    Number of basis function: 116
    Number of Cartesian functions: 131
    Spherical Harmonics?: true
    Max angular momentum: 3

  Minimum eigenvalue in the overlap matrix is 3.4377086883E-02.
  Using Symmetric Orthogonalization.

  SCF Guess: Superposition of Atomic Densities via on-the-fly atomic UHF.

  ==> Iterations <==

                           Total Energy        Delta E     RMS |[F,P]|

   @DF-RHF iter   0:   -75.89530570965437   -7.58953e+01   1.67118e-01 
   @DF-RHF iter   1:   -76.00524669119459   -1.09941e-01   2.66565e-02 
   @DF-RHF iter   2:   -76.02207948980923   -1.68328e-02   1.26425e-02 DIIS
   @DF-RHF iter   3:   -76.02645147277228   -4.37198e-03   1.87232e-03 DIIS
   @DF-RHF iter   4:   -76.02661609804781   -1.64625e-04   3.80227e-04 DIIS
   @DF-RHF iter   5:   -76.02663160921207   -1.55112e-05   1.03473e-04 DIIS
   @DF-RHF iter   6:   -76.02663270272370   -1.09351e-06   2.21092e-05 DIIS
   @DF-RHF iter   7:   -76.02663273449569   -3.17720e-08   2.23126e-06 DIIS
   @DF-RHF iter   8:   -76.02663273489758   -4.01883e-10   3.40083e-07 DIIS
   @DF-RHF iter   9:   -76.02663273490883   -1.12550e-11   4.38701e-08 DIIS
   @DF-RHF iter  10:   -76.02663273490893   -9.94760e-14   3.43845e-09 DIIS
  Energy converged.


  ==> Post-Iterations <==

    Orbital Energies [Eh]
    ---------------------

    Doubly Occupied:                                                      

       1A1   -20.550925     2A1    -1.335311     1B2    -0.697803  
       3A1    -0.566087     1B1    -0.492948  

    Virtual:                                                              

       4A1     0.185107     2B2     0.255846     3B2     0.787336  
       5A1     0.851826     6A1     1.163856     2B1     1.200424  
       4B2     1.253573     7A1     1.445291     1A2     1.476011  
       3B1     1.674661     8A1     1.868110     5B2     1.932579  
       6B2     2.446529     9A1     2.483817     4B1     3.283958  
       2A2     3.336669    10A1     3.507634    11A1     3.863421  
       7B2     4.144760  

    Final Occupation by Irrep:
             A1    A2    B1    B2 
    DOCC [     3,    0,    1,    1 ]

  @DF-RHF Final Energy:   -76.02663273490893

   => Energetics <=

    Nuclear Repulsion Energy =              9.1681932603875769
    One-Electron Energy =                -123.1035071065877560
    Two-Electron Energy =                  37.9086811112912443
    Total Energy =                        -76.0266327349089295

Computation Completed


Properties will be evaluated at   0.000000,   0.000000,   0.000000 [a0]

Properties computed using the SCF density matrix

  Nuclear Dipole Moment: [e a0]
     X:     0.0000      Y:     0.0000      Z:     0.9783

  Electronic Dipole Moment: [e a0]
     X:     0.0000      Y:     0.0000      Z:    -0.1680

  Dipole Moment: [e a0]
     X:     0.0000      Y:     0.0000      Z:     0.8103     Total:     0.8103

  Dipole Moment: [D]
     X:     0.0000      Y:     0.0000      Z:     2.0595     Total:     2.0595


*** tstop() called on silver at Tue Sep 25 13:51:31 2018
Module time:
	user time   =       8.34 seconds =       0.14 minutes
	system time =       0.14 seconds =       0.00 minutes
	total time  =          1 seconds =       0.02 minutes
Total time:
	user time   =     114.04 seconds =       1.90 minutes
	system time =       2.11 seconds =       0.04 minutes
	total time  =         18 seconds =       0.30 minutes

*** tstart() called on silver
*** at Tue Sep 25 13:51:31 2018


         ------------------------------------------------------------
                                   SCF GRAD                          
                          Rob Parrish, Justin Turney,                
                       Andy Simmonett, and Alex Sokolov              
         ------------------------------------------------------------

  ==> Geometry <==

    Molecular point group: c2v
    Full point group: C2v

    Geometry (in Angstrom), charge = 0, multiplicity = 1:

       Center              X                  Y                   Z               Mass       
    ------------   -----------------  -----------------  -----------------  -----------------
         O            0.000000000000     0.000000000000    -0.065775570538    15.994914619560
         H            0.000000000000    -0.759061990794     0.521953018295     1.007825032070
         H            0.000000000000     0.759061990794     0.521953018295     1.007825032070

  Nuclear repulsion =    9.168193260387577

  ==> Basis Set <==

  Basis Set: CC-PVDZ
    Blend: CC-PVDZ
    Number of shells: 12
    Number of basis function: 24
    Number of Cartesian functions: 25
    Spherical Harmonics?: true
    Max angular momentum: 2

  ==> DFJKGrad: Density-Fitted SCF Gradients <==

    Gradient:                    1
    J tasked:                  Yes
    K tasked:                  Yes
    wK tasked:                  No
    OpenMP threads:              8
    Integrals threads:           8
    Memory (MB):               375
    Schwarz Cutoff:          0E+00
    Fitting Condition:       1E-12

   => Auxiliary Basis Set <=

  Basis Set: (CC-PVDZ AUX)
    Blend: CC-PVDZ-JKFIT
    Number of shells: 42
    Number of basis function: 116
    Number of Cartesian functions: 131
    Spherical Harmonics?: true
    Max angular momentum: 3


  -Total Gradient:
     Atom            X                  Y                   Z
    ------   -----------------  -----------------  -----------------
       1       -0.000000000000     0.000000000000    -0.017641632307
       2        0.000000000000    -0.012438417484     0.008820816153
       3       -0.000000000000     0.012438417484     0.008820816153


*** tstop() called on silver at Tue Sep 25 13:51:32 2018
Module time:
	user time   =       9.35 seconds =       0.16 minutes
	system time =       0.16 seconds =       0.00 minutes
	total time  =          1 seconds =       0.02 minutes
Total time:
	user time   =     123.40 seconds =       2.06 minutes
	system time =       2.28 seconds =       0.04 minutes
	total time  =         19 seconds =       0.32 minutes

         ----------------------------------------------------------
                                   FINDIF
                     R. A. King and Jonathon Misiewicz
         ---------------------------------------------------------

  Computing second-derivative from gradients using projected, 
  symmetry-adapted, cartesian coordinates.

  6 gradients passed in, including the reference geometry.
  Generating complete list of displacements from unique ones.

    Operation 2 takes plus displacements of irrep B2 to minus ones.

-------------------------------------------------------------


  ==> Harmonic Vibrational Analysis <==

  non-mass-weighted Hessian:       Symmetric? True   Hermitian? True   Lin Dep Dim?  6 (0)
  projection of translations (True) and rotations (True) removed 6 degrees of freedom (6)
  total projector:                 Symmetric? True   Hermitian? True   Lin Dep Dim?  6 (6)
  mass-weighted Hessian:           Symmetric? True   Hermitian? True   Lin Dep Dim?  6 (0)
  pre-proj  low-frequency mode:    0.0000i [cm^-1]
  pre-proj  low-frequency mode:    0.0000i [cm^-1]
  pre-proj  low-frequency mode:    0.0000  [cm^-1]
  pre-proj  low-frequency mode:    0.0000  [cm^-1]
  pre-proj  low-frequency mode:    0.0000  [cm^-1]
  pre-proj  low-frequency mode:    0.0000  [cm^-1]
  pre-proj  all modes:['0.0001i' '0.0000i' '0.0000' '0.0000' '0.0000' '0.0000' '1809.2464'
 '3923.1516' '4020.1816']
  projected mass-weighted Hessian: Symmetric? True   Hermitian? True   Lin Dep Dim?  6 (6)
  post-proj low-frequency mode:    0.0000i [cm^-1] (TR)
  post-proj low-frequency mode:    0.0000i [cm^-1] (TR)
  post-proj low-frequency mode:    0.0000  [cm^-1] (TR)
  post-proj low-frequency mode:    0.0000  [cm^-1] (TR)
  post-proj low-frequency mode:    0.0000  [cm^-1] (TR)
  post-proj low-frequency mode:    0.0000  [cm^-1] (TR)
  post-proj  all modes:['0.0000i' '0.0000i' '0.0000' '0.0000' '0.0000' '0.0000' '1809.2464'
 '3923.1516' '4020.1816']

  Vibration                       7                   8                   9           
  Freq [cm^-1]                1809.2464           3923.1516           4020.1816       
  Irrep                           A1                  A1                  B2          
  Reduced mass [u]              1.0818              1.0460              1.0819        
  Force const [mDyne/A]         2.0864              9.4849             10.3018        
  Turning point v=0 [a0]        0.2480              0.1713              0.1664        
  RMS dev v=0 [a0 u^1/2]        0.1824              0.1239              0.1224        
  Char temp [K]               2603.0988           5644.5331           5784.1374       
  ----------------------------------------------------------------------------------
      1   O               -0.00 -0.00 -0.07   -0.00 -0.00  0.05    0.00 -0.07 -0.00   
      2   H               -0.00  0.43  0.56    0.00  0.58 -0.40    0.00  0.56 -0.43   
      3   H               -0.00 -0.43  0.56   -0.00 -0.58 -0.40   -0.00  0.56  0.43   

  ==> Thermochemistry Components <==

  Entropy, S
    Electronic S            0.000 [cal/(mol K)]        0.000 [J/(mol K)]       0.00000000 [mEh/K] (multiplicity = 1)
    Translational S        34.608 [cal/(mol K)]      144.801 [J/(mol K)]       0.05515186 [mEh/K] (mol. weight = 18.0106 [u], P = 101325.00 [Pa])
    Rotational S           10.463 [cal/(mol K)]       43.779 [J/(mol K)]       0.01667448 [mEh/K] (symmetry no. = 2)
    Vibrational S           0.003 [cal/(mol K)]        0.013 [J/(mol K)]       0.00000498 [mEh/K]
  Total S                  45.075 [cal/(mol K)]      188.593 [J/(mol K)]       0.07183131 [mEh/K]
  Correction S              0.000 [cal/(mol K)]        0.000 [J/(mol K)]       0.00000000 [mEh/K]

  Constant volume heat capacity, Cv
    Electronic Cv           0.000 [cal/(mol K)]        0.000 [J/(mol K)]       0.00000000 [mEh/K]
    Translational Cv        2.981 [cal/(mol K)]       12.472 [J/(mol K)]       0.00475022 [mEh/K]
    Rotational Cv           2.981 [cal/(mol K)]       12.472 [J/(mol K)]       0.00475022 [mEh/K]
    Vibrational Cv          0.024 [cal/(mol K)]        0.102 [J/(mol K)]       0.00003902 [mEh/K]
  Total Cv                  5.986 [cal/(mol K)]       25.046 [J/(mol K)]       0.00953946 [mEh/K]
  Correction Cv             0.000 [cal/(mol K)]        0.000 [J/(mol K)]       0.00000000 [mEh/K]

  Constant pressure heat capacity, Cp
    Electronic Cp           0.000 [cal/(mol K)]        0.000 [J/(mol K)]       0.00000000 [mEh/K]
    Translational Cp        4.968 [cal/(mol K)]       20.786 [J/(mol K)]       0.00791704 [mEh/K]
    Rotational Cp           2.981 [cal/(mol K)]       12.472 [J/(mol K)]       0.00475022 [mEh/K]
    Vibrational Cp          0.024 [cal/(mol K)]        0.102 [J/(mol K)]       0.00003902 [mEh/K]
  Total Cp                  7.973 [cal/(mol K)]       33.360 [J/(mol K)]       0.01270628 [mEh/K]
  Correction Cp             0.000 [cal/(mol K)]        0.000 [J/(mol K)]       0.00000000 [mEh/K]

  ==> Thermochemistry Energy Analysis <==

  Raw electronic energy, E0
  Total E0, Electronic energy at well bottom at 0 [K]                  -76.02663273 [Eh]

  Zero-point energy, ZPE_vib = Sum_i nu_i / 2
    Electronic ZPE          0.000 [kcal/mol]        0.000 [kJ/mol]       0.00000000 [Eh]
    Translational ZPE       0.000 [kcal/mol]        0.000 [kJ/mol]       0.00000000 [Eh]
    Rotational ZPE          0.000 [kcal/mol]        0.000 [kJ/mol]       0.00000000 [Eh]
    Vibrational ZPE        13.942 [kcal/mol]       58.333 [kJ/mol]       0.02221801 [Eh]        4876.288 [cm^-1]
  Correction ZPE           13.942 [kcal/mol]       58.333 [kJ/mol]       0.02221801 [Eh]        4876.288 [cm^-1]
  Total ZPE, Electronic energy at 0 [K]                                -76.00441473 [Eh]

  Thermal Energy, E (includes ZPE)
    Electronic E            0.000 [kcal/mol]        0.000 [kJ/mol]       0.00000000 [Eh]
    Translational E         0.889 [kcal/mol]        3.718 [kJ/mol]       0.00141628 [Eh]
[...]
       4B2     0.804951     7A1     0.813542     1A2     0.861115  
       3B1     0.965704     8A1     1.117505     5B2     1.202479  
       6B2     1.548515     9A1     1.590609     7B2     2.029622  
       4B1     2.035935     2A2     2.077191    10A1     2.170818  
      11A1     2.232287    12A1     2.613483     8B2     2.973543  
       5B1     3.374789    13A1     3.510933     3A2     3.581099  
       9B2     3.669581     6B1     3.818692    14A1     3.886820  
      10B2     3.902954     4A2     3.967880     7B1     4.027505  
      11B2     4.089152    15A1     4.214174     5A2     4.354286  
      16A1     4.434508    12B2     4.595689     8B1     4.705102  
      13B2     4.915471    17A1     5.214327    18A1     5.272513  
      14B2     5.549873     9B1     6.084502    19A1     6.616489  
      10B1     6.965942     6A2     6.977068    11B1     7.044900  
      20A1     7.065647    15B2     7.170982    21A1     7.176103  
       7A2     7.282849    22A1     7.492423    16B2     7.841409  
      17B2     8.360643    23A1    13.193049  

    Final Occupation by Irrep:
             A1    A2    B1    B2 
    DOCC [     3,    0,    1,    1 ]

  @DF-RHF Final Energy:   -76.05775643437175

   => Energetics <=

    Nuclear Repulsion Energy =              9.3668731388982884
    One-Electron Energy =                -123.4279505909431549
    Two-Electron Energy =                  38.0033210176731160
    Total Energy =                        -76.0577564343717540

Computation Completed


Properties will be evaluated at   0.000000,   0.000000,   0.000000 [a0]

Properties computed using the SCF density matrix

  Nuclear Dipole Moment: [e a0]
     X:     0.0000      Y:     0.0000      Z:     0.9370

  Electronic Dipole Moment: [e a0]
     X:     0.0000      Y:     0.0000      Z:    -0.1576

  Dipole Moment: [e a0]
     X:     0.0000      Y:     0.0000      Z:     0.7794     Total:     0.7794

  Dipole Moment: [D]
     X:     0.0000      Y:     0.0000      Z:     1.9811     Total:     1.9811


*** tstop() called on silver at Tue Sep 25 13:52:18 2018
Module time:
	user time   =      10.11 seconds =       0.17 minutes
	system time =       0.14 seconds =       0.00 minutes
	total time  =          1 seconds =       0.02 minutes
Total time:
	user time   =     363.37 seconds =       6.06 minutes
	system time =       7.73 seconds =       0.13 minutes
	total time  =         65 seconds =       1.08 minutes

*** tstart() called on silver
*** at Tue Sep 25 13:52:18 2018


         ------------------------------------------------------------
                                   SCF HESS                          
                          Rob Parrish, Justin Turney,                
                       Andy Simmonett, and Alex Sokolov              
         ------------------------------------------------------------

  ==> Geometry <==

    Molecular point group: c2v
    Full point group: C2v

    Geometry (in Angstrom), charge = 0, multiplicity = 1:

       Center              X                  Y                   Z               Mass       
    ------------   -----------------  -----------------  -----------------  -----------------
         O            0.000000000000     0.000000000000    -0.063000318018    15.994914619560
         H            0.000000000000    -0.751802862943     0.499930382576     1.007825032070
         H            0.000000000000     0.751802862943     0.499930382576     1.007825032070

  Nuclear repulsion =    9.366873138898287

  ==> Basis Set <==

  Basis Set: CC-PVTZ
    Blend: CC-PVTZ
    Number of shells: 22
    Number of basis function: 58
    Number of Cartesian functions: 65
    Spherical Harmonics?: true
    Max angular momentum: 3

  ==> DFJKGrad: Density-Fitted SCF Gradients <==

    Gradient:                    2
    J tasked:                  Yes
    K tasked:                  Yes
    wK tasked:                  No
    OpenMP threads:              8
    Integrals threads:           8
    Memory (MB):               375
    Schwarz Cutoff:          0E+00
    Fitting Condition:       1E-12

   => Auxiliary Basis Set <=

  Basis Set: (CC-PVTZ AUX)
    Blend: CC-PVTZ-JKFIT
    Number of shells: 45
    Number of basis function: 139
    Number of Cartesian functions: 166
    Spherical Harmonics?: true
    Max angular momentum: 4

  DFHelper Memory: AOs need 0.005 [GiB]; user supplied 0.439 [GiB]. Using in-core AOs.

  ==> MemDFJK: Density-Fitted J/K Matrices <==

    J tasked:                   Yes
    K tasked:                   Yes
    wK tasked:                   No
    OpenMP threads:               8
    Memory (MB):                450
    Algorithm:                 Core
    Schwarz Cutoff:           1E-12
    Mask sparsity (%):       0.0000
    Fitting Condition:        1E-12

   => Auxiliary Basis Set <=

  Basis Set: (CC-PVTZ AUX)
    Blend: CC-PVTZ-JKFIT
    Number of shells: 45
    Number of basis function: 139
    Number of Cartesian functions: 166
    Spherical Harmonics?: true
    Max angular momentum: 4


         ------------------------------------------------------------
                                     CPHF                           
                                  Rob Parrish                       
         ------------------------------------------------------------

  ==> Geometry <==

    Molecular point group: c2v
    Full point group: C2v

    Geometry (in Angstrom), charge = 0, multiplicity = 1:

       Center              X                  Y                   Z               Mass       
    ------------   -----------------  -----------------  -----------------  -----------------
         O            0.000000000000     0.000000000000    -0.063000318018    15.994914619560
         H            0.000000000000    -0.751802862943     0.499930382576     1.007825032070
         H            0.000000000000     0.751802862943     0.499930382576     1.007825032070

  Nuclear repulsion =    9.366873138898287
  Reference energy  =  -76.057756434371754

  ==> Basis Set <==

  Basis Set: CC-PVTZ
    Blend: CC-PVTZ
    Number of shells: 22
    Number of basis function: 58
    Number of Cartesian functions: 65
    Spherical Harmonics?: true
    Max angular momentum: 3

  ==> CGRSolver (by Rob Parrish) <==

   Number of roots    =         9
   Preconditioning    =    JACOBI
   Convergence cutoff =     1E-06
   Maximum iterations =       100

  ==> CPHFRHamiltonian (by Rob Parrish) <== 

  ==> MemDFJK: Density-Fitted J/K Matrices <==

    J tasked:                   Yes
    K tasked:                   Yes
    wK tasked:                   No
    OpenMP threads:               8
    Memory (MB):                450
    Algorithm:                 Core
    Schwarz Cutoff:           1E-12
    Mask sparsity (%):       0.0000
    Fitting Condition:        1E-12

   => Auxiliary Basis Set <=

  Basis Set: (CC-PVTZ AUX)
    Blend: CC-PVTZ-JKFIT
    Number of shells: 45
    Number of basis function: 139
    Number of Cartesian functions: 166
    Spherical Harmonics?: true
    Max angular momentum: 4

  ==> CPHF Iterations <==

  => Iterations <=

             Iter  Converged  Remaining    Residual
  CGR           1          0          9   1.038E-01
  CGR           2          0          9   2.200E-02
  CGR           3          0          9   5.774E-03
  CGR           4          0          9   9.836E-04
  CGR           5          0          9   1.407E-04
  CGR           6          0          9   2.927E-05
  CGR           7          2          7   5.625E-06
  CGR           8          7          2   1.088E-06
  CGR           9          9          0   1.597E-07

    CGRSolver converged.


*** tstop() called on silver at Tue Sep 25 13:54:11 2018
Module time:
	user time   =     860.68 seconds =      14.34 minutes
	system time =       9.03 seconds =       0.15 minutes
	total time  =        113 seconds =       1.88 minutes
Total time:
	user time   =    1224.08 seconds =      20.40 minutes
	system time =      16.76 seconds =       0.28 minutes
	total time  =        178 seconds =       2.97 minutes

  //>>>>>>>>>>>>>>>>>>>>>>>>>>>>>>>>>>>//
  //    CBS Results: scf/cc-pv[dt]z    //
  //<<<<<<<<<<<<<<<<<<<<<<<<<<<<<<<<<<<//


   ==> Helgaker 2-point exponential SCF extrapolation for method: SCF <==

   LO-zeta (2) Energy:               -76.026862722461
   HI-zeta (3) Energy:               -76.057756434372
   Alpha (exponent) Value:             1.630000000000
   Beta (coefficient) Value:           1.000866180368

   @Extrapolated SCF/(D,T):         -76.065284371755


   ==> Components <==

  ---------------------------------------------------------------------------------------------------------
                          Method / Basis                      Rqd      Energy [Eh]   Variable
  ---------------------------------------------------------------------------------------------------------
                             scf / cc-pvdz                      *     -76.02686272   SCF TOTAL ENERGY
                             scf / cc-pvtz                      *     -76.05775643   SCF TOTAL ENERGY
  ---------------------------------------------------------------------------------------------------------

   ==> Stages <==

  ---------------------------------------------------------------------------------------------------------
      Stage               Method / Basis                       Wt      Energy [Eh]   Scheme
  ---------------------------------------------------------------------------------------------------------
        scf                  scf / cc-pv[dt]z                   1     -76.06528437   scf_xtpl_helgaker_2
  ---------------------------------------------------------------------------------------------------------

   ==> CBS <==

  ---------------------------------------------------------------------------------------------------------
      Stage               Method / Basis                               Energy [Eh]   Scheme
  ---------------------------------------------------------------------------------------------------------
        scf                  scf / cc-pv[dt]z                         -76.06528437   scf_xtpl_helgaker_2
      total                  CBS                                      -76.06528437   
  ---------------------------------------------------------------------------------------------------------
   => Loading Basis Set <=

    Name: DEF2-SVP
    Role: ORBITAL
    Keyword: BASIS
    atoms 1   entry O          line   130 file /home/kraus/psi4bin/cbs_dict/share/psi4/basis/def2-svp.gbs 
    atoms 2-3 entry H          line    15 file /home/kraus/psi4bin/cbs_dict/share/psi4/basis/def2-svp.gbs 

CURRENT HESSIAN  Irrep: 1 Size: 9 x 9

                 1                   2                   3                   4                   5

    1    -0.00000082421446    -0.00000000000000    -0.00000000000000     0.00000041209022     0.00000000000000
    2    -0.00000000000000     0.80941676397245     0.00000000002091     0.00000000000000    -0.40470838202950
    3    -0.00000000000000     0.00000000002091     0.52473604249242     0.00000000000000     0.23757205981746
    4     0.00000041209022     0.00000000000000     0.00000000000000    -0.00000027386642    -0.00000000000000
    5     0.00000000000000    -0.40470838202950     0.23757205981746    -0.00000000000000     0.43819678972030
    6     0.00000000000000     0.30303556098622    -0.26236802124400    -0.00000000000000    -0.27030381038891
    7     0.00000041209582     0.00000000000000     0.00000000000000    -0.00000013822968     0.00000000000000
    8     0.00000000000000    -0.40470838200368    -0.23757205980965    -0.00000000000000    -0.03348840770598
    9     0.00000000000000    -0.30303556100137    -0.26236802124729    -0.00000000000000     0.03273175058690

                 6                   7                   8                   9

    1     0.00000000000000     0.00000041209582     0.00000000000000     0.00000000000000
    2     0.30303556098622     0.00000000000000    -0.40470838200368    -0.30303556100137
    3    -0.26236802124400     0.00000000000000    -0.23757205980965    -0.26236802124729
    4    -0.00000000000000    -0.00000013822968    -0.00000000000000    -0.00000000000000
    5    -0.27030381038891     0.00000000000000    -0.03348840770598     0.03273175058690
    6     0.24463657064502    -0.00000000000000    -0.03273175058859     0.01773145059490
    7    -0.00000000000000    -0.00000027386242    -0.00000000000000    -0.00000000000000
    8    -0.03273175058859    -0.00000000000000     0.43819678973381     0.27030381039509
    9     0.01773145059490    -0.00000000000000     0.27030381039509     0.24463657065052





  ==> Harmonic Vibrational Analysis <==

  non-mass-weighted Hessian:       Symmetric? True   Hermitian? True   Lin Dep Dim?  0 (0)
  projection of translations (True) and rotations (True) removed 6 degrees of freedom (6)
  total projector:                 Symmetric? True   Hermitian? True   Lin Dep Dim?  6 (6)
  mass-weighted Hessian:           Symmetric? True   Hermitian? True   Lin Dep Dim?  0 (0)
  pre-proj  low-frequency mode:    0.0000i [cm^-1]
  pre-proj  low-frequency mode:    0.0000i [cm^-1]
  pre-proj  low-frequency mode:    0.0000i [cm^-1]
  pre-proj  low-frequency mode:    0.0000i [cm^-1]
  pre-proj  low-frequency mode:    0.0000i [cm^-1]
  pre-proj  low-frequency mode:    0.0014  [cm^-1]
  pre-proj  all modes:['3.4880i' '2.5233i' '1.8858i' '0.0092i' '0.0067i' '0.0014' '1747.7410'
 '4130.2255' '4230.5752']
  projected mass-weighted Hessian: Symmetric? True   Hermitian? True   Lin Dep Dim?  6 (6)
  post-proj low-frequency mode:    0.0000i [cm^-1] (TR)
  post-proj low-frequency mode:    0.0000i [cm^-1] (TR)
  post-proj low-frequency mode:    0.0000i [cm^-1] (TR)
  post-proj low-frequency mode:    0.0000i [cm^-1] (TR)
  post-proj low-frequency mode:    0.0000  [cm^-1] (TR)
  post-proj low-frequency mode:    0.0000  [cm^-1] (TR)
  post-proj  all modes:['0.0000i' '0.0000i' '0.0000i' '0.0000i' '0.0000' '0.0000' '1747.7410'
 '4130.2255' '4230.5752']

  Vibration                       7                   8                   9           
  Freq [cm^-1]                1747.7410           4130.2255           4230.5752       
  Irrep                           A1                  A1                  B2          
  Reduced mass [u]              1.0834              1.0445              1.0837        
  Force const [mDyne/A]         1.9498             10.4982             11.4276        
  Turning point v=0 [a0]        0.2522              0.1671              0.1621        
  RMS dev v=0 [a0 u^1/2]        0.1856              0.1207              0.1193        
  Char temp [K]               2514.6064           5942.4659           6086.8465       
  ----------------------------------------------------------------------------------
      1   O               -0.00 -0.00 -0.07   -0.00 -0.00  0.05   -0.00 -0.07 -0.00   
      2   H               -0.00  0.42  0.56   -0.00  0.59 -0.39    0.00  0.56 -0.42   
      3   H               -0.00 -0.42  0.56    0.00 -0.59 -0.39    0.00  0.56  0.42   

  ==> Thermochemistry Components <==

  Entropy, S
    Electronic S            0.000 [cal/(mol K)]        0.000 [J/(mol K)]       0.00000000 [mEh/K] (multiplicity = 1)
    Translational S        34.608 [cal/(mol K)]      144.801 [J/(mol K)]       0.05515186 [mEh/K] (mol. weight = 18.0106 [u], P = 101325.00 [Pa])
    Rotational S           10.317 [cal/(mol K)]       43.166 [J/(mol K)]       0.01644104 [mEh/K] (symmetry no. = 2)
    Vibrational S           0.004 [cal/(mol K)]        0.017 [J/(mol K)]       0.00000649 [mEh/K]
  Total S                  44.929 [cal/(mol K)]      187.984 [J/(mol K)]       0.07159939 [mEh/K]
  Correction S              0.000 [cal/(mol K)]        0.000 [J/(mol K)]       0.00000000 [mEh/K]

  Constant volume heat capacity, Cv
    Electronic Cv           0.000 [cal/(mol K)]        0.000 [J/(mol K)]       0.00000000 [mEh/K]
    Translational Cv        2.981 [cal/(mol K)]       12.472 [J/(mol K)]       0.00475022 [mEh/K]
    Rotational Cv           2.981 [cal/(mol K)]       12.472 [J/(mol K)]       0.00475022 [mEh/K]
    Vibrational Cv          0.031 [cal/(mol K)]        0.129 [J/(mol K)]       0.00004899 [mEh/K]
  Total Cv                  5.992 [cal/(mol K)]       25.072 [J/(mol K)]       0.00954943 [mEh/K]
  Correction Cv             0.000 [cal/(mol K)]        0.000 [J/(mol K)]       0.00000000 [mEh/K]

  Constant pressure heat capacity, Cp
    Electronic Cp           0.000 [cal/(mol K)]        0.000 [J/(mol K)]       0.00000000 [mEh/K]
    Translational Cp        4.968 [cal/(mol K)]       20.786 [J/(mol K)]       0.00791704 [mEh/K]
    Rotational Cp           2.981 [cal/(mol K)]       12.472 [J/(mol K)]       0.00475022 [mEh/K]
    Vibrational Cp          0.031 [cal/(mol K)]        0.129 [J/(mol K)]       0.00004899 [mEh/K]
  Total Cp                  7.980 [cal/(mol K)]       33.386 [J/(mol K)]       0.01271624 [mEh/K]
  Correction Cp             0.000 [cal/(mol K)]        0.000 [J/(mol K)]       0.00000000 [mEh/K]

  ==> Thermochemistry Energy Analysis <==

  Raw electronic energy, E0
  Total E0, Electronic energy at well bottom at 0 [K]                  -76.06528437 [Eh]

  Zero-point energy, ZPE_vib = Sum_i nu_i / 2
    Electronic ZPE          0.000 [kcal/mol]        0.000 [kJ/mol]       0.00000000 [Eh]
    Translational ZPE       0.000 [kcal/mol]        0.000 [kJ/mol]       0.00000000 [Eh]
    Rotational ZPE          0.000 [kcal/mol]        0.000 [kJ/mol]       0.00000000 [Eh]
    Vibrational ZPE        14.451 [kcal/mol]       60.463 [kJ/mol]       0.02302895 [Eh]        5054.269 [cm^-1]
  Correction ZPE           14.451 [kcal/mol]       60.463 [kJ/mol]       0.02302895 [Eh]        5054.269 [cm^-1]
  Total ZPE, Electronic energy at 0 [K]                                -76.04225542 [Eh]

  Thermal Energy, E (includes ZPE)
    Electronic E            0.000 [kcal/mol]        0.000 [kJ/mol]       0.00000000 [Eh]
    Translational E         0.889 [kcal/mol]        3.718 [kJ/mol]       0.00141628 [Eh]
    Rotational E            0.889 [kcal/mol]        3.718 [kJ/mol]       0.00141628 [Eh]
    Vibrational E          14.452 [kcal/mol]       60.467 [kJ/mol]       0.02303068 [Eh]
  Correction E             16.229 [kcal/mol]       67.904 [kJ/mol]       0.02586324 [Eh]
  Total E, Electronic energy at  298.15 [K]                            -76.03942114 [Eh]

  Enthalpy, H_trans = E_trans + k_B * T
    Electronic H            0.000 [kcal/mol]        0.000 [kJ/mol]       0.00000000 [Eh]
    Translational H         1.481 [kcal/mol]        6.197 [kJ/mol]       0.00236046 [Eh]
    Rotational H            0.889 [kcal/mol]        3.718 [kJ/mol]       0.00141628 [Eh]
    Vibrational H          14.452 [kcal/mol]       60.467 [kJ/mol]       0.02303068 [Eh]
  Correction H             16.822 [kcal/mol]       70.383 [kJ/mol]       0.02680742 [Eh]
  Total H, Enthalpy at  298.15 [K]                                     -76.03847695 [Eh]

  Gibbs free energy, G = H - T * S
    Electronic G            0.000 [kcal/mol]        0.000 [kJ/mol]       0.00000000 [Eh]
    Translational G        -8.837 [kcal/mol]      -36.975 [kJ/mol]      -0.01408306 [Eh]
    Rotational G           -2.187 [kcal/mol]       -9.151 [kJ/mol]      -0.00348562 [Eh]
    Vibrational G          14.451 [kcal/mol]       60.462 [kJ/mol]       0.02302874 [Eh]
  Correction G              3.426 [kcal/mol]       14.335 [kJ/mol]       0.00546006 [Eh]
  Total G, Free enthalpy at  298.15 [K]                                -76.05982431 [Eh]
	SCF/cc-pV[DT]Z Frequency 1........................................PASSED
	SCF/cc-pV[DT]Z Frequency 1........................................PASSED
	SCF/cc-pV[DT]Z Frequency 1........................................PASSED

    Psi4 stopped on: Tuesday, 25 September 2018 01:54PM
    Psi4 wall time for execution: 0:02:58.34

*** Psi4 exiting successfully. Buy a developer a beer!
