    -----------------------------------------------------------------------
          Psi4: An Open-Source Ab Initio Electronic Structure Package
                              Psi4 0.3.1100 Driver

                          Git: Rev {cbs_wrapper} e239cf6 dirty

    J. M. Turney, A. C. Simmonett, R. M. Parrish, E. G. Hohenstein,
    F. A. Evangelista, J. T. Fermann, B. J. Mintz, L. A. Burns, J. J. Wilke,
    M. L. Abrams, N. J. Russ, M. L. Leininger, C. L. Janssen, E. T. Seidl,
    W. D. Allen, H. F. Schaefer, R. A. King, E. F. Valeev, C. D. Sherrill,
    and T. D. Crawford, WIREs Comput. Mol. Sci. 2, 556-565 (2012)
    (doi: 10.1002/wcms.93)

                         Additional Contributions by
    A. E. DePrince, U. Bozkaya, A. Yu. Sokolov, D. G. A. Smith, R. Di Remigio,
    R. M. Richard, J. F. Gonthier, H. R. McAlexander, M. Saitow, and
    B. P. Pritchard
    -----------------------------------------------------------------------


    Psi4 started on: Fri Apr 22 15:13:52 2016

    Process ID:  13681
    PSI4DATADIR: /home/dsmith/Gits/psi4cbs/share
    Memory level set to 256.000 MB

  ==> Input File <==

--------------------------------------------------------------------------
#! Various gradients for a strained helium dimer and water molecule
import numpy as np
memory 500 mb

nucenergy_ref = 9.16819326039

molecule h2o {
  O
  H 1 0.96
  H 1 0.96 2 104.5
}

# Conventional to keep angular momentum low
set globals = {
    scf_type      df
}

h2o.update_geometry()
compare_values(nucenergy_ref, h2o.nuclear_repulsion_energy(), 9, "Nuclear repulsion energy") #TEST

# SCF TESTS
scf_dz, wfn_dz = freq('SCF/cc-pVDZ', return_wfn=True, der_type=1)
compare_values(wfn_dz.frequencies().get(0), 1809.2345729, 4, "SCF/cc-pVDZ Frequency 1")            #TEST
compare_values(wfn_dz.frequencies().get(1), 3923.1569958, 4, "SCF/cc-pVDZ Frequency 2")            #TEST
compare_values(wfn_dz.frequencies().get(2), 4020.1821381, 4, "SCF/cc-pVDZ Frequency 3")            #TEST

scf_tz, wfn_tz = freq('SCF/cc-pVTZ', return_wfn=True)
compare_values(wfn_tz.frequencies().get(0), 1813.8360744, 4, "SCF/cc-pVTZ Frequency 1")            #TEST
compare_values(wfn_tz.frequencies().get(1), 3867.8213943, 4, "SCF/cc-pVTZ Frequency 2")            #TEST
compare_values(wfn_tz.frequencies().get(2), 3952.4994821, 4, "SCF/cc-pVTZ Frequency 3")            #TEST


# Not yet implemented #TEST
#scf_dtz = gradient('SCF/cc-pV[23]Z')
#compare_matrices(ref_scf_dtz, scf_dtz, 6, "SCF/cc-pV[DT]Z Gradient")  #TEST
#
#scf_dtqz = gradient('SCF/cc-pV[DTQ]Z')
#compare_matrices(ref_scf_dtqz, scf_dtqz, 6, "SCF/cc-pV[DTQ]Z Gradient")  #TEST
#
## MP2 TESTS
#mp2_dtz = gradient('MP2/cc-pV[DT]Z')
#compare_matrices(ref_mp2_dtz, mp2_dtz, 6, "MP2/cc-pV[DT]Z Gradient")  #TEST


--------------------------------------------------------------------------

  Memory set to 500.000 MiB by Python script.
	Nuclear repulsion energy..........................................PASSED
hessian() will perform frequency computation by finite difference of analytic gradients.

-------------------------------------------------------------

  Using finite-differences of gradients to determine vibrational frequencies and 
  normal modes.  Resulting frequencies are only valid at stationary points.
	Generating geometries for use with 3-point formula.
	Displacement size will be 5.00e-03.
	Number of atoms is 3.
	Number of irreps is 4.
	Number of SALCS is 3.
	Index of salcs per irrep:
	 1 :  0  1 
	 2 : 
	 3 : 
	 4 :  2 
	Number of SALC's per irrep:
		 Irrep 1: 2
		 Irrep 2: 0
		 Irrep 3: 0
		 Irrep 4: 1
	Number of geometries (including reference) is 6.
	Number of displacements per irrep:
	  Irrep 1: 4
	  Irrep 2: 0
	  Irrep 3: 0
	  Irrep 4: 1

-------------------------------------------------------------

  //>>>>>>>>>>>>>>>>>>>>>>>>>>>>>>>>>>>//
  //    Loading displacement 1 of 6    //
  //<<<<<<<<<<<<<<<<<<<<<<<<<<<<<<<<<<<//
    There are an even number of electrons - assuming singlet.
    Specify the multiplicity in the molecule input block.


*** tstart() called on ds1.sherrill.chemistry.gatech.edu
*** at Fri Apr 22 15:13:53 2016


         ---------------------------------------------------------
                                   SCF
            by Justin Turney, Rob Parrish, and Andy Simmonett
                              RHF Reference
                        1 Threads,    500 MiB Core
         ---------------------------------------------------------

  ==> Geometry <==

    Molecular point group: c2v
    Full point group: C2v

    Geometry (in Angstrom), charge = 0, multiplicity = 1:

       Center              X                  Y                   Z               Mass       
    ------------   -----------------  -----------------  -----------------  -----------------
           O          0.000000000000     0.000000000000    -0.065996892278    15.994914619560
           H          0.000000000000    -0.759061990794     0.523709286607     1.007825032070
           H          0.000000000000     0.759061990794     0.523709286607     1.007825032070

  Running in c2v symmetry.

  Rotational constants: A =     27.08042  B =     14.51533  C =      9.45003 [cm^-1]
  Rotational constants: A = 811850.58131  B = 435158.59817  C = 283304.85990 [MHz]
  Nuclear repulsion =    9.157072652201338

  Charge       = 0
  Multiplicity = 1
  Electrons    = 10
  Nalpha       = 5
  Nbeta        = 5

  ==> Algorithm <==

  SCF Algorithm Type is DF.
  DIIS enabled.
  MOM disabled.
  Fractional occupation disabled.
  Guess Type is CORE.
  Energy threshold   = 1.00e-08
  Density threshold  = 1.00e-08
  Integral threshold = 0.00e+00

  ==> Primary Basis <==

  Basis Set: CC-PVDZ
    Number of shells: 12
    Number of basis function: 24
    Number of Cartesian functions: 25
    Spherical Harmonics?: true
    Max angular momentum: 2

  ==> Pre-Iterations <==

   -------------------------------------------------------
    Irrep   Nso     Nmo     Nalpha   Nbeta   Ndocc  Nsocc
   -------------------------------------------------------
     A1        11      11       0       0       0       0
     A2         2       2       0       0       0       0
     B1         4       4       0       0       0       0
     B2         7       7       0       0       0       0
   -------------------------------------------------------
    Total      24      24       5       5       5       0
   -------------------------------------------------------

  ==> Integral Setup <==

  ==> DFJK: Density-Fitted J/K Matrices <==

    J tasked:                  Yes
    K tasked:                  Yes
    wK tasked:                  No
    OpenMP threads:              1
    Integrals threads:           1
    Memory (MB):               357
    Algorithm:                Core
    Integral Cache:           NONE
    Schwarz Cutoff:          1E-12
    Fitting Condition:       1E-12

   => Auxiliary Basis Set <=

  Basis Set: 
    Number of shells: 42
    Number of basis function: 116
    Number of Cartesian functions: 131
    Spherical Harmonics?: true
    Max angular momentum: 3

  Minimum eigenvalue in the overlap matrix is 3.4436784146E-02.
  Using Symmetric Orthogonalization.
  SCF Guess: Core (One-Electron) Hamiltonian.

  ==> Iterations <==

                           Total Energy        Delta E     RMS |[F,P]|

    Occupation by irrep:
             A1    A2    B1    B2 
    DOCC [     3,    0,    0,    2 ]

   @DF-RHF iter   1:   -68.87793394116311   -6.88779e+01   2.24627e-01 
    Occupation by irrep:
             A1    A2    B1    B2 
    DOCC [     3,    0,    1,    1 ]

   @DF-RHF iter   2:   -69.94223938175513   -1.06431e+00   1.84069e-01 DIIS
   @DF-RHF iter   3:   -75.73936678537471   -5.79713e+00   6.29694e-02 DIIS
   @DF-RHF iter   4:   -76.00167606279712   -2.62309e-01   1.70623e-02 DIIS
   @DF-RHF iter   5:   -76.02627507509939   -2.45990e-02   1.53712e-03 DIIS
   @DF-RHF iter   6:   -76.02652048955318   -2.45414e-04   6.85279e-04 DIIS
   @DF-RHF iter   7:   -76.02656154791414   -4.10584e-05   9.59230e-05 DIIS
   @DF-RHF iter   8:   -76.02656317763645   -1.62972e-06   3.23044e-05 DIIS
   @DF-RHF iter   9:   -76.02656326787780   -9.02414e-08   1.86637e-06 DIIS
   @DF-RHF iter  10:   -76.02656326862926   -7.51456e-10   6.70583e-07 DIIS
   @DF-RHF iter  11:   -76.02656326867863   -4.93685e-11   1.20361e-07 DIIS
   @DF-RHF iter  12:   -76.02656326868004   -1.40687e-12   8.60174e-09 DIIS

  ==> Post-Iterations <==

    Orbital Energies (a.u.)
    -----------------------

    Doubly Occupied:                                                      

       1A1   -20.551241     2A1    -1.334848     1B2    -0.696804  
       3A1    -0.566244     1B1    -0.492930  

    Virtual:                                                              

       4A1     0.184865     2B2     0.255688     3B2     0.785834  
       5A1     0.851533     6A1     1.164082     2B1     1.200358  
       4B2     1.253844     7A1     1.443781     1A2     1.476308  
       3B1     1.673401     8A1     1.867961     5B2     1.932335  
       6B2     2.443168     9A1     2.481133     4B1     3.283863  
       2A2     3.334769    10A1     3.506857    11A1     3.860644  
       7B2     4.144448  

    Final Occupation by Irrep:
             A1    A2    B1    B2 
    DOCC [     3,    0,    1,    1 ]

  Energy converged.

  @DF-RHF Final Energy:   -76.02656326868004

   => Energetics <=

    Nuclear Repulsion Energy =              9.1570726522013377
    One-Electron Energy =                -123.0831371231089406
    Two-Electron Energy =                  37.8995012022275830
    DFT Exchange-Correlation Energy =       0.0000000000000000
    Empirical Dispersion Energy =           0.0000000000000000
    PCM Polarization Energy =               0.0000000000000000
    EFP Energy =                            0.0000000000000000
    Total Energy =                        -76.0265632686800217


  Saving occupied orbitals to File 180.

*** tstop() called on ds1.sherrill.chemistry.gatech.edu at Fri Apr 22 15:13:53 2016
Module time:
	user time   =       0.10 seconds =       0.00 minutes
	system time =       0.01 seconds =       0.00 minutes
	total time  =          0 seconds =       0.00 minutes
Total time:
	user time   =       0.10 seconds =       0.00 minutes
	system time =       0.01 seconds =       0.00 minutes
	total time  =          0 seconds =       0.00 minutes


Properties will be evaluated at   0.000000,   0.000000,   0.000000 Bohr

Properties computed using the SCF density matrix

  Nuclear Dipole Moment: (a.u.)
     X:     0.0000      Y:     0.0000      Z:     0.9816

  Electronic Dipole Moment: (a.u.)
     X:     0.0000      Y:     0.0000      Z:    -0.1698

  Dipole Moment: (a.u.)
     X:     0.0000      Y:     0.0000      Z:     0.8119     Total:     0.8119

  Dipole Moment: (Debye)
     X:     0.0000      Y:     0.0000      Z:     2.0635     Total:     2.0635


*** tstart() called on ds1.sherrill.chemistry.gatech.edu
*** at Fri Apr 22 15:13:53 2016


         ------------------------------------------------------------
                                   SCF GRAD                          
                          Rob Parrish, Justin Turney,                
                       Andy Simmonett, and Alex Sokolov              
         ------------------------------------------------------------

  ==> Geometry <==

    Molecular point group: c2v
    Full point group: C2v

    Geometry (in Angstrom), charge = 0, multiplicity = 1:

       Center              X                  Y                   Z               Mass       
    ------------   -----------------  -----------------  -----------------  -----------------
           O          0.000000000000     0.000000000000    -0.065996892278    15.994914619560
           H          0.000000000000    -0.759061990794     0.523709286607     1.007825032070
           H          0.000000000000     0.759061990794     0.523709286607     1.007825032070

  Nuclear repulsion =    9.157072652201338

  ==> Basis Set <==

  Basis Set: CC-PVDZ
    Number of shells: 12
    Number of basis function: 24
    Number of Cartesian functions: 25
    Spherical Harmonics?: true
    Max angular momentum: 2

  ==> DFJKGrad: Density-Fitted SCF Gradients <==

    Gradient:                    1
    J tasked:                  Yes
    K tasked:                  Yes
    wK tasked:                  No
    OpenMP threads:              1
    Integrals threads:           1
    Memory (MB):               357
    Schwarz Cutoff:          0E+00
    Fitting Condition:       1E-12

   => Auxiliary Basis Set <=

  Basis Set: 
    Number of shells: 42
    Number of basis function: 116
    Number of Cartesian functions: 131
    Spherical Harmonics?: true
    Max angular momentum: 3


  -Total Gradient:
     Atom            X                  Y                   Z
    ------   -----------------  -----------------  -----------------
       1       -0.000000000000     0.000000000000    -0.019533911038
       2        0.000000000000    -0.013209291880     0.009766955519
       3       -0.000000000000     0.013209291880     0.009766955519


*** tstop() called on ds1.sherrill.chemistry.gatech.edu at Fri Apr 22 15:13:53 2016
Module time:
	user time   =       0.11 seconds =       0.00 minutes
	system time =       0.01 seconds =       0.00 minutes
	total time  =          0 seconds =       0.00 minutes
Total time:
	user time   =       0.22 seconds =       0.00 minutes
	system time =       0.02 seconds =       0.00 minutes
	total time  =          0 seconds =       0.00 minutes

  //>>>>>>>>>>>>>>>>>>>>>>>>>>>>>>>>>>>//
  //    Loading displacement 2 of 6    //
  //<<<<<<<<<<<<<<<<<<<<<<<<<<<<<<<<<<<//

*** tstart() called on ds1.sherrill.chemistry.gatech.edu
*** at Fri Apr 22 15:13:53 2016


         ---------------------------------------------------------
                                   SCF
            by Justin Turney, Rob Parrish, and Andy Simmonett
                              RHF Reference
                        1 Threads,    500 MiB Core
         ---------------------------------------------------------

  ==> Geometry <==

    Molecular point group: c2v
    Full point group: C2v

    Geometry (in Angstrom), charge = 0, multiplicity = 1:

       Center              X                  Y                   Z               Mass       
    ------------   -----------------  -----------------  -----------------  -----------------
           O          0.000000000000     0.000000000000    -0.065554248798    15.994914619560
           H          0.000000000000    -0.759061990794     0.520196749984     1.007825032070
           H          0.000000000000     0.759061990794     0.520196749984     1.007825032070

  Running in c2v symmetry.

  Rotational constants: A =     27.44737  B =     14.51533  C =      9.49433 [cm^-1]
  Rotational constants: A = 822851.35188  B = 435158.59817  C = 284632.75729 [MHz]
  Nuclear repulsion =    9.179318525428766

  Charge       = 0
  Multiplicity = 1
  Electrons    = 10
  Nalpha       = 5
  Nbeta        = 5

  ==> Algorithm <==

  SCF Algorithm Type is DF.
  DIIS enabled.
  MOM disabled.
  Fractional occupation disabled.
  Guess Type is CORE.
  Energy threshold   = 1.00e-08
  Density threshold  = 1.00e-08
  Integral threshold = 0.00e+00

  ==> Primary Basis <==

  Basis Set: CC-PVDZ
    Number of shells: 12
    Number of basis function: 24
    Number of Cartesian functions: 25
    Spherical Harmonics?: true
    Max angular momentum: 2

  ==> Pre-Iterations <==

   -------------------------------------------------------
    Irrep   Nso     Nmo     Nalpha   Nbeta   Ndocc  Nsocc
   -------------------------------------------------------
     A1        11      11       0       0       0       0
     A2         2       2       0       0       0       0
     B1         4       4       0       0       0       0
     B2         7       7       0       0       0       0
   -------------------------------------------------------
    Total      24      24       5       5       5       0
   -------------------------------------------------------

  ==> Integral Setup <==

  ==> DFJK: Density-Fitted J/K Matrices <==

    J tasked:                  Yes
    K tasked:                  Yes
    wK tasked:                  No
    OpenMP threads:              1
    Integrals threads:           1
    Memory (MB):               357
    Algorithm:                Core
    Integral Cache:           NONE
    Schwarz Cutoff:          1E-12
    Fitting Condition:       1E-12

   => Auxiliary Basis Set <=

  Basis Set: 
    Number of shells: 42
    Number of basis function: 116
    Number of Cartesian functions: 131
    Spherical Harmonics?: true
    Max angular momentum: 3

  Minimum eigenvalue in the overlap matrix is 3.4317700075E-02.
  Using Symmetric Orthogonalization.
  SCF Guess: Core (One-Electron) Hamiltonian.

  ==> Iterations <==

                           Total Energy        Delta E     RMS |[F,P]|

    Occupation by irrep:
             A1    A2    B1    B2 
    DOCC [     3,    0,    0,    2 ]

   @DF-RHF iter   1:   -68.87565301173430   -6.88757e+01   2.25103e-01 
    Occupation by irrep:
             A1    A2    B1    B2 
    DOCC [     3,    0,    1,    1 ]

   @DF-RHF iter   2:   -69.95252611065132   -1.07687e+00   1.83897e-01 DIIS
   @DF-RHF iter   3:   -75.73755287544162   -5.78503e+00   6.32225e-02 DIIS
   @DF-RHF iter   4:   -76.00163925003542   -2.64086e-01   1.71456e-02 DIIS
   @DF-RHF iter   5:   -76.02640929437733   -2.47700e-02   1.54203e-03 DIIS
   @DF-RHF iter   6:   -76.02665292223169   -2.43628e-04   6.80936e-04 DIIS
   @DF-RHF iter   7:   -76.02669341559589   -4.04934e-05   9.55959e-05 DIIS
   @DF-RHF iter   8:   -76.02669502864710   -1.61305e-06   3.20646e-05 DIIS
   @DF-RHF iter   9:   -76.02669511789659   -8.92495e-08   1.86202e-06 DIIS
   @DF-RHF iter  10:   -76.02669511864710   -7.50504e-10   6.67374e-07 DIIS
   @DF-RHF iter  11:   -76.02669511869588   -4.87859e-11   1.19513e-07 DIIS
   @DF-RHF iter  12:   -76.02669511869728   -1.39266e-12   8.42865e-09 DIIS

  ==> Post-Iterations <==

    Orbital Energies (a.u.)
    -----------------------

    Doubly Occupied:                                                      

       1A1   -20.550608     2A1    -1.335773     1B2    -0.698803  
       3A1    -0.565927     1B1    -0.492966  

    Virtual:                                                              

       4A1     0.185349     2B2     0.256002     3B2     0.788846  
       5A1     0.852111     6A1     1.163631     2B1     1.200488  
       4B2     1.253305     7A1     1.446799     1A2     1.475713  
       3B1     1.675928     8A1     1.868266     5B2     1.932818  
       6B2     2.449906     9A1     2.486500     4B1     3.284041  
       2A2     3.338574    10A1     3.508366    11A1     3.866243  
       7B2     4.145052  

    Final Occupation by Irrep:
             A1    A2    B1    B2 
    DOCC [     3,    0,    1,    1 ]

  Energy converged.

  @DF-RHF Final Energy:   -76.02669511869728

   => Energetics <=

    Nuclear Repulsion Energy =              9.1793185254287657
    One-Electron Energy =                -123.1238720795148254
    Two-Electron Energy =                  37.9178584353887800
    DFT Exchange-Correlation Energy =       0.0000000000000000
    Empirical Dispersion Energy =           0.0000000000000000
    PCM Polarization Energy =               0.0000000000000000
    EFP Energy =                            0.0000000000000000
    Total Energy =                        -76.0266951186972761


  Saving occupied orbitals to File 180.

*** tstop() called on ds1.sherrill.chemistry.gatech.edu at Fri Apr 22 15:13:53 2016
Module time:
	user time   =       0.07 seconds =       0.00 minutes
	system time =      -0.00 seconds =      -0.00 minutes
	total time  =          0 seconds =       0.00 minutes
Total time:
	user time   =       0.32 seconds =       0.01 minutes
	system time =       0.02 seconds =       0.00 minutes
	total time  =          0 seconds =       0.00 minutes


Properties will be evaluated at   0.000000,   0.000000,   0.000000 Bohr

Properties computed using the SCF density matrix

  Nuclear Dipole Moment: (a.u.)
     X:     0.0000      Y:     0.0000      Z:     0.9750

  Electronic Dipole Moment: (a.u.)
     X:     0.0000      Y:     0.0000      Z:    -0.1663

  Dipole Moment: (a.u.)
     X:     0.0000      Y:     0.0000      Z:     0.8087     Total:     0.8087

  Dipole Moment: (Debye)
     X:     0.0000      Y:     0.0000      Z:     2.0555     Total:     2.0555


*** tstart() called on ds1.sherrill.chemistry.gatech.edu
*** at Fri Apr 22 15:13:53 2016


         ------------------------------------------------------------
                                   SCF GRAD                          
                          Rob Parrish, Justin Turney,                
                       Andy Simmonett, and Alex Sokolov              
         ------------------------------------------------------------

  ==> Geometry <==

    Molecular point group: c2v
    Full point group: C2v

    Geometry (in Angstrom), charge = 0, multiplicity = 1:

       Center              X                  Y                   Z               Mass       
    ------------   -----------------  -----------------  -----------------  -----------------
           O          0.000000000000     0.000000000000    -0.065554248798    15.994914619560
           H          0.000000000000    -0.759061990794     0.520196749984     1.007825032070
           H          0.000000000000     0.759061990794     0.520196749984     1.007825032070

  Nuclear repulsion =    9.179318525428766

  ==> Basis Set <==

  Basis Set: CC-PVDZ
    Number of shells: 12
    Number of basis function: 24
    Number of Cartesian functions: 25
    Spherical Harmonics?: true
    Max angular momentum: 2

  ==> DFJKGrad: Density-Fitted SCF Gradients <==

    Gradient:                    1
    J tasked:                  Yes
    K tasked:                  Yes
    wK tasked:                  No
    OpenMP threads:              1
    Integrals threads:           1
    Memory (MB):               357
    Schwarz Cutoff:          0E+00
    Fitting Condition:       1E-12

   => Auxiliary Basis Set <=

  Basis Set: 
    Number of shells: 42
    Number of basis function: 116
    Number of Cartesian functions: 131
    Spherical Harmonics?: true
    Max angular momentum: 3


  -Total Gradient:
     Atom            X                  Y                   Z
    ------   -----------------  -----------------  -----------------
       1        0.000000000000     0.000000000000    -0.015743594271
       2        0.000000000000    -0.011659061932     0.007871797136
       3       -0.000000000000     0.011659061932     0.007871797136


*** tstop() called on ds1.sherrill.chemistry.gatech.edu at Fri Apr 22 15:13:53 2016
Module time:
	user time   =       0.11 seconds =       0.00 minutes
	system time =       0.01 seconds =       0.00 minutes
	total time  =          0 seconds =       0.00 minutes
Total time:
	user time   =       0.43 seconds =       0.01 minutes
	system time =       0.03 seconds =       0.00 minutes
	total time  =          0 seconds =       0.00 minutes

  //>>>>>>>>>>>>>>>>>>>>>>>>>>>>>>>>>>>//
  //    Loading displacement 3 of 6    //
  //<<<<<<<<<<<<<<<<<<<<<<<<<<<<<<<<<<<//

*** tstart() called on ds1.sherrill.chemistry.gatech.edu
*** at Fri Apr 22 15:13:53 2016


         ---------------------------------------------------------
                                   SCF
            by Justin Turney, Rob Parrish, and Andy Simmonett
                              RHF Reference
                        1 Threads,    500 MiB Core
         ---------------------------------------------------------

  ==> Geometry <==

    Molecular point group: c2v
    Full point group: C2v

    Geometry (in Angstrom), charge = 0, multiplicity = 1:

       Center              X                  Y                   Z               Mass       
    ------------   -----------------  -----------------  -----------------  -----------------
           O          0.000000000000     0.000000000000    -0.065775570538    15.994914619560
           H          0.000000000000    -0.760925637419     0.521953018295     1.007825032070
           H          0.000000000000     0.760925637419     0.521953018295     1.007825032070

  Running in c2v symmetry.

  Rotational constants: A =     27.26297  B =     14.44431  C =      9.44187 [cm^-1]
  Rotational constants: A = 817323.20514  B = 433029.64182  C = 283060.23826 [MHz]
  Nuclear repulsion =    9.153816284505739

  Charge       = 0
  Multiplicity = 1
  Electrons    = 10
  Nalpha       = 5
  Nbeta        = 5

  ==> Algorithm <==

  SCF Algorithm Type is DF.
  DIIS enabled.
  MOM disabled.
  Fractional occupation disabled.
  Guess Type is CORE.
  Energy threshold   = 1.00e-08
  Density threshold  = 1.00e-08
  Integral threshold = 0.00e+00

  ==> Primary Basis <==

  Basis Set: CC-PVDZ
    Number of shells: 12
    Number of basis function: 24
    Number of Cartesian functions: 25
    Spherical Harmonics?: true
    Max angular momentum: 2

  ==> Pre-Iterations <==

   -------------------------------------------------------
    Irrep   Nso     Nmo     Nalpha   Nbeta   Ndocc  Nsocc
   -------------------------------------------------------
     A1        11      11       0       0       0       0
     A2         2       2       0       0       0       0
     B1         4       4       0       0       0       0
     B2         7       7       0       0       0       0
   -------------------------------------------------------
    Total      24      24       5       5       5       0
   -------------------------------------------------------

  ==> Integral Setup <==

  ==> DFJK: Density-Fitted J/K Matrices <==

    J tasked:                  Yes
    K tasked:                  Yes
    wK tasked:                  No
    OpenMP threads:              1
    Integrals threads:           1
    Memory (MB):               357
    Algorithm:                Core
    Integral Cache:           NONE
    Schwarz Cutoff:          1E-12
    Fitting Condition:       1E-12

   => Auxiliary Basis Set <=

  Basis Set: 
    Number of shells: 42
    Number of basis function: 116
    Number of Cartesian functions: 131
    Spherical Harmonics?: true
    Max angular momentum: 3

  Minimum eigenvalue in the overlap matrix is 3.4503039484E-02.
  Using Symmetric Orthogonalization.
  SCF Guess: Core (One-Electron) Hamiltonian.

  ==> Iterations <==

                           Total Energy        Delta E     RMS |[F,P]|

    Occupation by irrep:
             A1    A2    B1    B2 
    DOCC [     3,    0,    0,    2 ]

   @DF-RHF iter   1:   -68.87909384164544   -6.88791e+01   2.24558e-01 
    Occupation by irrep:
             A1    A2    B1    B2 
    DOCC [     3,    0,    1,    1 ]

   @DF-RHF iter   2:   -69.94747340385936   -1.06838e+00   1.83987e-01 DIIS
   @DF-RHF iter   3:   -75.73964221956562   -5.79217e+00   6.29363e-02 DIIS
   @DF-RHF iter   4:   -76.00167319371418   -2.62031e-01   1.70567e-02 DIIS
   @DF-RHF iter   5:   -76.02625201535136   -2.45788e-02   1.53779e-03 DIIS
   @DF-RHF iter   6:   -76.02649709514208   -2.45080e-04   6.84846e-04 DIIS
   @DF-RHF iter   7:   -76.02653812736516   -4.10322e-05   9.59189e-05 DIIS
   @DF-RHF iter   8:   -76.02653976004700   -1.63268e-06   3.22802e-05 DIIS
   @DF-RHF iter   9:   -76.02653985032080   -9.02738e-08   1.88250e-06 DIIS
   @DF-RHF iter  10:   -76.02653985109005   -7.69248e-10   6.76635e-07 DIIS
   @DF-RHF iter  11:   -76.02653985114046   -5.04059e-11   1.21740e-07 DIIS
   @DF-RHF iter  12:   -76.02653985114181   -1.35003e-12   8.59132e-09 DIIS

  ==> Post-Iterations <==

    Orbital Energies (a.u.)
    -----------------------

    Doubly Occupied:                                                      

       1A1   -20.551108     2A1    -1.334459     1B2    -0.697272  
       3A1    -0.565535     1B1    -0.492793  

    Virtual:                                                              

       4A1     0.184884     2B2     0.255612     3B2     0.786753  
       5A1     0.849825     6A1     1.163856     2B1     1.200440  
       4B2     1.253521     7A1     1.446771     1A2     1.475189  
       3B1     1.675136     8A1     1.868732     5B2     1.930166  
       6B2     2.443433     9A1     2.479885     4B1     3.281943  
       2A2     3.335741    10A1     3.505045    11A1     3.862916  
       7B2     4.142293  

    Final Occupation by Irrep:
             A1    A2    B1    B2 
    DOCC [     3,    0,    1,    1 ]

  Energy converged.

  @DF-RHF Final Energy:   -76.02653985114181

   => Energetics <=

    Nuclear Repulsion Energy =              9.1538162845057389
    One-Electron Energy =                -123.0783781680708415
    Two-Electron Energy =                  37.8980220324232846
    DFT Exchange-Correlation Energy =       0.0000000000000000
    Empirical Dispersion Energy =           0.0000000000000000
    PCM Polarization Energy =               0.0000000000000000
    EFP Energy =                            0.0000000000000000
    Total Energy =                        -76.0265398511418198


  Saving occupied orbitals to File 180.

*** tstop() called on ds1.sherrill.chemistry.gatech.edu at Fri Apr 22 15:13:53 2016
Module time:
	user time   =       0.07 seconds =       0.00 minutes
	system time =       0.00 seconds =       0.00 minutes
	total time  =          0 seconds =       0.00 minutes
Total time:
	user time   =       0.53 seconds =       0.01 minutes
	system time =       0.03 seconds =       0.00 minutes
	total time  =          0 seconds =       0.00 minutes


Properties will be evaluated at   0.000000,   0.000000,   0.000000 Bohr

Properties computed using the SCF density matrix

  Nuclear Dipole Moment: (a.u.)
     X:     0.0000      Y:     0.0000      Z:     0.9783

  Electronic Dipole Moment: (a.u.)
     X:     0.0000      Y:     0.0000      Z:    -0.1683

  Dipole Moment: (a.u.)
     X:     0.0000      Y:     0.0000      Z:     0.8100     Total:     0.8100

  Dipole Moment: (Debye)
     X:     0.0000      Y:     0.0000      Z:     2.0589     Total:     2.0589


*** tstart() called on ds1.sherrill.chemistry.gatech.edu
*** at Fri Apr 22 15:13:53 2016


         ------------------------------------------------------------
                                   SCF GRAD                          
                          Rob Parrish, Justin Turney,                
                       Andy Simmonett, and Alex Sokolov              
         ------------------------------------------------------------

  ==> Geometry <==

    Molecular point group: c2v
    Full point group: C2v

    Geometry (in Angstrom), charge = 0, multiplicity = 1:

       Center              X                  Y                   Z               Mass       
    ------------   -----------------  -----------------  -----------------  -----------------
           O          0.000000000000     0.000000000000    -0.065775570538    15.994914619560
           H          0.000000000000    -0.760925637419     0.521953018295     1.007825032070
           H          0.000000000000     0.760925637419     0.521953018295     1.007825032070

  Nuclear repulsion =    9.153816284505739

  ==> Basis Set <==

  Basis Set: CC-PVDZ
    Number of shells: 12
    Number of basis function: 24
    Number of Cartesian functions: 25
    Spherical Harmonics?: true
    Max angular momentum: 2

  ==> DFJKGrad: Density-Fitted SCF Gradients <==

    Gradient:                    1
    J tasked:                  Yes
    K tasked:                  Yes
    wK tasked:                  No
    OpenMP threads:              1
    Integrals threads:           1
    Memory (MB):               357
    Schwarz Cutoff:          0E+00
    Fitting Condition:       1E-12

   => Auxiliary Basis Set <=

  Basis Set: 
    Number of shells: 42
    Number of basis function: 116
    Number of Cartesian functions: 131
    Spherical Harmonics?: true
    Max angular momentum: 3


  -Total Gradient:
     Atom            X                  Y                   Z
    ------   -----------------  -----------------  -----------------
       1       -0.000000000000     0.000000000000    -0.019091968858
       2        0.000000000000    -0.013933554721     0.009545984429
       3       -0.000000000000     0.013933554721     0.009545984429


*** tstop() called on ds1.sherrill.chemistry.gatech.edu at Fri Apr 22 15:13:53 2016
Module time:
	user time   =       0.11 seconds =       0.00 minutes
	system time =       0.01 seconds =       0.00 minutes
	total time  =          0 seconds =       0.00 minutes
Total time:
	user time   =       0.64 seconds =       0.01 minutes
	system time =       0.04 seconds =       0.00 minutes
	total time  =          0 seconds =       0.00 minutes

  //>>>>>>>>>>>>>>>>>>>>>>>>>>>>>>>>>>>//
  //    Loading displacement 4 of 6    //
  //<<<<<<<<<<<<<<<<<<<<<<<<<<<<<<<<<<<//

*** tstart() called on ds1.sherrill.chemistry.gatech.edu
*** at Fri Apr 22 15:13:53 2016


         ---------------------------------------------------------
                                   SCF
            by Justin Turney, Rob Parrish, and Andy Simmonett
                              RHF Reference
                        1 Threads,    500 MiB Core
         ---------------------------------------------------------

  ==> Geometry <==

    Molecular point group: c2v
    Full point group: C2v

    Geometry (in Angstrom), charge = 0, multiplicity = 1:

       Center              X                  Y                   Z               Mass       
    ------------   -----------------  -----------------  -----------------  -----------------
           O          0.000000000000     0.000000000000    -0.065775570538    15.994914619560
           H          0.000000000000    -0.757198344170     0.521953018295     1.007825032070
           H          0.000000000000     0.757198344170     0.521953018295     1.007825032070

  Running in c2v symmetry.

  Rotational constants: A =     27.26297  B =     14.58687  C =      9.50258 [cm^-1]
  Rotational constants: A = 817323.20514  B = 437303.29346  C = 284880.10562 [MHz]
  Nuclear repulsion =    9.182603540794874

  Charge       = 0
  Multiplicity = 1
  Electrons    = 10
  Nalpha       = 5
  Nbeta        = 5

  ==> Algorithm <==

  SCF Algorithm Type is DF.
  DIIS enabled.
  MOM disabled.
  Fractional occupation disabled.
  Guess Type is CORE.
  Energy threshold   = 1.00e-08
  Density threshold  = 1.00e-08
  Integral threshold = 0.00e+00

  ==> Primary Basis <==

  Basis Set: CC-PVDZ
    Number of shells: 12
    Number of basis function: 24
    Number of Cartesian functions: 25
    Spherical Harmonics?: true
    Max angular momentum: 2

  ==> Pre-Iterations <==

   -------------------------------------------------------
    Irrep   Nso     Nmo     Nalpha   Nbeta   Ndocc  Nsocc
   -------------------------------------------------------
     A1        11      11       0       0       0       0
     A2         2       2       0       0       0       0
     B1         4       4       0       0       0       0
     B2         7       7       0       0       0       0
   -------------------------------------------------------
    Total      24      24       5       5       5       0
   -------------------------------------------------------

  ==> Integral Setup <==

  ==> DFJK: Density-Fitted J/K Matrices <==

    J tasked:                  Yes
    K tasked:                  Yes
    wK tasked:                  No
    OpenMP threads:              1
    Integrals threads:           1
    Memory (MB):               357
    Algorithm:                Core
    Integral Cache:           NONE
    Schwarz Cutoff:          1E-12
    Fitting Condition:       1E-12

   => Auxiliary Basis Set <=

  Basis Set: 
    Number of shells: 42
    Number of basis function: 116
    Number of Cartesian functions: 131
    Spherical Harmonics?: true
    Max angular momentum: 3

  Minimum eigenvalue in the overlap matrix is 3.4252102229E-02.
  Using Symmetric Orthogonalization.
  SCF Guess: Core (One-Electron) Hamiltonian.

  ==> Iterations <==

                           Total Energy        Delta E     RMS |[F,P]|

    Occupation by irrep:
             A1    A2    B1    B2 
    DOCC [     3,    0,    0,    2 ]

   @DF-RHF iter   1:   -68.87447991137634   -6.88745e+01   2.25172e-01 
    Occupation by irrep:
             A1    A2    B1    B2 
    DOCC [     3,    0,    1,    1 ]

   @DF-RHF iter   2:   -69.94730247563749   -1.07282e+00   1.83979e-01 DIIS
   @DF-RHF iter   3:   -75.73727100740905   -5.78997e+00   6.32558e-02 DIIS
   @DF-RHF iter   4:   -76.00163816781917   -2.64367e-01   1.71514e-02 DIIS
   @DF-RHF iter   5:   -76.02642886808651   -2.47907e-02   1.54132e-03 DIIS
   @DF-RHF iter   6:   -76.02667282304381   -2.43955e-04   6.81366e-04 DIIS
   @DF-RHF iter   7:   -76.02671334269020   -4.05196e-05   9.56019e-05 DIIS
   @DF-RHF iter   8:   -76.02671495285887   -1.61017e-06   3.20886e-05 DIIS
   @DF-RHF iter   9:   -76.02671504207458   -8.92157e-08   1.84609e-06 DIIS
   @DF-RHF iter  10:   -76.02671504280775   -7.33166e-10   6.61394e-07 DIIS
   @DF-RHF iter  11:   -76.02671504285544   -4.76916e-11   1.18145e-07 DIIS
   @DF-RHF iter  12:   -76.02671504285686   -1.42109e-12   8.43824e-09 DIIS

  ==> Post-Iterations <==

    Orbital Energies (a.u.)
    -----------------------

    Doubly Occupied:                                                      

       1A1   -20.550740     2A1    -1.336166     1B2    -0.698332  
       3A1    -0.566639     1B1    -0.493103  

    Virtual:                                                              

       4A1     0.185329     2B2     0.256080     3B2     0.787921  
       5A1     0.853833     6A1     1.163858     2B1     1.200406  
       4B2     1.253627     7A1     1.443806     1A2     1.476840  
       3B1     1.674180     8A1     1.867491     5B2     1.935005  
       6B2     2.449628     9A1     2.487765     4B1     3.285980  
       2A2     3.337595    10A1     3.510206    11A1     3.863931  
       7B2     4.147230  

    Final Occupation by Irrep:
             A1    A2    B1    B2 
    DOCC [     3,    0,    1,    1 ]

  Energy converged.

  @DF-RHF Final Energy:   -76.02671504285686

   => Energetics <=

    Nuclear Repulsion Energy =              9.1826035407948741
    One-Electron Energy =                -123.1286767047527064
    Two-Electron Energy =                  37.9193581211009700
    DFT Exchange-Correlation Energy =       0.0000000000000000
    Empirical Dispersion Energy =           0.0000000000000000
    PCM Polarization Energy =               0.0000000000000000
    EFP Energy =                            0.0000000000000000
    Total Energy =                        -76.0267150428568641


  Saving occupied orbitals to File 180.

*** tstop() called on ds1.sherrill.chemistry.gatech.edu at Fri Apr 22 15:13:53 2016
Module time:
	user time   =       0.07 seconds =       0.00 minutes
	system time =       0.00 seconds =       0.00 minutes
	total time  =          0 seconds =       0.00 minutes
Total time:
	user time   =       0.74 seconds =       0.01 minutes
	system time =       0.04 seconds =       0.00 minutes
	total time  =          0 seconds =       0.00 minutes


Properties will be evaluated at   0.000000,   0.000000,   0.000000 Bohr

Properties computed using the SCF density matrix

  Nuclear Dipole Moment: (a.u.)
     X:     0.0000      Y:     0.0000      Z:     0.9783

  Electronic Dipole Moment: (a.u.)
     X:     0.0000      Y:     0.0000      Z:    -0.1678

  Dipole Moment: (a.u.)
     X:     0.0000      Y:     0.0000      Z:     0.8105     Total:     0.8105

  Dipole Moment: (Debye)
     X:     0.0000      Y:     0.0000      Z:     2.0602     Total:     2.0602


*** tstart() called on ds1.sherrill.chemistry.gatech.edu
*** at Fri Apr 22 15:13:53 2016


         ------------------------------------------------------------
                                   SCF GRAD                          
                          Rob Parrish, Justin Turney,                
                       Andy Simmonett, and Alex Sokolov              
         ------------------------------------------------------------

  ==> Geometry <==

    Molecular point group: c2v
    Full point group: C2v

    Geometry (in Angstrom), charge = 0, multiplicity = 1:

       Center              X                  Y                   Z               Mass       
    ------------   -----------------  -----------------  -----------------  -----------------
           O          0.000000000000     0.000000000000    -0.065775570538    15.994914619560
           H          0.000000000000    -0.757198344170     0.521953018295     1.007825032070
           H          0.000000000000     0.757198344170     0.521953018295     1.007825032070

  Nuclear repulsion =    9.182603540794874

  ==> Basis Set <==

  Basis Set: CC-PVDZ
    Number of shells: 12
    Number of basis function: 24
    Number of Cartesian functions: 25
    Spherical Harmonics?: true
    Max angular momentum: 2

  ==> DFJKGrad: Density-Fitted SCF Gradients <==

    Gradient:                    1
    J tasked:                  Yes
    K tasked:                  Yes
    wK tasked:                  No
    OpenMP threads:              1
    Integrals threads:           1
    Memory (MB):               357
    Schwarz Cutoff:          0E+00
    Fitting Condition:       1E-12

   => Auxiliary Basis Set <=

  Basis Set: 
    Number of shells: 42
    Number of basis function: 116
    Number of Cartesian functions: 131
    Spherical Harmonics?: true
    Max angular momentum: 3


  -Total Gradient:
     Atom            X                  Y                   Z
    ------   -----------------  -----------------  -----------------
       1        0.000000000000     0.000000000000    -0.016170103929
       2        0.000000000000    -0.010930573666     0.008085051964
       3       -0.000000000000     0.010930573666     0.008085051964


*** tstop() called on ds1.sherrill.chemistry.gatech.edu at Fri Apr 22 15:13:53 2016
Module time:
	user time   =       0.11 seconds =       0.00 minutes
	system time =       0.01 seconds =       0.00 minutes
	total time  =          0 seconds =       0.00 minutes
Total time:
	user time   =       0.85 seconds =       0.01 minutes
	system time =       0.05 seconds =       0.00 minutes
	total time  =          0 seconds =       0.00 minutes

  //>>>>>>>>>>>>>>>>>>>>>>>>>>>>>>>>>>>//
  //    Loading displacement 5 of 6    //
  //<<<<<<<<<<<<<<<<<<<<<<<<<<<<<<<<<<<//

*** tstart() called on ds1.sherrill.chemistry.gatech.edu
*** at Fri Apr 22 15:13:53 2016


         ---------------------------------------------------------
                                   SCF
            by Justin Turney, Rob Parrish, and Andy Simmonett
                              RHF Reference
                        1 Threads,    500 MiB Core
         ---------------------------------------------------------

  ==> Geometry <==

    Molecular point group: cs
    Full point group: Cs

    Geometry (in Angstrom), charge = 0, multiplicity = 1:

       Center              X                  Y                   Z               Mass       
    ------------   -----------------  -----------------  -----------------  -----------------
           O          0.000000000000    -0.000178786729    -0.065775570538    15.994914619560
           H          0.000000000000    -0.757643253230     0.520854514304     1.007825032070
           H          0.000000000000     0.760480728358     0.523051522286     1.007825032070

  Running in cs symmetry.

  Rotational constants: A =     27.26378  B =     14.51501  C =      9.47213 [cm^-1]
  Rotational constants: A = 817347.49341  B = 435149.09044  C = 283967.25621 [MHz]
  Nuclear repulsion =    9.168228694827294

  Charge       = 0
  Multiplicity = 1
  Electrons    = 10
  Nalpha       = 5
  Nbeta        = 5

  ==> Algorithm <==

  SCF Algorithm Type is DF.
  DIIS enabled.
  MOM disabled.
  Fractional occupation disabled.
  Guess Type is CORE.
  Energy threshold   = 1.00e-08
  Density threshold  = 1.00e-08
  Integral threshold = 0.00e+00

  ==> Primary Basis <==

  Basis Set: CC-PVDZ
    Number of shells: 12
    Number of basis function: 24
    Number of Cartesian functions: 25
    Spherical Harmonics?: true
    Max angular momentum: 2

  ==> Pre-Iterations <==

   -------------------------------------------------------
    Irrep   Nso     Nmo     Nalpha   Nbeta   Ndocc  Nsocc
   -------------------------------------------------------
     A'        18      18       0       0       0       0
     A"         6       6       0       0       0       0
   -------------------------------------------------------
    Total      24      24       5       5       5       0
   -------------------------------------------------------

  ==> Integral Setup <==

  ==> DFJK: Density-Fitted J/K Matrices <==

    J tasked:                  Yes
    K tasked:                  Yes
    wK tasked:                  No
    OpenMP threads:              1
    Integrals threads:           1
    Memory (MB):               357
    Algorithm:                Core
    Integral Cache:           NONE
    Schwarz Cutoff:          1E-12
    Fitting Condition:       1E-12

   => Auxiliary Basis Set <=

  Basis Set: 
    Number of shells: 42
    Number of basis function: 116
    Number of Cartesian functions: 131
    Spherical Harmonics?: true
    Max angular momentum: 3

  Minimum eigenvalue in the overlap matrix is 3.4376245210E-02.
  Using Symmetric Orthogonalization.
  SCF Guess: Core (One-Electron) Hamiltonian.

  ==> Iterations <==

                           Total Energy        Delta E     RMS |[F,P]|

    Occupation by irrep:
             Ap   App 
    DOCC [     5,    0 ]

   @DF-RHF iter   1:   -68.87678410627363   -6.88768e+01   1.63362e-01 
    Occupation by irrep:
             Ap   App 
    DOCC [     4,    1 ]

   @DF-RHF iter   2:   -69.94734887952328   -1.07056e+00   1.33661e-01 DIIS
   @DF-RHF iter   3:   -75.73844126696731   -5.79109e+00   4.58393e-02 DIIS
   @DF-RHF iter   4:   -76.00165176625185   -2.63210e-01   1.24261e-02 DIIS
   @DF-RHF iter   5:   -76.02633802546842   -2.46863e-02   1.11855e-03 DIIS
   @DF-RHF iter   6:   -76.02658259098656   -2.44566e-04   4.96296e-04 DIIS
   @DF-RHF iter   7:   -76.02662337682258   -4.07858e-05   6.95850e-05 DIIS
   @DF-RHF iter   8:   -76.02662499915931   -1.62234e-06   2.33837e-05 DIIS
   @DF-RHF iter   9:   -76.02662508894113   -8.97818e-08   1.35592e-06 DIIS
   @DF-RHF iter  10:   -76.02662508969391   -7.52777e-10   4.86415e-07 DIIS
   @DF-RHF iter  11:   -76.02662508974309   -4.91838e-11   8.68804e-08 DIIS
   @DF-RHF iter  12:   -76.02662508974444   -1.35003e-12   6.34828e-09 DIIS

  ==> Post-Iterations <==

    Orbital Energies (a.u.)
    -----------------------

    Doubly Occupied:                                                      

       1Ap   -20.550924     2Ap    -1.335315     3Ap    -0.697804  
       4Ap    -0.566085     1App   -0.492948  

    Virtual:                                                              

       5Ap     0.185105     6Ap     0.255847     7Ap     0.787295  
       8Ap     0.851875     9Ap     1.163850     2App    1.200420  
      10Ap     1.253581    11Ap     1.445293     3App    1.476016  
       4App    1.674663    12Ap     1.868110    13Ap     1.932579  
      14Ap     2.445954    15Ap     2.484412     5App    3.283886  
       6App    3.336747    16Ap     3.507640    17Ap     3.863403  
      18Ap     4.144784  

    Final Occupation by Irrep:
             Ap   App 
    DOCC [     4,    1 ]

  Energy converged.

  @DF-RHF Final Energy:   -76.02662508974444

   => Energetics <=

    Nuclear Repulsion Energy =              9.1682286948272935
    One-Electron Energy =                -123.1035549677226300
    Two-Electron Energy =                  37.9087011831509244
    DFT Exchange-Correlation Energy =       0.0000000000000000
    Empirical Dispersion Energy =           0.0000000000000000
    PCM Polarization Energy =               0.0000000000000000
    EFP Energy =                            0.0000000000000000
    Total Energy =                        -76.0266250897444138


  Saving occupied orbitals to File 180.

*** tstop() called on ds1.sherrill.chemistry.gatech.edu at Fri Apr 22 15:13:54 2016
Module time:
	user time   =       0.07 seconds =       0.00 minutes
	system time =      -0.00 seconds =      -0.00 minutes
	total time  =          1 seconds =       0.02 minutes
Total time:
	user time   =       0.95 seconds =       0.02 minutes
	system time =       0.05 seconds =       0.00 minutes
	total time  =          1 seconds =       0.02 minutes


Properties will be evaluated at   0.000000,   0.000000,   0.000000 Bohr

Properties computed using the SCF density matrix

  Nuclear Dipole Moment: (a.u.)
     X:     0.0000      Y:     0.0027      Z:     0.9783

  Electronic Dipole Moment: (a.u.)
     X:     0.0000      Y:    -0.0015      Z:    -0.1680

  Dipole Moment: (a.u.)
     X:     0.0000      Y:     0.0012      Z:     0.8103     Total:     0.8103

  Dipole Moment: (Debye)
     X:     0.0000      Y:     0.0031      Z:     2.0595     Total:     2.0595


*** tstart() called on ds1.sherrill.chemistry.gatech.edu
*** at Fri Apr 22 15:13:54 2016


         ------------------------------------------------------------
                                   SCF GRAD                          
                          Rob Parrish, Justin Turney,                
                       Andy Simmonett, and Alex Sokolov              
         ------------------------------------------------------------

  ==> Geometry <==

    Molecular point group: cs
    Full point group: Cs

    Geometry (in Angstrom), charge = 0, multiplicity = 1:

       Center              X                  Y                   Z               Mass       
    ------------   -----------------  -----------------  -----------------  -----------------
           O          0.000000000000    -0.000178786729    -0.065775570538    15.994914619560
           H          0.000000000000    -0.757643253230     0.520854514304     1.007825032070
           H          0.000000000000     0.760480728358     0.523051522286     1.007825032070

  Nuclear repulsion =    9.168228694827294

  ==> Basis Set <==

  Basis Set: CC-PVDZ
    Number of shells: 12
    Number of basis function: 24
    Number of Cartesian functions: 25
    Spherical Harmonics?: true
    Max angular momentum: 2

  ==> DFJKGrad: Density-Fitted SCF Gradients <==

    Gradient:                    1
    J tasked:                  Yes
    K tasked:                  Yes
    wK tasked:                  No
    OpenMP threads:              1
    Integrals threads:           1
    Memory (MB):               357
    Schwarz Cutoff:          0E+00
    Fitting Condition:       1E-12

   => Auxiliary Basis Set <=

  Basis Set: 
    Number of shells: 42
    Number of basis function: 116
    Number of Cartesian functions: 131
    Spherical Harmonics?: true
    Max angular momentum: 3


  -Total Gradient:
     Atom            X                  Y                   Z
    ------   -----------------  -----------------  -----------------
       1        0.000000000000    -0.003305712309    -0.017624079305
       2        0.000000000000    -0.010774933409     0.007532822125
       3        0.000000000000     0.014080645719     0.010091257180


*** tstop() called on ds1.sherrill.chemistry.gatech.edu at Fri Apr 22 15:13:54 2016
Module time:
	user time   =       0.11 seconds =       0.00 minutes
	system time =       0.01 seconds =       0.00 minutes
	total time  =          0 seconds =       0.00 minutes
Total time:
	user time   =       1.06 seconds =       0.02 minutes
	system time =       0.06 seconds =       0.00 minutes
	total time  =          1 seconds =       0.02 minutes

  //>>>>>>>>>>>>>>>>>>>>>>>>>>>>>>>>>>>//
  //    Loading displacement 6 of 6    //
  //<<<<<<<<<<<<<<<<<<<<<<<<<<<<<<<<<<<//

*** tstart() called on ds1.sherrill.chemistry.gatech.edu
*** at Fri Apr 22 15:13:54 2016


         ---------------------------------------------------------
                                   SCF
            by Justin Turney, Rob Parrish, and Andy Simmonett
                              RHF Reference
                        1 Threads,    500 MiB Core
         ---------------------------------------------------------

  ==> Geometry <==

    Molecular point group: c2v
    Full point group: C2v

    Geometry (in Angstrom), charge = 0, multiplicity = 1:

       Center              X                  Y                   Z               Mass       
    ------------   -----------------  -----------------  -----------------  -----------------
           O          0.000000000000     0.000000000000    -0.065775570538    15.994914619560
           H          0.000000000000    -0.759061990794     0.521953018295     1.007825032070
           H          0.000000000000     0.759061990794     0.521953018295     1.007825032070

  Running in c2v symmetry.

  Rotational constants: A =     27.26297  B =     14.51533  C =      9.47217 [cm^-1]
  Rotational constants: A = 817323.20514  B = 435158.59817  C = 283968.37324 [MHz]
  Nuclear repulsion =    9.168193260387577

  Charge       = 0
  Multiplicity = 1
  Electrons    = 10
  Nalpha       = 5
  Nbeta        = 5

  ==> Algorithm <==

  SCF Algorithm Type is DF.
  DIIS enabled.
  MOM disabled.
  Fractional occupation disabled.
  Guess Type is CORE.
  Energy threshold   = 1.00e-08
  Density threshold  = 1.00e-08
  Integral threshold = 0.00e+00

  ==> Primary Basis <==

  Basis Set: CC-PVDZ
    Number of shells: 12
    Number of basis function: 24
    Number of Cartesian functions: 25
    Spherical Harmonics?: true
    Max angular momentum: 2

  ==> Pre-Iterations <==

   -------------------------------------------------------
    Irrep   Nso     Nmo     Nalpha   Nbeta   Ndocc  Nsocc
   -------------------------------------------------------
     A1        11      11       0       0       0       0
     A2         2       2       0       0       0       0
     B1         4       4       0       0       0       0
     B2         7       7       0       0       0       0
   -------------------------------------------------------
    Total      24      24       5       5       5       0
   -------------------------------------------------------

  ==> Integral Setup <==

  ==> DFJK: Density-Fitted J/K Matrices <==

    J tasked:                  Yes
    K tasked:                  Yes
    wK tasked:                  No
    OpenMP threads:              1
    Integrals threads:           1
    Memory (MB):               357
    Algorithm:                Core
    Integral Cache:           NONE
    Schwarz Cutoff:          1E-12
    Fitting Condition:       1E-12

   => Auxiliary Basis Set <=

  Basis Set: 
    Number of shells: 42
    Number of basis function: 116
    Number of Cartesian functions: 131
    Spherical Harmonics?: true
    Max angular momentum: 3

  Minimum eigenvalue in the overlap matrix is 3.4377086883E-02.
  Using Symmetric Orthogonalization.
  SCF Guess: Core (One-Electron) Hamiltonian.

  ==> Iterations <==

                           Total Energy        Delta E     RMS |[F,P]|

    Occupation by irrep:
             A1    A2    B1    B2 
    DOCC [     3,    0,    0,    2 ]

   @DF-RHF iter   1:   -68.87679589143487   -6.88768e+01   2.24865e-01 
    Occupation by irrep:
             A1    A2    B1    B2 
    DOCC [     3,    0,    1,    1 ]

   @DF-RHF iter   2:   -69.94739928772638   -1.07060e+00   1.83983e-01 DIIS
   @DF-RHF iter   3:   -75.73846363254611   -5.79106e+00   6.30960e-02 DIIS
   @DF-RHF iter   4:   -76.00166118148616   -2.63198e-01   1.71040e-02 DIIS
   @DF-RHF iter   5:   -76.02634573488017   -2.46846e-02   1.53954e-03 DIIS
   @DF-RHF iter   6:   -76.02659024803145   -2.44513e-04   6.83100e-04 DIIS
   @DF-RHF iter   7:   -76.02663102294986   -4.07749e-05   9.57609e-05 DIIS
   @DF-RHF iter   8:   -76.02663264436248   -1.62141e-06   3.21842e-05 DIIS
   @DF-RHF iter   9:   -76.02663273410587   -8.97434e-08   1.86418e-06 DIIS
   @DF-RHF iter  10:   -76.02663273485685   -7.50973e-10   6.68973e-07 DIIS
   @DF-RHF iter  11:   -76.02663273490589   -4.90417e-11   1.19941e-07 DIIS
   @DF-RHF iter  12:   -76.02663273490734   -1.44951e-12   8.51479e-09 DIIS

  ==> Post-Iterations <==

    Orbital Energies (a.u.)
    -----------------------

    Doubly Occupied:                                                      

       1A1   -20.550925     2A1    -1.335311     1B2    -0.697803  
       3A1    -0.566087     1B1    -0.492948  

    Virtual:                                                              

       4A1     0.185107     2B2     0.255846     3B2     0.787336  
       5A1     0.851826     6A1     1.163855     2B1     1.200424  
       4B2     1.253573     7A1     1.445291     1A2     1.476011  
       3B1     1.674661     8A1     1.868110     5B2     1.932579  
       6B2     2.446529     9A1     2.483817     4B1     3.283958  
       2A2     3.336669    10A1     3.507634    11A1     3.863421  
       7B2     4.144760  

    Final Occupation by Irrep:
             A1    A2    B1    B2 
    DOCC [     3,    0,    1,    1 ]

  Energy converged.

  @DF-RHF Final Energy:   -76.02663273490734

   => Energetics <=

    Nuclear Repulsion Energy =              9.1681932603875769
    One-Electron Energy =                -123.1035073006640914
    Two-Electron Energy =                  37.9086813053691642
    DFT Exchange-Correlation Energy =       0.0000000000000000
    Empirical Dispersion Energy =           0.0000000000000000
    PCM Polarization Energy =               0.0000000000000000
    EFP Energy =                            0.0000000000000000
    Total Energy =                        -76.0266327349073379


  Saving occupied orbitals to File 180.

*** tstop() called on ds1.sherrill.chemistry.gatech.edu at Fri Apr 22 15:13:54 2016
Module time:
	user time   =       0.06 seconds =       0.00 minutes
	system time =      -0.00 seconds =      -0.00 minutes
	total time  =          0 seconds =       0.00 minutes
Total time:
	user time   =       1.15 seconds =       0.02 minutes
	system time =       0.06 seconds =       0.00 minutes
	total time  =          1 seconds =       0.02 minutes


Properties will be evaluated at   0.000000,   0.000000,   0.000000 Bohr

Properties computed using the SCF density matrix

  Nuclear Dipole Moment: (a.u.)
     X:     0.0000      Y:     0.0000      Z:     0.9783

  Electronic Dipole Moment: (a.u.)
     X:     0.0000      Y:     0.0000      Z:    -0.1680

  Dipole Moment: (a.u.)
     X:     0.0000      Y:     0.0000      Z:     0.8103     Total:     0.8103

  Dipole Moment: (Debye)
     X:     0.0000      Y:     0.0000      Z:     2.0595     Total:     2.0595


*** tstart() called on ds1.sherrill.chemistry.gatech.edu
*** at Fri Apr 22 15:13:54 2016


         ------------------------------------------------------------
                                   SCF GRAD                          
                          Rob Parrish, Justin Turney,                
                       Andy Simmonett, and Alex Sokolov              
         ------------------------------------------------------------

  ==> Geometry <==

    Molecular point group: c2v
    Full point group: C2v

    Geometry (in Angstrom), charge = 0, multiplicity = 1:

       Center              X                  Y                   Z               Mass       
    ------------   -----------------  -----------------  -----------------  -----------------
           O          0.000000000000     0.000000000000    -0.065775570538    15.994914619560
           H          0.000000000000    -0.759061990794     0.521953018295     1.007825032070
           H          0.000000000000     0.759061990794     0.521953018295     1.007825032070

  Nuclear repulsion =    9.168193260387577

  ==> Basis Set <==

  Basis Set: CC-PVDZ
    Number of shells: 12
    Number of basis function: 24
    Number of Cartesian functions: 25
    Spherical Harmonics?: true
    Max angular momentum: 2

  ==> DFJKGrad: Density-Fitted SCF Gradients <==

    Gradient:                    1
    J tasked:                  Yes
    K tasked:                  Yes
    wK tasked:                  No
    OpenMP threads:              1
    Integrals threads:           1
    Memory (MB):               357
    Schwarz Cutoff:          0E+00
    Fitting Condition:       1E-12

   => Auxiliary Basis Set <=

  Basis Set: 
    Number of shells: 42
    Number of basis function: 116
    Number of Cartesian functions: 131
    Spherical Harmonics?: true
    Max angular momentum: 3


  -Total Gradient:
     Atom            X                  Y                   Z
    ------   -----------------  -----------------  -----------------
       1        0.000000000000     0.000000000000    -0.017641634790
       2        0.000000000000    -0.012438417431     0.008820817395
       3       -0.000000000000     0.012438417431     0.008820817395


*** tstop() called on ds1.sherrill.chemistry.gatech.edu at Fri Apr 22 15:13:54 2016
Module time:
	user time   =       0.10 seconds =       0.00 minutes
	system time =       0.01 seconds =       0.00 minutes
	total time  =          0 seconds =       0.00 minutes
Total time:
	user time   =       1.26 seconds =       0.02 minutes
	system time =       0.07 seconds =       0.00 minutes
	total time  =          1 seconds =       0.02 minutes

-------------------------------------------------------------

  Computing second-derivative from gradients using projected, 
  symmetry-adapted, cartesian coordinates (fd_freq_1).

  6 gradients passed in, including the reference geometry.
  Generating complete list of displacements from unique ones.

	Operation 2 takes plus displacements of irrep B2 to minus ones.

	  Irrep      Harmonic Frequency   
	                  (cm-1)          
	-----------------------------------------------
	     A1         1809.2346  
	     A1         3923.1570  
	     B2         4020.1821  
	-----------------------------------------------

	Normal Modes (non-mass-weighted).
	Molecular mass is   18.01056 amu.
	Frequencies in cm^-1; force constants in au.

   Frequency:       1809.23
   Force constant:   0.1239
	     X       Y       Z           mass	
  O 	   0.000   0.000  -0.068      15.994915
  H 	   0.000   0.415   0.536       1.007825
  H 	   0.000  -0.415   0.536       1.007825

   Frequency:       3923.16
   Force constant:   0.5825
	     X       Y       Z           mass	
  O 	   0.000   0.000   0.049      15.994915
  H 	   0.000   0.569  -0.391       1.007825
  H 	   0.000  -0.569  -0.391       1.007825

   Frequency:       4020.18
   Force constant:   0.6116
	     X       Y       Z           mass	
  O 	   0.000   0.068   0.000      15.994915
  H 	   0.000  -0.536   0.415       1.007825
  H 	   0.000  -0.536  -0.415       1.007825

-------------------------------------------------------------

 #  #
 Irrep: 1
      1: 1809.2345729
      2: 3923.1569958
      3: 4020.1821381


            *********************************************
            * Thermodynamic Analysis by R.A. King, 2012 *
            *********************************************

  ==> Inputs to Thermochemistry <==

  Temperature:                       298.15 [K]
  Pressure:                       101325.00 [Pa]
  Multiplicity:                           1
  Full point group:                 Cnv (C2v)
  Rotor type:                ASYMMETRIC_TOP
  Rotational symmetry no.:                2
  Rotational constants: A =     27.26297  B =     14.51533  C =      9.47217 [cm^-1]
  Rotational constants: A = 817323.20514  B = 435158.59817  C = 283968.37324 [MHz]

  No.    Vib. Freq. [cm^-1]      Vib. Temp. [K]
    1              1809.235            2603.082
    2              3923.157            5644.541
    3              4020.182            5784.138

  ==> Components <==

  Entropy, S
    Electronic S          0.000 [cal/(mol K)]       0.000 [J/(mol K)]      0.00000000 [mEh/K] (multiplicity = 1)
    Translational S      34.608 [cal/(mol K)]     144.801 [J/(mol K)]      0.05515186 [mEh/K] (mol. weight = 18.0106 [u], P = 101325.00 [Pa])
    Rotational S         10.463 [cal/(mol K)]      43.779 [J/(mol K)]      0.01667448 [mEh/K] (symmetry no. = 2)
    Vibrational S         0.003 [cal/(mol K)]       0.013 [J/(mol K)]      0.00000498 [mEh/K]
  Total S                45.075 [cal/(mol K)]     188.593 [J/(mol K)]      0.07183131 [mEh/K]

  Constant volume heat capacity, Cv
    Electronic Cv         0.000 [cal/(mol K)]       0.000 [J/(mol K)]      0.00000000 [mEh/K]
    Translational Cv      2.981 [cal/(mol K)]      12.472 [J/(mol K)]      0.00475022 [mEh/K]
    Rotational Cv         2.981 [cal/(mol K)]      12.472 [J/(mol K)]      0.00475022 [mEh/K]
    Vibrational Cv        0.024 [cal/(mol K)]       0.102 [J/(mol K)]      0.00003902 [mEh/K]
  Total Cv                5.986 [cal/(mol K)]      25.046 [J/(mol K)]      0.00953946 [mEh/K]

  Constant pressure heat capacity, Cp
    Electronic Cp         0.000 [cal/(mol K)]       0.000 [J/(mol K)]      0.00000000 [mEh/K]
    Translational Cp      4.968 [cal/(mol K)]      20.786 [J/(mol K)]      0.00791704 [mEh/K]
    Rotational Cp         2.981 [cal/(mol K)]      12.472 [J/(mol K)]      0.00475022 [mEh/K]
    Vibrational Cp        0.024 [cal/(mol K)]       0.102 [J/(mol K)]      0.00003902 [mEh/K]
  Total Cp                7.973 [cal/(mol K)]      33.360 [J/(mol K)]      0.01270628 [mEh/K]

  ==> Energy Analysis <== 

  Raw electronic energy, E0
  Total E0, Electronic energy at well bottom at 0 [K]              -76.02663273 [Eh]

  Zero-point energy, ZPE_vib = Sum_i nu_i / 2
    Electronic ZPE        0.000 [kcal/mol]       0.000 [kJ/mol]      0.00000000 [Eh]
    Translational ZPE     0.000 [kcal/mol]       0.000 [kJ/mol]      0.00000000 [Eh]
    Rotational ZPE        0.000 [kcal/mol]       0.000 [kJ/mol]      0.00000000 [Eh]
    Vibrational ZPE      13.942 [kcal/mol]      58.333 [kJ/mol]      0.02221800 [Eh]        4876.287 [cm^-1]
    Correction ZPE       13.942 [kcal/mol]      58.333 [kJ/mol]      0.02221800 [Eh]        4876.287 [cm^-1]
  Total ZPE, Electronic energy at 0 [K]                            -76.00441473 [Eh]

  Thermal Energy, E (includes ZPE)
    Electronic E          0.000 [kcal/mol]       0.000 [kJ/mol]      0.00000000 [Eh]
    Translational E       0.889 [kcal/mol]       3.718 [kJ/mol]      0.00141628 [Eh]
    Rotational E          0.889 [kcal/mol]       3.718 [kJ/mol]      0.00141628 [Eh]
    Vibrational E        13.943 [kcal/mol]      58.337 [kJ/mol]      0.02221933 [Eh]
  Correction E           15.720 [kcal/mol]      65.774 [kJ/mol]      0.02505188 [Eh]
  Total E, Electronic energy at  298.15 [K]                        -76.00158085 [Eh]

  Enthalpy, H_trans = E_trans + k_B * T
    Electronic H          0.000 [kcal/mol]       0.000 [kJ/mol]      0.00000000 [Eh]
    Translational H       1.481 [kcal/mol]       6.197 [kJ/mol]      0.00236046 [Eh]
    Rotational H          0.889 [kcal/mol]       3.718 [kJ/mol]      0.00141628 [Eh]
    Vibrational H        13.943 [kcal/mol]      58.337 [kJ/mol]      0.02221933 [Eh]
  Correction H           16.313 [kcal/mol]      68.253 [kJ/mol]      0.02599607 [Eh]
  Total H, Enthalpy at  298.15 [K]                                 -76.00063667 [Eh]

  Gibbs free energy, G = H - T * S
    Electronic G         -0.000 [kcal/mol]      -0.000 [kJ/mol]     -0.00000000 [Eh]
    Translational G      -8.837 [kcal/mol]     -36.975 [kJ/mol]     -0.01408306 [Eh]
    Rotational G         -2.231 [kcal/mol]      -9.334 [kJ/mol]     -0.00355522 [Eh]
    Vibrational G        13.942 [kcal/mol]      58.333 [kJ/mol]      0.02221784 [Eh]
  Correction G            2.874 [kcal/mol]      12.024 [kJ/mol]      0.00457956 [Eh]
  Total G, Free enthalpy at  298.15 [K]                            -76.02205317 [Eh]

	SCF/cc-pVDZ Frequency 1...........................................PASSED
	SCF/cc-pVDZ Frequency 2...........................................PASSED
	SCF/cc-pVDZ Frequency 3...........................................PASSED
hessian() will perform frequency computation by finite difference of analytic gradients.

-------------------------------------------------------------

  Using finite-differences of gradients to determine vibrational frequencies and 
  normal modes.  Resulting frequencies are only valid at stationary points.
	Generating geometries for use with 3-point formula.
	Displacement size will be 5.00e-03.
	Number of atoms is 3.
	Number of irreps is 4.
	Number of SALCS is 3.
	Index of salcs per irrep:
	 1 :  0  1 
	 2 : 
	 3 : 
	 4 :  2 
	Number of SALC's per irrep:
		 Irrep 1: 2
		 Irrep 2: 0
		 Irrep 3: 0
		 Irrep 4: 1
	Number of geometries (including reference) is 6.
	Number of displacements per irrep:
	  Irrep 1: 4
	  Irrep 2: 0
	  Irrep 3: 0
	  Irrep 4: 1

-------------------------------------------------------------

  //>>>>>>>>>>>>>>>>>>>>>>>>>>>>>>>>>>>//
  //    Loading displacement 1 of 6    //
  //<<<<<<<<<<<<<<<<<<<<<<<<<<<<<<<<<<<//
    There are an even number of electrons - assuming singlet.
    Specify the multiplicity in the molecule input block.


*** tstart() called on ds1.sherrill.chemistry.gatech.edu
*** at Fri Apr 22 15:13:54 2016


         ---------------------------------------------------------
                                   SCF
            by Justin Turney, Rob Parrish, and Andy Simmonett
                              RHF Reference
                        1 Threads,    500 MiB Core
         ---------------------------------------------------------

  ==> Geometry <==

    Molecular point group: c2v
    Full point group: C2v

    Geometry (in Angstrom), charge = 0, multiplicity = 1:

       Center              X                  Y                   Z               Mass       
    ------------   -----------------  -----------------  -----------------  -----------------
           O          0.000000000000     0.000000000000    -0.065996892278    15.994914619560
           H          0.000000000000    -0.759061990794     0.523709286607     1.007825032070
           H          0.000000000000     0.759061990794     0.523709286607     1.007825032070

  Running in c2v symmetry.

  Rotational constants: A =     27.08042  B =     14.51533  C =      9.45003 [cm^-1]
  Rotational constants: A = 811850.58131  B = 435158.59817  C = 283304.85990 [MHz]
  Nuclear repulsion =    9.157072652201338

  Charge       = 0
  Multiplicity = 1
  Electrons    = 10
  Nalpha       = 5
  Nbeta        = 5

  ==> Algorithm <==

  SCF Algorithm Type is DF.
  DIIS enabled.
  MOM disabled.
  Fractional occupation disabled.
  Guess Type is CORE.
  Energy threshold   = 1.00e-08
  Density threshold  = 1.00e-08
  Integral threshold = 0.00e+00

  ==> Primary Basis <==

  Basis Set: CC-PVTZ
    Number of shells: 22
    Number of basis function: 58
    Number of Cartesian functions: 65
    Spherical Harmonics?: true
    Max angular momentum: 3

  ==> Pre-Iterations <==

   -------------------------------------------------------
    Irrep   Nso     Nmo     Nalpha   Nbeta   Ndocc  Nsocc
   -------------------------------------------------------
     A1        23      23       0       0       0       0
     A2         7       7       0       0       0       0
     B1        11      11       0       0       0       0
     B2        17      17       0       0       0       0
   -------------------------------------------------------
    Total      58      58       5       5       5       0
   -------------------------------------------------------

  ==> Integral Setup <==

  ==> DFJK: Density-Fitted J/K Matrices <==

    J tasked:                  Yes
    K tasked:                  Yes
    wK tasked:                  No
    OpenMP threads:              1
    Integrals threads:           1
    Memory (MB):               357
    Algorithm:                Core
    Integral Cache:           NONE
    Schwarz Cutoff:          1E-12
    Fitting Condition:       1E-12

   => Auxiliary Basis Set <=

  Basis Set: 
    Number of shells: 45
    Number of basis function: 139
    Number of Cartesian functions: 166
    Spherical Harmonics?: true
    Max angular momentum: 4

  Minimum eigenvalue in the overlap matrix is 2.5315302732E-03.
  Using Symmetric Orthogonalization.
  SCF Guess: Core (One-Electron) Hamiltonian.

  ==> Iterations <==

                           Total Energy        Delta E     RMS |[F,P]|

    Occupation by irrep:
             A1    A2    B1    B2 
    DOCC [     3,    0,    0,    2 ]

   @DF-RHF iter   1:   -61.39961906174410   -6.13996e+01   2.47490e-01 
    Occupation by irrep:
             A1    A2    B1    B2 
    DOCC [     3,    0,    1,    1 ]

   @DF-RHF iter   2:   -66.70047341583559   -5.30085e+00   9.76244e-02 DIIS
   @DF-RHF iter   3:   -73.81409406743354   -7.11362e+00   8.73021e-02 DIIS
   @DF-RHF iter   4:   -75.70471320324000   -1.89062e+00   3.07346e-02 DIIS
   @DF-RHF iter   5:   -76.05453727680209   -3.49824e-01   1.93762e-03 DIIS
   @DF-RHF iter   6:   -76.05636358096451   -1.82630e-03   1.20065e-03 DIIS
   @DF-RHF iter   7:   -76.05682550891684   -4.61928e-04   2.17578e-04 DIIS
   @DF-RHF iter   8:   -76.05685152716724   -2.60183e-05   2.98370e-05 DIIS
   @DF-RHF iter   9:   -76.05685265523816   -1.12807e-06   5.13060e-06 DIIS
   @DF-RHF iter  10:   -76.05685268595835   -3.07202e-08   7.81284e-07 DIIS
   @DF-RHF iter  11:   -76.05685268644270   -4.84349e-10   1.59289e-07 DIIS
   @DF-RHF iter  12:   -76.05685268645595   -1.32587e-11   1.46567e-08 DIIS
   @DF-RHF iter  13:   -76.05685268645614   -1.84741e-13   2.73914e-09 DIIS

  ==> Post-Iterations <==

    Orbital Energies (a.u.)
    -----------------------

    Doubly Occupied:                                                      

       1A1   -20.555543     2A1    -1.343766     1B2    -0.707237  
       3A1    -0.577359     1B1    -0.504217  

    Virtual:                                                              

       4A1     0.141905     2B2     0.203751     3B2     0.542294  
       5A1     0.600708     6A1     0.669031     2B1     0.787458  
       7A1     0.799203     4B2     0.805486     1A2     0.860815  
       3B1     0.954118     8A1     1.135110     5B2     1.195503  
       6B2     1.523039     9A1     1.560685     4B1     2.036646  
       7B2     2.058405     2A2     2.064429    10A1     2.171036  
      11A1     2.235863    12A1     2.587211     8B2     2.961444  
       5B1     3.354811    13A1     3.488918     3A2     3.581762  
       9B2     3.652614     6B1     3.797871    10B2     3.875205  
      14A1     3.884662     4A2     3.960508     7B1     4.018663  
      11B2     4.074552    15A1     4.188650     5A2     4.307317  
      16A1     4.381051    12B2     4.578396     8B1     4.682905  
      13B2     4.857588    17A1     5.146522    18A1     5.251502  
      14B2     5.528056     9B1     6.050211    19A1     6.562454  
      10B1     6.916543     6A2     6.943167    11B1     7.008204  
      20A1     7.017006    15B2     7.050956    21A1     7.174189  
       7A2     7.234297    22A1     7.457752    16B2     7.789725  
      17B2     8.279533    23A1    12.812572  

    Final Occupation by Irrep:
             A1    A2    B1    B2 
    DOCC [     3,    0,    1,    1 ]

  Energy converged.

  @DF-RHF Final Energy:   -76.05685268645614

   => Energetics <=

    Nuclear Repulsion Energy =              9.1570726522013377
    One-Electron Energy =                -123.0516079549886115
    Two-Electron Energy =                  37.8376826163311222
    DFT Exchange-Correlation Energy =       0.0000000000000000
    Empirical Dispersion Energy =           0.0000000000000000
    PCM Polarization Energy =               0.0000000000000000
    EFP Energy =                            0.0000000000000000
    Total Energy =                        -76.0568526864561534


  Saving occupied orbitals to File 180.

*** tstop() called on ds1.sherrill.chemistry.gatech.edu at Fri Apr 22 15:13:54 2016
Module time:
	user time   =       0.11 seconds =       0.00 minutes
	system time =       0.01 seconds =       0.00 minutes
	total time  =          0 seconds =       0.00 minutes
Total time:
	user time   =       1.40 seconds =       0.02 minutes
	system time =       0.08 seconds =       0.00 minutes
	total time  =          1 seconds =       0.02 minutes


Properties will be evaluated at   0.000000,   0.000000,   0.000000 Bohr

Properties computed using the SCF density matrix

  Nuclear Dipole Moment: (a.u.)
     X:     0.0000      Y:     0.0000      Z:     0.9816

  Electronic Dipole Moment: (a.u.)
     X:     0.0000      Y:     0.0000      Z:    -0.1824

  Dipole Moment: (a.u.)
     X:     0.0000      Y:     0.0000      Z:     0.7992     Total:     0.7992

  Dipole Moment: (Debye)
     X:     0.0000      Y:     0.0000      Z:     2.0314     Total:     2.0314


*** tstart() called on ds1.sherrill.chemistry.gatech.edu
*** at Fri Apr 22 15:13:54 2016


         ------------------------------------------------------------
                                   SCF GRAD                          
                          Rob Parrish, Justin Turney,                
                       Andy Simmonett, and Alex Sokolov              
         ------------------------------------------------------------

  ==> Geometry <==

    Molecular point group: c2v
    Full point group: C2v

    Geometry (in Angstrom), charge = 0, multiplicity = 1:

       Center              X                  Y                   Z               Mass       
    ------------   -----------------  -----------------  -----------------  -----------------
           O          0.000000000000     0.000000000000    -0.065996892278    15.994914619560
           H          0.000000000000    -0.759061990794     0.523709286607     1.007825032070
           H          0.000000000000     0.759061990794     0.523709286607     1.007825032070

  Nuclear repulsion =    9.157072652201338

  ==> Basis Set <==

  Basis Set: CC-PVTZ
    Number of shells: 22
    Number of basis function: 58
    Number of Cartesian functions: 65
    Spherical Harmonics?: true
    Max angular momentum: 3

  ==> DFJKGrad: Density-Fitted SCF Gradients <==

    Gradient:                    1
    J tasked:                  Yes
    K tasked:                  Yes
    wK tasked:                  No
    OpenMP threads:              1
    Integrals threads:           1
    Memory (MB):               357
    Schwarz Cutoff:          0E+00
    Fitting Condition:       1E-12

   => Auxiliary Basis Set <=

  Basis Set: 
    Number of shells: 45
    Number of basis function: 139
    Number of Cartesian functions: 166
    Spherical Harmonics?: true
    Max angular momentum: 4


  -Total Gradient:
     Atom            X                  Y                   Z
    ------   -----------------  -----------------  -----------------
       1        0.000000000000     0.000000000000    -0.029214689320
       2        0.000000000000    -0.016237754819     0.014607344660
       3       -0.000000000000     0.016237754819     0.014607344660


*** tstop() called on ds1.sherrill.chemistry.gatech.edu at Fri Apr 22 15:13:54 2016
Module time:
	user time   =       0.19 seconds =       0.00 minutes
	system time =       0.02 seconds =       0.00 minutes
	total time  =          0 seconds =       0.00 minutes
Total time:
	user time   =       1.60 seconds =       0.03 minutes
	system time =       0.10 seconds =       0.00 minutes
	total time  =          1 seconds =       0.02 minutes

  //>>>>>>>>>>>>>>>>>>>>>>>>>>>>>>>>>>>//
  //    Loading displacement 2 of 6    //
  //<<<<<<<<<<<<<<<<<<<<<<<<<<<<<<<<<<<//

*** tstart() called on ds1.sherrill.chemistry.gatech.edu
*** at Fri Apr 22 15:13:54 2016


[...]

  Dipole Moment: (Debye)
     X:     0.0000      Y:     0.0033      Z:     2.0275     Total:     2.0275


*** tstart() called on ds1.sherrill.chemistry.gatech.edu
*** at Fri Apr 22 15:13:55 2016


         ------------------------------------------------------------
                                   SCF GRAD                          
                          Rob Parrish, Justin Turney,                
                       Andy Simmonett, and Alex Sokolov              
         ------------------------------------------------------------

  ==> Geometry <==

    Molecular point group: cs
    Full point group: Cs

    Geometry (in Angstrom), charge = 0, multiplicity = 1:

       Center              X                  Y                   Z               Mass       
    ------------   -----------------  -----------------  -----------------  -----------------
           O          0.000000000000    -0.000178786729    -0.065775570538    15.994914619560
           H          0.000000000000    -0.757643253230     0.520854514304     1.007825032070
           H          0.000000000000     0.760480728358     0.523051522286     1.007825032070

  Nuclear repulsion =    9.168228694827294

  ==> Basis Set <==

  Basis Set: CC-PVTZ
    Number of shells: 22
    Number of basis function: 58
    Number of Cartesian functions: 65
    Spherical Harmonics?: true
    Max angular momentum: 3

  ==> DFJKGrad: Density-Fitted SCF Gradients <==

    Gradient:                    1
    J tasked:                  Yes
    K tasked:                  Yes
    wK tasked:                  No
    OpenMP threads:              1
    Integrals threads:           1
    Memory (MB):               357
    Schwarz Cutoff:          0E+00
    Fitting Condition:       1E-12

   => Auxiliary Basis Set <=

  Basis Set: 
    Number of shells: 45
    Number of basis function: 139
    Number of Cartesian functions: 166
    Spherical Harmonics?: true
    Max angular momentum: 4


  -Total Gradient:
     Atom            X                  Y                   Z
    ------   -----------------  -----------------  -----------------
       1        0.000000000000    -0.003200574231    -0.027355532541
       2        0.000000000000    -0.013887303739     0.012445064380
       3        0.000000000000     0.017087877970     0.014910468161


*** tstop() called on ds1.sherrill.chemistry.gatech.edu at Fri Apr 22 15:13:56 2016
Module time:
	user time   =       0.19 seconds =       0.00 minutes
	system time =       0.02 seconds =       0.00 minutes
	total time  =          1 seconds =       0.02 minutes
Total time:
	user time   =       2.95 seconds =       0.05 minutes
	system time =       0.19 seconds =       0.00 minutes
	total time  =          3 seconds =       0.05 minutes

  //>>>>>>>>>>>>>>>>>>>>>>>>>>>>>>>>>>>//
  //    Loading displacement 6 of 6    //
  //<<<<<<<<<<<<<<<<<<<<<<<<<<<<<<<<<<<//

*** tstart() called on ds1.sherrill.chemistry.gatech.edu
*** at Fri Apr 22 15:13:56 2016


         ---------------------------------------------------------
                                   SCF
            by Justin Turney, Rob Parrish, and Andy Simmonett
                              RHF Reference
                        1 Threads,    500 MiB Core
         ---------------------------------------------------------

  ==> Geometry <==

    Molecular point group: c2v
    Full point group: C2v

    Geometry (in Angstrom), charge = 0, multiplicity = 1:

       Center              X                  Y                   Z               Mass       
    ------------   -----------------  -----------------  -----------------  -----------------
           O          0.000000000000     0.000000000000    -0.065775570538    15.994914619560
           H          0.000000000000    -0.759061990794     0.521953018295     1.007825032070
           H          0.000000000000     0.759061990794     0.521953018295     1.007825032070

  Running in c2v symmetry.

  Rotational constants: A =     27.26297  B =     14.51533  C =      9.47217 [cm^-1]
  Rotational constants: A = 817323.20514  B = 435158.59817  C = 283968.37324 [MHz]
  Nuclear repulsion =    9.168193260387577

  Charge       = 0
  Multiplicity = 1
  Electrons    = 10
  Nalpha       = 5
  Nbeta        = 5

  ==> Algorithm <==

  SCF Algorithm Type is DF.
  DIIS enabled.
  MOM disabled.
  Fractional occupation disabled.
  Guess Type is CORE.
  Energy threshold   = 1.00e-08
  Density threshold  = 1.00e-08
  Integral threshold = 0.00e+00

  ==> Primary Basis <==

  Basis Set: CC-PVTZ
    Number of shells: 22
    Number of basis function: 58
    Number of Cartesian functions: 65
    Spherical Harmonics?: true
    Max angular momentum: 3

  ==> Pre-Iterations <==

   -------------------------------------------------------
    Irrep   Nso     Nmo     Nalpha   Nbeta   Ndocc  Nsocc
   -------------------------------------------------------
     A1        23      23       0       0       0       0
     A2         7       7       0       0       0       0
     B1        11      11       0       0       0       0
     B2        17      17       0       0       0       0
   -------------------------------------------------------
    Total      58      58       5       5       5       0
   -------------------------------------------------------

  ==> Integral Setup <==

  ==> DFJK: Density-Fitted J/K Matrices <==

    J tasked:                  Yes
    K tasked:                  Yes
    wK tasked:                  No
    OpenMP threads:              1
    Integrals threads:           1
    Memory (MB):               357
    Algorithm:                Core
    Integral Cache:           NONE
    Schwarz Cutoff:          1E-12
    Fitting Condition:       1E-12

   => Auxiliary Basis Set <=

  Basis Set: 
    Number of shells: 45
    Number of basis function: 139
    Number of Cartesian functions: 166
    Spherical Harmonics?: true
    Max angular momentum: 4

  Minimum eigenvalue in the overlap matrix is 2.5191859143E-03.
  Using Symmetric Orthogonalization.
  SCF Guess: Core (One-Electron) Hamiltonian.

  ==> Iterations <==

                           Total Energy        Delta E     RMS |[F,P]|

    Occupation by irrep:
             A1    A2    B1    B2 
    DOCC [     3,    0,    0,    2 ]

   @DF-RHF iter   1:   -61.40269740313510   -6.14027e+01   2.47500e-01 
    Occupation by irrep:
             A1    A2    B1    B2 
    DOCC [     3,    0,    1,    1 ]

   @DF-RHF iter   2:   -66.71098647017678   -5.30829e+00   9.76552e-02 DIIS
   @DF-RHF iter   3:   -73.82192230059276   -7.11094e+00   8.71679e-02 DIIS
   @DF-RHF iter   4:   -75.70724833991159   -1.88533e+00   3.06280e-02 DIIS
   @DF-RHF iter   5:   -76.05467757064734   -3.47429e-01   1.93007e-03 DIIS
   @DF-RHF iter   6:   -76.05647280721874   -1.79524e-03   1.19686e-03 DIIS
   @DF-RHF iter   7:   -76.05693147384902   -4.58667e-04   2.17025e-04 DIIS
   @DF-RHF iter   8:   -76.05695728168261   -2.58078e-05   2.96073e-05 DIIS
   @DF-RHF iter   9:   -76.05695839381151   -1.11213e-06   5.08545e-06 DIIS
   @DF-RHF iter  10:   -76.05695842388496   -3.00735e-08   7.78341e-07 DIIS
   @DF-RHF iter  11:   -76.05695842436423   -4.79261e-10   1.56973e-07 DIIS
   @DF-RHF iter  12:   -76.05695842437724   -1.30171e-11   1.46051e-08 DIIS
   @DF-RHF iter  13:   -76.05695842437730   -5.68434e-14   2.78811e-09 DIIS

  ==> Post-Iterations <==

    Orbital Energies (a.u.)
    -----------------------

    Doubly Occupied:                                                      

       1A1   -20.555235     2A1    -1.344248     1B2    -0.708252  
       3A1    -0.577218     1B1    -0.504252  

    Virtual:                                                              

       4A1     0.142066     2B2     0.203823     3B2     0.543113  
       5A1     0.600751     6A1     0.668939     2B1     0.787501  
       7A1     0.800353     4B2     0.805392     1A2     0.860673  
       3B1     0.955037     8A1     1.134001     5B2     1.195672  
       6B2     1.524591     9A1     1.562162     4B1     2.036288  
       7B2     2.056807     2A2     2.065312    10A1     2.170976  
      11A1     2.235701    12A1     2.588899     8B2     2.961937  
       5B1     3.356561    13A1     3.490453     3A2     3.581109  
       9B2     3.653132     6B1     3.799141    10B2     3.876662  
      14A1     3.884572     4A2     3.960715     7B1     4.019283  
      11B2     4.075639    15A1     4.189972     5A2     4.310192  
      16A1     4.384892    12B2     4.578442     8B1     4.684224  
      13B2     4.860174    17A1     5.149717    18A1     5.252511  
      14B2     5.529411     9B1     6.051768    19A1     6.564553  
      10B1     6.921643     6A2     6.945669    11B1     7.007890  
      20A1     7.020035    15B2     7.059033    21A1     7.172861  
       7A2     7.236299    22A1     7.459893    16B2     7.792053  
      17B2     8.283545    23A1    12.833553  

    Final Occupation by Irrep:
             A1    A2    B1    B2 
    DOCC [     3,    0,    1,    1 ]

  Energy converged.

  @DF-RHF Final Energy:   -76.05695842437730

   => Energetics <=

    Nuclear Repulsion Energy =              9.1681932603875769
    One-Electron Energy =                -123.0718939569527777
    Two-Electron Energy =                  37.8467422721878677
    DFT Exchange-Correlation Energy =       0.0000000000000000
    Empirical Dispersion Energy =           0.0000000000000000
    PCM Polarization Energy =               0.0000000000000000
    EFP Energy =                            0.0000000000000000
    Total Energy =                        -76.0569584243773278


  Saving occupied orbitals to File 180.

*** tstop() called on ds1.sherrill.chemistry.gatech.edu at Fri Apr 22 15:13:56 2016
Module time:
	user time   =       0.11 seconds =       0.00 minutes
	system time =      -0.00 seconds =      -0.00 minutes
	total time  =          0 seconds =       0.00 minutes
Total time:
	user time   =       3.09 seconds =       0.05 minutes
	system time =       0.19 seconds =       0.00 minutes
	total time  =          3 seconds =       0.05 minutes


Properties will be evaluated at   0.000000,   0.000000,   0.000000 Bohr

Properties computed using the SCF density matrix

  Nuclear Dipole Moment: (a.u.)
     X:     0.0000      Y:     0.0000      Z:     0.9783

  Electronic Dipole Moment: (a.u.)
     X:     0.0000      Y:     0.0000      Z:    -0.1806

  Dipole Moment: (a.u.)
     X:     0.0000      Y:     0.0000      Z:     0.7977     Total:     0.7977

  Dipole Moment: (Debye)
     X:     0.0000      Y:     0.0000      Z:     2.0275     Total:     2.0275


*** tstart() called on ds1.sherrill.chemistry.gatech.edu
*** at Fri Apr 22 15:13:56 2016


         ------------------------------------------------------------
                                   SCF GRAD                          
                          Rob Parrish, Justin Turney,                
                       Andy Simmonett, and Alex Sokolov              
         ------------------------------------------------------------

  ==> Geometry <==

    Molecular point group: c2v
    Full point group: C2v

    Geometry (in Angstrom), charge = 0, multiplicity = 1:

       Center              X                  Y                   Z               Mass       
    ------------   -----------------  -----------------  -----------------  -----------------
           O          0.000000000000     0.000000000000    -0.065775570538    15.994914619560
           H          0.000000000000    -0.759061990794     0.521953018295     1.007825032070
           H          0.000000000000     0.759061990794     0.521953018295     1.007825032070

  Nuclear repulsion =    9.168193260387577

  ==> Basis Set <==

  Basis Set: CC-PVTZ
    Number of shells: 22
    Number of basis function: 58
    Number of Cartesian functions: 65
    Spherical Harmonics?: true
    Max angular momentum: 3

  ==> DFJKGrad: Density-Fitted SCF Gradients <==

    Gradient:                    1
    J tasked:                  Yes
    K tasked:                  Yes
    wK tasked:                  No
    OpenMP threads:              1
    Integrals threads:           1
    Memory (MB):               357
    Schwarz Cutoff:          0E+00
    Fitting Condition:       1E-12

   => Auxiliary Basis Set <=

  Basis Set: 
    Number of shells: 45
    Number of basis function: 139
    Number of Cartesian functions: 166
    Spherical Harmonics?: true
    Max angular momentum: 4


  -Total Gradient:
     Atom            X                  Y                   Z
    ------   -----------------  -----------------  -----------------
       1       -0.000000000000     0.000000000000    -0.027372510206
       2        0.000000000000    -0.015497914347     0.013686255103
       3       -0.000000000000     0.015497914347     0.013686255103


*** tstop() called on ds1.sherrill.chemistry.gatech.edu at Fri Apr 22 15:13:56 2016
Module time:
	user time   =       0.18 seconds =       0.00 minutes
	system time =       0.02 seconds =       0.00 minutes
	total time  =          0 seconds =       0.00 minutes
Total time:
	user time   =       3.28 seconds =       0.05 minutes
	system time =       0.21 seconds =       0.00 minutes
	total time  =          3 seconds =       0.05 minutes

-------------------------------------------------------------

  Computing second-derivative from gradients using projected, 
  symmetry-adapted, cartesian coordinates (fd_freq_1).

  6 gradients passed in, including the reference geometry.
  Generating complete list of displacements from unique ones.

	Operation 2 takes plus displacements of irrep B2 to minus ones.

	  Irrep      Harmonic Frequency   
	                  (cm-1)          
	-----------------------------------------------
	     A1         1813.8361  
	     A1         3867.8214  
	     B2         3952.4995  
	-----------------------------------------------

	Normal Modes (non-mass-weighted).
	Molecular mass is   18.01056 amu.
	Frequencies in cm^-1; force constants in au.

   Frequency:       1813.84
   Force constant:   0.1245
	     X       Y       Z           mass	
  O 	   0.000   0.000  -0.068      15.994915
  H 	   0.000   0.412   0.538       1.007825
  H 	   0.000  -0.412   0.538       1.007825

   Frequency:       3867.82
   Force constant:   0.5661
	     X       Y       Z           mass	
  O 	   0.000   0.000   0.049      15.994915
  H 	   0.000   0.571  -0.389       1.007825
  H 	   0.000  -0.571  -0.389       1.007825

   Frequency:       3952.50
   Force constant:   0.5912
	     X       Y       Z           mass	
  O 	   0.000   0.068   0.000      15.994915
  H 	   0.000  -0.536   0.415       1.007825
  H 	   0.000  -0.536  -0.415       1.007825

-------------------------------------------------------------

 #  #
 Irrep: 1
      1: 1813.8360744
      2: 3867.8213944
      3: 3952.4994821


            *********************************************
            * Thermodynamic Analysis by R.A. King, 2012 *
            *********************************************

  ==> Inputs to Thermochemistry <==

  Temperature:                       298.15 [K]
  Pressure:                       101325.00 [Pa]
  Multiplicity:                           1
  Full point group:                 Cnv (C2v)
  Rotor type:                ASYMMETRIC_TOP
  Rotational symmetry no.:                2
  Rotational constants: A =     27.26297  B =     14.51533  C =      9.47217 [cm^-1]
  Rotational constants: A = 817323.20514  B = 435158.59817  C = 283968.37324 [MHz]

  No.    Vib. Freq. [cm^-1]      Vib. Temp. [K]
    1              1813.836            2609.702
    2              3867.821            5564.925
    3              3952.499            5686.758

  ==> Components <==

  Entropy, S
    Electronic S          0.000 [cal/(mol K)]       0.000 [J/(mol K)]      0.00000000 [mEh/K] (multiplicity = 1)
    Translational S      34.608 [cal/(mol K)]     144.801 [J/(mol K)]      0.05515186 [mEh/K] (mol. weight = 18.0106 [u], P = 101325.00 [Pa])
    Rotational S         10.463 [cal/(mol K)]      43.779 [J/(mol K)]      0.01667448 [mEh/K] (symmetry no. = 2)
    Vibrational S         0.003 [cal/(mol K)]       0.013 [J/(mol K)]      0.00000488 [mEh/K]
  Total S                45.075 [cal/(mol K)]     188.593 [J/(mol K)]      0.07183122 [mEh/K]

  Constant volume heat capacity, Cv
    Electronic Cv         0.000 [cal/(mol K)]       0.000 [J/(mol K)]      0.00000000 [mEh/K]
    Translational Cv      2.981 [cal/(mol K)]      12.472 [J/(mol K)]      0.00475022 [mEh/K]
    Rotational Cv         2.981 [cal/(mol K)]      12.472 [J/(mol K)]      0.00475022 [mEh/K]
    Vibrational Cv        0.024 [cal/(mol K)]       0.101 [J/(mol K)]      0.00003836 [mEh/K]
  Total Cv                5.986 [cal/(mol K)]      25.044 [J/(mol K)]      0.00953880 [mEh/K]

  Constant pressure heat capacity, Cp
    Electronic Cp         0.000 [cal/(mol K)]       0.000 [J/(mol K)]      0.00000000 [mEh/K]
    Translational Cp      4.968 [cal/(mol K)]      20.786 [J/(mol K)]      0.00791704 [mEh/K]
    Rotational Cp         2.981 [cal/(mol K)]      12.472 [J/(mol K)]      0.00475022 [mEh/K]
    Vibrational Cp        0.024 [cal/(mol K)]       0.101 [J/(mol K)]      0.00003836 [mEh/K]
  Total Cp                7.973 [cal/(mol K)]      33.359 [J/(mol K)]      0.01270562 [mEh/K]

  ==> Energy Analysis <== 

  Raw electronic energy, E0
  Total E0, Electronic energy at well bottom at 0 [K]              -76.05695842 [Eh]

  Zero-point energy, ZPE_vib = Sum_i nu_i / 2
    Electronic ZPE        0.000 [kcal/mol]       0.000 [kJ/mol]      0.00000000 [Eh]
    Translational ZPE     0.000 [kcal/mol]       0.000 [kJ/mol]      0.00000000 [Eh]
    Rotational ZPE        0.000 [kcal/mol]       0.000 [kJ/mol]      0.00000000 [Eh]
    Vibrational ZPE      13.773 [kcal/mol]      57.625 [kJ/mol]      0.02194823 [Eh]        4817.078 [cm^-1]
    Correction ZPE       13.773 [kcal/mol]      57.625 [kJ/mol]      0.02194823 [Eh]        4817.078 [cm^-1]
  Total ZPE, Electronic energy at 0 [K]                            -76.03501020 [Eh]

  Thermal Energy, E (includes ZPE)
    Electronic E          0.000 [kcal/mol]       0.000 [kJ/mol]      0.00000000 [Eh]
    Translational E       0.889 [kcal/mol]       3.718 [kJ/mol]      0.00141628 [Eh]
    Rotational E          0.889 [kcal/mol]       3.718 [kJ/mol]      0.00141628 [Eh]
    Vibrational E        13.774 [kcal/mol]      57.628 [kJ/mol]      0.02194953 [Eh]
  Correction E           15.551 [kcal/mol]      65.065 [kJ/mol]      0.02478208 [Eh]
  Total E, Electronic energy at  298.15 [K]                        -76.03217634 [Eh]

  Enthalpy, H_trans = E_trans + k_B * T
    Electronic H          0.000 [kcal/mol]       0.000 [kJ/mol]      0.00000000 [Eh]
    Translational H       1.481 [kcal/mol]       6.197 [kJ/mol]      0.00236046 [Eh]
    Rotational H          0.889 [kcal/mol]       3.718 [kJ/mol]      0.00141628 [Eh]
    Vibrational H        13.774 [kcal/mol]      57.628 [kJ/mol]      0.02194953 [Eh]
  Correction H           16.143 [kcal/mol]      67.544 [kJ/mol]      0.02572627 [Eh]
  Total H, Enthalpy at  298.15 [K]                                 -76.03123216 [Eh]

  Gibbs free energy, G = H - T * S
    Electronic G         -0.000 [kcal/mol]      -0.000 [kJ/mol]     -0.00000000 [Eh]
    Translational G      -8.837 [kcal/mol]     -36.975 [kJ/mol]     -0.01408306 [Eh]
    Rotational G         -2.231 [kcal/mol]      -9.334 [kJ/mol]     -0.00355522 [Eh]
    Vibrational G        13.773 [kcal/mol]      57.625 [kJ/mol]      0.02194807 [Eh]
  Correction G            2.704 [kcal/mol]      11.315 [kJ/mol]      0.00430979 [Eh]
  Total G, Free enthalpy at  298.15 [K]                            -76.05264863 [Eh]

	SCF/cc-pVTZ Frequency 1...........................................PASSED
	SCF/cc-pVTZ Frequency 2...........................................PASSED
	SCF/cc-pVTZ Frequency 3...........................................PASSED

*** PSI4 exiting successfully. Buy a developer a beer!
