
    -----------------------------------------------------------------------
          Psi4: An Open-Source Ab Initio Electronic Structure Package
                               Psi4 1.1rc3.dev5 

                         Git: Rev {master} 3fbd859 


    R. M. Parrish, L. A. Burns, D. G. A. Smith, A. C. Simmonett,
    A. E. DePrince III, E. G. Hohenstein, U. Bozkaya, A. Yu. Sokolov,
    R. Di Remigio, R. M. Richard, J. F. Gonthier, A. M. James,
    H. R. McAlexander, A. Kumar, M. Saitow, X. Wang, B. P. Pritchard,
    P. Verma, H. F. Schaefer III, K. Patkowski, R. A. King, E. F. Valeev,
    F. A. Evangelista, J. M. Turney, T. D. Crawford, and C. D. Sherrill,
    J. Chem. Theory Comput. in press (2017).
    (doi: 10.1021/acs.jctc.7b00174)

    -----------------------------------------------------------------------


    Psi4 started on: Monday, 15 May 2017 03:37PM

    Process ID:  14626
    PSIDATADIR: /home/psilocaluser/gits/hrw-direct/objdir4/stage/usr/local/psi4/share/psi4
    Memory:     500.0 MiB
    Threads:    1
    
  ==> Input File <==

--------------------------------------------------------------------------
#! Test case for Binding Energy of C4H5N (Pyrrole) with CO2 using MP2/def2-TZVPP 
E_cp = -13.1 ##kJ/mol (L. Chen, F. Cao, H. Sun, International Journal of Quantum Chemistry 2013, 113, 2261-2266)

molecule {
0 1
C 0.7472526 -1.3376296 -0.1294481
C 2.1138787 -1.1759945 0.0072903
C 2.3743733 0.2167009 0.0369708
C 1.1595896 0.8666464 -0.0824524
N 0.1897954 -0.0908731 -0.1877630
H -0.7952679 0.0948027 -0.2467455
H 0.1412757 -2.2237390 -0.1929500
H 2.8361537 -1.9712660 0.0709342
H 3.3345426 0.6941783 0.1277415
H 0.9152769 1.9136518 -0.1047862
--
0 1
C 1.6830180 -0.4403696 3.1117942
O 0.5425545 -0.2216001 2.9779653
O 2.8186228 -0.6587208 3.2810031
units angstrom
}

set {
  basis def2-tzvpp
}

e_cp = energy('mp2', bsse_type='cp')
clean()


ie = psi_hartree2kcalmol*psi_cal2J*(e_cp)
compare_values(E_cp,ie,1,"CP corrected Binding Energy for C4H5N with CO2")  #TEST
--------------------------------------------------------------------------


   ===> N-Body Interaction Abacus <===
        BSSE Treatment:                     cp
        Number of 1-body computations:     2
        Number of 2-body computations:     1

   ==> N-Body: Now computing 1-body complexes <==


       N-Body: Computing complex (1/2) with fragments (2,) in the basis of fragments (1, 2).

    SCF Algorithm Type (re)set to DF.

*** tstart() called on psinet
*** at Mon May 15 15:37:17 2017

   => Loading Basis Set <=

    Name: DEF2-TZVPP
    Role: ORBITAL
    Keyword: BASIS
    atoms 1-4, 11 entry C          line   132 file /home/psilocaluser/gits/hrw-direct/objdir4/stage/usr/local/psi4/share/psi4/basis/def2-tzvpp.gbs 
    atoms 5       entry N          line   165 file /home/psilocaluser/gits/hrw-direct/objdir4/stage/usr/local/psi4/share/psi4/basis/def2-tzvpp.gbs 
    atoms 6-10    entry H          line    14 file /home/psilocaluser/gits/hrw-direct/objdir4/stage/usr/local/psi4/share/psi4/basis/def2-tzvpp.gbs 
    atoms 12-13   entry O          line   198 file /home/psilocaluser/gits/hrw-direct/objdir4/stage/usr/local/psi4/share/psi4/basis/def2-tzvpp.gbs 


         ---------------------------------------------------------
                                   SCF
            by Justin Turney, Rob Parrish, and Andy Simmonett
                              RHF Reference
                        1 Threads,    500 MiB Core
         ---------------------------------------------------------

  ==> Geometry <==

    Molecular point group: c1
    Full point group: C1

    Geometry (in Angstrom), charge = 0, multiplicity = 1:

       Center              X                  Y                   Z               Mass       
    ------------   -----------------  -----------------  -----------------  -----------------
           C(Gh)     -0.692324098017    -0.983632939731    -1.322470992051    12.000000000000
           C(Gh)      0.674302001983    -0.821997839731    -1.185732592051    12.000000000000
           C(Gh)      0.934796601983     0.570697560269    -1.156052092051    12.000000000000
           C(Gh)     -0.279987098017     1.220643060269    -1.275475292051    12.000000000000
           N(Gh)     -1.249781298017     0.263123560269    -1.380785892051    14.003074004780
           H(Gh)     -2.234844598017     0.448799360269    -1.439768392051     1.007825032070
           H(Gh)     -1.298300998017    -1.869742339731    -1.385972892051     1.007825032070
           H(Gh)      1.396577001983    -1.617269339731    -1.122088692051     1.007825032070
           H(Gh)      1.894965901983     1.048174960269    -1.065281392051     1.007825032070
           H(Gh)     -0.524299798017     2.267648460269    -1.297809092051     1.007825032070
           C          0.243441301983    -0.086372939731     1.918771307949    12.000000000000
           O         -0.897022198017     0.132396560269     1.784942407949    15.994914619560
           O          1.379046101983    -0.304724139731     2.087980207949    15.994914619560

  Running in c1 symmetry.

  Rotational constants: A =      0.11545  B =      0.04957  C =      0.04479 [cm^-1]
  Rotational constants: A =   3461.24014  B =   1486.09213  C =   1342.90265 [MHz]
  Nuclear repulsion =   57.952456471312530

  Charge       = 0
  Multiplicity = 1
  Electrons    = 22
  Nalpha       = 11
  Nbeta        = 11

  ==> Algorithm <==

  SCF Algorithm Type is DF.
  DIIS enabled.
  MOM disabled.
  Fractional occupation disabled.
  Guess Type is SAD.
  Energy threshold   = 1.00e-08
  Density threshold  = 1.00e-08
  Integral threshold = 0.00e+00

  ==> Primary Basis <==

  Basis Set: DEF2-TZVPP
    Blend: DEF2-TZVPP
    Number of shells: 118
    Number of basis function: 318
    Number of Cartesian functions: 363
    Spherical Harmonics?: true
    Max angular momentum: 3

   => Loading Basis Set <=

    Name: (DEF2-TZVPP AUX)
    Role: JKFIT
    Keyword: DF_BASIS_SCF
    atoms 1-4, 11 entry C          line   202 file /home/psilocaluser/gits/hrw-direct/objdir4/stage/usr/local/psi4/share/psi4/basis/def2-tzvpp-jkfit.gbs 
    atoms 5       entry N          line   262 file /home/psilocaluser/gits/hrw-direct/objdir4/stage/usr/local/psi4/share/psi4/basis/def2-tzvpp-jkfit.gbs 
    atoms 6-10    entry H          line    22 file /home/psilocaluser/gits/hrw-direct/objdir4/stage/usr/local/psi4/share/psi4/basis/def2-tzvpp-jkfit.gbs 
    atoms 12-13   entry O          line   322 file /home/psilocaluser/gits/hrw-direct/objdir4/stage/usr/local/psi4/share/psi4/basis/def2-tzvpp-jkfit.gbs 

  ==> Pre-Iterations <==

   -------------------------------------------------------
    Irrep   Nso     Nmo     Nalpha   Nbeta   Ndocc  Nsocc
   -------------------------------------------------------
     A        318     318       0       0       0       0
   -------------------------------------------------------
    Total     318     318      11      11      11       0
   -------------------------------------------------------

  ==> Integral Setup <==

  ==> DFJK: Density-Fitted J/K Matrices <==

    J tasked:                  Yes
    K tasked:                  Yes
    wK tasked:                  No
    OpenMP threads:              1
    Integrals threads:           1
    Memory (MB):               375
    Algorithm:                Core
    Integral Cache:           NONE
    Schwarz Cutoff:          1E-12
    Fitting Condition:       1E-12

   => Auxiliary Basis Set <=

  Basis Set: (DEF2-TZVPP AUX)
    Blend: DEF2-TZVPP-JKFIT
    Number of shells: 230
    Number of basis function: 696
    Number of Cartesian functions: 824
    Spherical Harmonics?: true
    Max angular momentum: 4

  Minimum eigenvalue in the overlap matrix is 3.9157642228E-05.
  Using Symmetric Orthogonalization.

  SCF Guess: Superposition of Atomic Densities via on-the-fly atomic UHF.

  ==> Iterations <==

                           Total Energy        Delta E     RMS |[F,P]|

   @DF-RHF iter   0:  -188.03858833997194   -1.88039e+02   9.29347e-03 
   @DF-RHF iter   1:  -187.60842058047453    4.30168e-01   1.48559e-03 
   @DF-RHF iter   2:  -187.67767067538415   -6.92501e-02   9.60120e-04 DIIS
   @DF-RHF iter   3:  -187.71054002651593   -3.28694e-02   1.79304e-04 DIIS
   @DF-RHF iter   4:  -187.71355500625452   -3.01498e-03   5.49466e-05 DIIS
   @DF-RHF iter   5:  -187.71396905901915   -4.14053e-04   1.91969e-05 DIIS
   @DF-RHF iter   6:  -187.71402906297465   -6.00040e-05   4.78089e-06 DIIS
   @DF-RHF iter   7:  -187.71403091548765   -1.85251e-06   2.60293e-06 DIIS
   @DF-RHF iter   8:  -187.71403123504476   -3.19557e-07   4.39776e-07 DIIS
   @DF-RHF iter   9:  -187.71403125355025   -1.85055e-08   1.00698e-07 DIIS
   @DF-RHF iter  10:  -187.71403125444982   -8.99576e-10   2.02204e-08 DIIS
   @DF-RHF iter  11:  -187.71403125449604   -4.62137e-11   4.25528e-09 DIIS

  ==> Post-Iterations <==

    Orbital Energies (a.u.)
    -----------------------

    Doubly Occupied:                                                      

       1A    -20.652376     2A    -20.652316     3A    -11.464014  
       4A     -1.526055     5A     -1.472953     6A     -0.801077  
       7A     -0.741667     8A     -0.711999     9A     -0.711933  
      10A     -0.543984    11A     -0.543883  

    Virtual:                                                              

      12A      0.064694    13A      0.119169    14A      0.122493  
      15A      0.146621    16A      0.181768    17A      0.189637  
      18A      0.195936    19A      0.200728    20A      0.205265  
      21A      0.244557    22A      0.268992    23A      0.269029  
      24A      0.293504    25A      0.302557    26A      0.307393  
      27A      0.315705    28A      0.335802    29A      0.340637  
      30A      0.365957    31A      0.375727    32A      0.434199  
      33A      0.440085    34A      0.451957    35A      0.459157  
      36A      0.460655    37A      0.487461    38A      0.499725  
      39A      0.503463    40A      0.527602    41A      0.542507  
      42A      0.558193    43A      0.593043    44A      0.594095  
      45A      0.596328    46A      0.643753    47A      0.663379  
      48A      0.691299    49A      0.705704    50A      0.757100  
      51A      0.768219    52A      0.799928    53A      0.826664  
      54A      0.836924    55A      0.864870    56A      0.868787  
      57A      0.895712    58A      0.932424    59A      0.958212  
      60A      0.958998    61A      0.995744    62A      1.006777  
      63A      1.027557    64A      1.052304    65A      1.073093  
      66A      1.078133    67A      1.110288    68A      1.129554  
      69A      1.130050    70A      1.155498    71A      1.165557  
      72A      1.166699    73A      1.173772    74A      1.187917  
      75A      1.195141    76A      1.200286    77A      1.219112  
      78A      1.220674    79A      1.243490    80A      1.257275  
      81A      1.309621    82A      1.317983    83A      1.338619  
      84A      1.381249    85A      1.383549    86A      1.406735  
      87A      1.433317    88A      1.455085    89A      1.477440  
      90A      1.488517    91A      1.504298    92A      1.517193  
      93A      1.546846    94A      1.552844    95A      1.553999  
      96A      1.581658    97A      1.586300    98A      1.598949  
      99A      1.604449   100A      1.666793   101A      1.691534  
     102A      1.703684   103A      1.725763   104A      1.733948  
     105A      1.741370   106A      1.802872   107A      1.861723  
     108A      1.880871   109A      1.898412   110A      1.914225  
     111A      1.916586   112A      1.943140   113A      1.966760  
     114A      1.983053   115A      1.991953   116A      2.002957  
     117A      2.082840   118A      2.098580   119A      2.125520  
     120A      2.138212   121A      2.182883   122A      2.194611  
     123A      2.229693   124A      2.252878   125A      2.298032  
     126A      2.323953   127A      2.342569   128A      2.358369  
     129A      2.372562   130A      2.405035   131A      2.459764  
     132A      2.529275   133A      2.550998   134A      2.566976  
     135A      2.722364   136A      2.763630   137A      2.769267  
     138A      2.789759   139A      2.857028   140A      2.865200  
     141A      2.910191   142A      3.103478   143A      3.116793  
     144A      3.130991   145A      3.145273   146A      3.207662  
     147A      3.214852   148A      3.216325   149A      3.262565  
     150A      3.278466   151A      3.322543   152A      3.364902  
     153A      3.386825   154A      3.423376   155A      3.455791  
     156A      3.493334   157A      3.517346   158A      3.528852  
     159A      3.618424   160A      3.637506   161A      3.656247  
     162A      3.696455   163A      3.703679   164A      3.710257  
     165A      3.716066   166A      3.720715   167A      3.804617  
     168A      3.830093   169A      3.912757   170A      3.918237  
     171A      3.919989   172A      3.947146   173A      3.967597  
     174A      3.974633   175A      3.982832   176A      4.000316  
     177A      4.032633   178A      4.048402   179A      4.054149  
     180A      4.061973   181A      4.094748   182A      4.112214  
     183A      4.118395   184A      4.146484   185A      4.148617  
     186A      4.164797   187A      4.171053   188A      4.200222  
     189A      4.206853   190A      4.276070   191A      4.283446  
     192A      4.320809   193A      4.347449   194A      4.354896  
     195A      4.387433   196A      4.396121   197A      4.402135  
     198A      4.417092   199A      4.457385   200A      4.472815  
     201A      4.478248   202A      4.486146   203A      4.521026  
     204A      4.536419   205A      4.557167   206A      4.558059  
     207A      4.574663   208A      4.579972   209A      4.595371  
     210A      4.601801   211A      4.666183   212A      4.673227  
     213A      4.725629   214A      4.733172   215A      4.740469  
     216A      4.749096   217A      4.772882   218A      4.793222  
     219A      4.847401   220A      4.875460   221A      4.938432  
     222A      4.941026   223A      4.948904   224A      4.964547  
     225A      5.033218   226A      5.079481   227A      5.092262  
     228A      5.097682   229A      5.151211   230A      5.152384  
     231A      5.207633   232A      5.217837   233A      5.270147  
     234A      5.298264   235A      5.340771   236A      5.373799  
     237A      5.411370   238A      5.430668   239A      5.438791  
     240A      5.491894   241A      5.509371   242A      5.511109  
     243A      5.572391   244A      5.572451   245A      5.630654  
     246A      5.633101   247A      5.649141   248A      5.664560  
     249A      5.676470   250A      5.686719   251A      5.894936  
     252A      5.969941   253A      5.991973   254A      6.025116  
     255A      6.055655   256A      6.130553   257A      6.144192  
     258A      6.215780   259A      6.232184   260A      6.233005  
     261A      6.306964   262A      6.333740   263A      6.401104  
     264A      6.465505   265A      6.467584   266A      6.568198  
     267A      6.575709   268A      6.575860   269A      6.616858  
     270A      6.631932   271A      6.667652   272A      6.790360  
     273A      6.799010   274A      6.799306   275A      6.828989  
     276A      6.839969   277A      6.972444   278A      7.008477  
     279A      7.013079   280A      7.104023   281A      7.149314  
     282A      7.174862   283A      7.218739   284A      7.225576  
     285A      7.287256   286A      7.315556   287A      7.366371  
     288A      7.446000   289A      7.460183   290A      7.502248  
     291A      7.514070   292A      7.537380   293A      7.617814  
     294A      7.772357   295A      7.882464   296A      7.897419  
     297A      7.902093   298A      7.996760   299A      8.093240  
     300A      8.279121   301A      8.283080   302A      8.410913  
     303A      8.885471   304A      9.439447   305A      9.471595  
     306A     10.871472   307A     11.169200   308A     11.209843  
     309A     11.469478   310A     14.941553   311A     24.968109  
     312A     45.473739   313A     45.659577   314A     66.445926  
     315A     66.892368   316A     67.001492   317A     67.432110  
     318A     94.652856  

    Final Occupation by Irrep:
              A 
    DOCC [    11 ]

  Energy converged.

  @DF-RHF Final Energy:  -187.71403125449604

   => Energetics <=

    Nuclear Repulsion Energy =             57.9524564713125301
    One-Electron Energy =                -371.6884590707494453
    Two-Electron Energy =                 126.0219713449408800
    DFT Exchange-Correlation Energy =       0.0000000000000000
    Empirical Dispersion Energy =           0.0000000000000000
    PCM Polarization Energy =               0.0000000000000000
    EFP Energy =                            0.0000000000000000
    Total Energy =                       -187.7140312544960352



Properties will be evaluated at   0.000000,   0.000000,   0.000000 Bohr

Properties computed using the SCF density matrix

  Nuclear Dipole Moment: (a.u.)
     X:    10.0474      Y:    -3.5845      Z:    80.3058

  Electronic Dipole Moment: (a.u.)
     X:   -10.0430      Y:     3.5839      Z:   -80.3221

  Dipole Moment: (a.u.)
     X:     0.0043      Y:    -0.0006      Z:    -0.0163     Total:     0.0169

  Dipole Moment: (Debye)
     X:     0.0110      Y:    -0.0016      Z:    -0.0414     Total:     0.0429


*** tstop() called on psinet at Mon May 15 15:37:34 2017
Module time:
	user time   =      16.57 seconds =       0.28 minutes
	system time =       0.22 seconds =       0.00 minutes
	total time  =         17 seconds =       0.28 minutes
Total time:
	user time   =      16.57 seconds =       0.28 minutes
	system time =       0.22 seconds =       0.00 minutes
	total time  =         17 seconds =       0.28 minutes

*** tstart() called on psinet
*** at Mon May 15 15:37:34 2017


  //>>>>>>>>>>>>>>>>>>>>>>>>>>>>>>>>>>>//
  //               DFMP2               //
  //<<<<<<<<<<<<<<<<<<<<<<<<<<<<<<<<<<<//

   => Loading Basis Set <=

    Name: (DEF2-TZVPP AUX)
    Role: RIFIT
    Keyword: DF_BASIS_MP2
    atoms 1-4, 11 entry C          line   190 file /home/psilocaluser/gits/hrw-direct/objdir4/stage/usr/local/psi4/share/psi4/basis/def2-tzvpp-ri.gbs 
    atoms 5       entry N          line   237 file /home/psilocaluser/gits/hrw-direct/objdir4/stage/usr/local/psi4/share/psi4/basis/def2-tzvpp-ri.gbs 
    atoms 6-10    entry H          line    21 file /home/psilocaluser/gits/hrw-direct/objdir4/stage/usr/local/psi4/share/psi4/basis/def2-tzvpp-ri.gbs 
    atoms 12-13   entry O          line   284 file /home/psilocaluser/gits/hrw-direct/objdir4/stage/usr/local/psi4/share/psi4/basis/def2-tzvpp-ri.gbs 

	 --------------------------------------------------------
	                          DF-MP2                         
	      2nd-Order Density-Fitted Moller-Plesset Theory     
	              RMP2 Wavefunction,   1 Threads             
	                                                         
	        Rob Parrish, Justin Turney, Andy Simmonett,      
	           Ed Hohenstein, and C. David Sherrill          
	 --------------------------------------------------------

   => Auxiliary Basis Set <=

  Basis Set: (DEF2-TZVPP AUX)
    Blend: DEF2-TZVPP-RI
    Number of shells: 226
    Number of basis function: 758
    Number of Cartesian functions: 935
    Spherical Harmonics?: true
    Max angular momentum: 4

	 --------------------------------------------------------
	                 NBF =   318, NAUX =   758
	 --------------------------------------------------------
	   CLASS    FOCC     OCC    AOCC    AVIR     VIR    FVIR
	   PAIRS       0      11      11     307     307       0
	 --------------------------------------------------------

	-----------------------------------------------------------
	 ==================> DF-MP2 Energies <==================== 
	-----------------------------------------------------------
	 Reference Energy          =    -187.7140312544960352 [Eh]
	 Singles Energy            =      -0.0000000000002953 [Eh]
	 Same-Spin Energy          =      -0.1678651991795587 [Eh]
	 Opposite-Spin Energy      =      -0.4896580691987990 [Eh]
	 Correlation Energy        =      -0.6575232683786530 [Eh]
	 Total Energy              =    -188.3715545228746748 [Eh]
	-----------------------------------------------------------
	 ================> DF-SCS-MP2 Energies <================== 
	-----------------------------------------------------------
	 SCS Same-Spin Scale       =       0.3333333333333333 [-]
	 SCS Opposite-Spin Scale   =       1.2000000000000000 [-]
	 SCS Same-Spin Energy      =      -0.0559550663931862 [Eh]
	 SCS Opposite-Spin Energy  =      -0.5875896830385587 [Eh]
	 SCS Correlation Energy    =      -0.6435447494320403 [Eh]
	 SCS Total Energy          =    -188.3575760039280738 [Eh]
	-----------------------------------------------------------


*** tstop() called on psinet at Mon May 15 15:37:39 2017
Module time:
	user time   =       4.92 seconds =       0.08 minutes
	system time =       0.15 seconds =       0.00 minutes
	total time  =          5 seconds =       0.08 minutes
Total time:
	user time   =      21.49 seconds =       0.36 minutes
	system time =       0.37 seconds =       0.01 minutes
	total time  =         22 seconds =       0.37 minutes

       N-Body: Complex Energy (fragments = (2,), basis = (1, 2):  -188.37155452287467)

       N-Body: Computing complex (2/2) with fragments (1,) in the basis of fragments (1, 2).

    SCF Algorithm Type (re)set to DF.

*** tstart() called on psinet
*** at Mon May 15 15:37:39 2017

   => Loading Basis Set <=

    Name: DEF2-TZVPP
    Role: ORBITAL
    Keyword: BASIS
    atoms 1-4, 11 entry C          line   132 file /home/psilocaluser/gits/hrw-direct/objdir4/stage/usr/local/psi4/share/psi4/basis/def2-tzvpp.gbs 
    atoms 5       entry N          line   165 file /home/psilocaluser/gits/hrw-direct/objdir4/stage/usr/local/psi4/share/psi4/basis/def2-tzvpp.gbs 
    atoms 6-10    entry H          line    14 file /home/psilocaluser/gits/hrw-direct/objdir4/stage/usr/local/psi4/share/psi4/basis/def2-tzvpp.gbs 
    atoms 12-13   entry O          line   198 file /home/psilocaluser/gits/hrw-direct/objdir4/stage/usr/local/psi4/share/psi4/basis/def2-tzvpp.gbs 


         ---------------------------------------------------------
                                   SCF
            by Justin Turney, Rob Parrish, and Andy Simmonett
                              RHF Reference
                        1 Threads,    500 MiB Core
         ---------------------------------------------------------

  ==> Geometry <==

    Molecular point group: c1
    Full point group: C1

    Geometry (in Angstrom), charge = 0, multiplicity = 1:

       Center              X                  Y                   Z               Mass       
    ------------   -----------------  -----------------  -----------------  -----------------
           C         -0.692324098017    -0.983632939731    -1.322470992051    12.000000000000
           C          0.674302001983    -0.821997839731    -1.185732592051    12.000000000000
           C          0.934796601983     0.570697560269    -1.156052092051    12.000000000000
           C         -0.279987098017     1.220643060269    -1.275475292051    12.000000000000
           N         -1.249781298017     0.263123560269    -1.380785892051    14.003074004780
           H         -2.234844598017     0.448799360269    -1.439768392051     1.007825032070
           H         -1.298300998017    -1.869742339731    -1.385972892051     1.007825032070
           H          1.396577001983    -1.617269339731    -1.122088692051     1.007825032070
           H          1.894965901983     1.048174960269    -1.065281392051     1.007825032070
           H         -0.524299798017     2.267648460269    -1.297809092051     1.007825032070
           C(Gh)      0.243441301983    -0.086372939731     1.918771307949    12.000000000000
           O(Gh)     -0.897022198017     0.132396560269     1.784942407949    15.994914619560
           O(Gh)      1.379046101983    -0.304724139731     2.087980207949    15.994914619560

  Running in c1 symmetry.

  Rotational constants: A =      0.11545  B =      0.04957  C =      0.04479 [cm^-1]
  Rotational constants: A =   3461.24014  B =   1486.09213  C =   1342.90265 [MHz]
  Nuclear repulsion =  161.172676578015256

  Charge       = 0
  Multiplicity = 1
  Electrons    = 36
  Nalpha       = 18
  Nbeta        = 18

  ==> Algorithm <==

  SCF Algorithm Type is DF.
  DIIS enabled.
  MOM disabled.
  Fractional occupation disabled.
  Guess Type is SAD.
  Energy threshold   = 1.00e-08
  Density threshold  = 1.00e-08
  Integral threshold = 0.00e+00

  ==> Primary Basis <==

  Basis Set: DEF2-TZVPP
    Blend: DEF2-TZVPP
    Number of shells: 118
    Number of basis function: 318
    Number of Cartesian functions: 363
    Spherical Harmonics?: true
    Max angular momentum: 3

   => Loading Basis Set <=

    Name: (DEF2-TZVPP AUX)
    Role: JKFIT
    Keyword: DF_BASIS_SCF
    atoms 1-4, 11 entry C          line   202 file /home/psilocaluser/gits/hrw-direct/objdir4/stage/usr/local/psi4/share/psi4/basis/def2-tzvpp-jkfit.gbs 
    atoms 5       entry N          line   262 file /home/psilocaluser/gits/hrw-direct/objdir4/stage/usr/local/psi4/share/psi4/basis/def2-tzvpp-jkfit.gbs 
    atoms 6-10    entry H          line    22 file /home/psilocaluser/gits/hrw-direct/objdir4/stage/usr/local/psi4/share/psi4/basis/def2-tzvpp-jkfit.gbs 
    atoms 12-13   entry O          line   322 file /home/psilocaluser/gits/hrw-direct/objdir4/stage/usr/local/psi4/share/psi4/basis/def2-tzvpp-jkfit.gbs 

  ==> Pre-Iterations <==

   -------------------------------------------------------
    Irrep   Nso     Nmo     Nalpha   Nbeta   Ndocc  Nsocc
   -------------------------------------------------------
     A        318     318       0       0       0       0
   -------------------------------------------------------
    Total     318     318      18      18      18       0
   -------------------------------------------------------

  ==> Integral Setup <==

  ==> DFJK: Density-Fitted J/K Matrices <==

    J tasked:                  Yes
    K tasked:                  Yes
    wK tasked:                  No
    OpenMP threads:              1
    Integrals threads:           1
    Memory (MB):               375
    Algorithm:                Core
    Integral Cache:           NONE
    Schwarz Cutoff:          1E-12
    Fitting Condition:       1E-12

   => Auxiliary Basis Set <=

  Basis Set: (DEF2-TZVPP AUX)
    Blend: DEF2-TZVPP-JKFIT
    Number of shells: 230
    Number of basis function: 696
    Number of Cartesian functions: 824
    Spherical Harmonics?: true
    Max angular momentum: 4

  Minimum eigenvalue in the overlap matrix is 3.9157642228E-05.
  Using Symmetric Orthogonalization.

  SCF Guess: Superposition of Atomic Densities via on-the-fly atomic UHF.

  ==> Iterations <==

                           Total Energy        Delta E     RMS |[F,P]|

   @DF-RHF iter   0:  -210.75033901460628   -2.10750e+02   1.35834e-02 
   @DF-RHF iter   1:  -208.76569228316825    1.98465e+00   1.30264e-03 
   @DF-RHF iter   2:  -208.86784760623073   -1.02155e-01   5.98152e-04 DIIS
   @DF-RHF iter   3:  -208.88637053577216   -1.85229e-02   2.29830e-04 DIIS
   @DF-RHF iter   4:  -208.89037305197616   -4.00252e-03   5.99613e-05 DIIS
   @DF-RHF iter   5:  -208.89062436769126   -2.51316e-04   2.00428e-05 DIIS
   @DF-RHF iter   6:  -208.89068514535157   -6.07777e-05   8.48984e-06 DIIS
   @DF-RHF iter   7:  -208.89069768751179   -1.25422e-05   2.17079e-06 DIIS
   @DF-RHF iter   8:  -208.89069877750393   -1.08999e-06   1.02008e-06 DIIS
   @DF-RHF iter   9:  -208.89069894194674   -1.64443e-07   2.96219e-07 DIIS
   @DF-RHF iter  10:  -208.89069895874186   -1.67951e-08   9.97551e-08 DIIS
   @DF-RHF iter  11:  -208.89069895993970   -1.19783e-09   3.77200e-08 DIIS
   @DF-RHF iter  12:  -208.89069896009352   -1.53818e-10   9.40110e-09 DIIS

  ==> Post-Iterations <==

    Orbital Energies (a.u.)
    -----------------------

    Doubly Occupied:                                                      

       1A    -15.604486     2A    -11.249449     3A    -11.249402  
       4A    -11.207278     5A    -11.206208     6A     -1.291594  
       7A     -1.040167     8A     -0.974867     9A     -0.792790  
      10A     -0.766525    11A     -0.735756    12A     -0.591433  
      13A     -0.583400    14A     -0.567347    15A     -0.544959  
      16A     -0.527821    17A     -0.346403    18A     -0.295210  

    Virtual:                                                              

      19A      0.114996    20A      0.134906    21A      0.161815  
      22A      0.179364    23A      0.187750    24A      0.197893  
      25A      0.204636    26A      0.216079    27A      0.216330  
      28A      0.248785    29A      0.251551    30A      0.285810  
      31A      0.301799    32A      0.320825    33A      0.336742  
      34A      0.344296    35A      0.381468    36A      0.388813  
      37A      0.411041    38A      0.421832    39A      0.422116  
      40A      0.449713    41A      0.476797    42A      0.500968  
      43A      0.515779    44A      0.516074    45A      0.540213  
      46A      0.545779    47A      0.561033    48A      0.562848  
      49A      0.572267    50A      0.576701    51A      0.585950  
      52A      0.589723    53A      0.599087    54A      0.616484  
      55A      0.627401    56A      0.627623    57A      0.632502  
      58A      0.660354    59A      0.684131    60A      0.733347  
      61A      0.765268    62A      0.779224    63A      0.807265  
      64A      0.807464    65A      0.832930    66A      0.845651  
      67A      0.884589    68A      0.896019    69A      0.908200  
      70A      0.929700    71A      0.945429    72A      0.980235  
      73A      0.982384    74A      1.021486    75A      1.069028  
      76A      1.125463    77A      1.143479    78A      1.151049  
      79A      1.155338    80A      1.172868    81A      1.209861  
      82A      1.220215    83A      1.223629    84A      1.251402  
      85A      1.262878    86A      1.300674    87A      1.302764  
      88A      1.319910    89A      1.329545    90A      1.352446  
      91A      1.353372    92A      1.363571    93A      1.402425  
      94A      1.406245    95A      1.417242    96A      1.430610  
      97A      1.443979    98A      1.488576    99A      1.501335  
     100A      1.514344   101A      1.531607   102A      1.550427  
     103A      1.570891   104A      1.617474   105A      1.651294  
     106A      1.680332   107A      1.682829   108A      1.705183  
     109A      1.730165   110A      1.781560   111A      1.809706  
     112A      1.830989   113A      1.850375   114A      1.859681  
     115A      1.880243   116A      1.885482   117A      1.923546  
     118A      1.935490   119A      1.954160   120A      1.960563  
     121A      1.968655   122A      2.015935   123A      2.019410  
     124A      2.042760   125A      2.055968   126A      2.074803  
     127A      2.085651   128A      2.171296   129A      2.175598  
     130A      2.198035   131A      2.198199   132A      2.247987  
     133A      2.276726   134A      2.285145   135A      2.331631  
     136A      2.404673   137A      2.449624   138A      2.463868  
     139A      2.524379   140A      2.531556   141A      2.579239  
     142A      2.581125   143A      2.644838   144A      2.700467  
     145A      2.710185   146A      2.755096   147A      2.807159  
     148A      2.820755   149A      2.882865   150A      2.908880  
     151A      2.929144   152A      2.933066   153A      2.943941  
     154A      2.970792   155A      3.000704   156A      3.011402  
     157A      3.060029   158A      3.082146   159A      3.132490  
     160A      3.156659   161A      3.180392   162A      3.194151  
     163A      3.198924   164A      3.199439   165A      3.226130  
     166A      3.287920   167A      3.301100   168A      3.335428  
     169A      3.345219   170A      3.365556   171A      3.373911  
     172A      3.386452   173A      3.417408   174A      3.423209  
     175A      3.437535   176A      3.468064   177A      3.474642  
     178A      3.477327   179A      3.496278   180A      3.513685  
     181A      3.530654   182A      3.562452   183A      3.563977  
     184A      3.608262   185A      3.615693   186A      3.625843  
     187A      3.643459   188A      3.658130   189A      3.672939  
     190A      3.739523   191A      3.794431   192A      3.813441  
     193A      3.863748   194A      3.868930   195A      3.881892  
     196A      3.894155   197A      3.897865   198A      3.913048  
     199A      3.913855   200A      3.939822   201A      3.983872  
     202A      4.024575   203A      4.054037   204A      4.065317  
     205A      4.100185   206A      4.113177   207A      4.117233  
     208A      4.139888   209A      4.156330   210A      4.175129  
     211A      4.199924   212A      4.224988   213A      4.254726  
     214A      4.256110   215A      4.280799   216A      4.324588  
     217A      4.430689   218A      4.446731   219A      4.478730  
     220A      4.494539   221A      4.517862   222A      4.542264  
     223A      4.584614   224A      4.599841   225A      4.600799  
     226A      4.625475   227A      4.641171   228A      4.649974  
     229A      4.661788   230A      4.664957   231A      4.706407  
     232A      4.713132   233A      4.762779   234A      4.764934  
     235A      4.769556   236A      4.774601   237A      4.843354  
     238A      4.849845   239A      4.895481   240A      4.961241  
     241A      4.969033   242A      5.036639   243A      5.066531  
     244A      5.076339   245A      5.105259   246A      5.112565  
     247A      5.153307   248A      5.177960   249A      5.250605  
     250A      5.313339   251A      5.331215   252A      5.332446  
     253A      5.362249   254A      5.480651   255A      5.499443  
     256A      5.522953   257A      5.568075   258A      5.651941  
     259A      5.674934   260A      5.675627   261A      5.680380  
     262A      5.729312   263A      5.825835   264A      5.866168  
     265A      5.876590   266A      5.953512   267A      5.994892  
     268A      6.026020   269A      6.051121   270A      6.155164  
     271A      6.192536   272A      6.359819   273A      6.405754  
     274A      6.447883   275A      6.455222   276A      6.511112  
     277A      6.512472   278A      6.638875   279A      6.662048  
     280A      6.663756   281A      6.741930   282A      7.249053  
     283A      7.297910   284A      7.317932   285A      7.317947  
     286A      7.814067   287A      7.901717   288A      7.916114  
     289A      8.281723   290A      8.328564   291A      8.772221  
     292A      9.026993   293A      9.060763   294A      9.105832  
     295A      9.136677   296A      9.453035   297A      9.456073  
     298A      9.502145   299A      9.511062   300A      9.669500  
     301A      9.684584   302A      9.830541   303A      9.848466  
     304A     10.251447   305A     10.265514   306A     10.623202  
     307A     12.111834   308A     13.252057   309A     19.482533  
     310A     19.615736   311A     23.962304   312A     24.381927  
     313A     24.492093   314A     24.889555   315A     34.219396  
     316A     67.657926   317A    126.840505   318A    127.050605  

    Final Occupation by Irrep:
              A 
    DOCC [    18 ]

  Energy converged.

  @DF-RHF Final Energy:  -208.89069896009352

   => Energetics <=

    Nuclear Repulsion Energy =            161.1726765780152562
    One-Electron Energy =                -600.9765627481740466
    Two-Electron Energy =                 230.9131872100652458
    DFT Exchange-Correlation Energy =       0.0000000000000000
    Empirical Dispersion Energy =           0.0000000000000000
    PCM Polarization Energy =               0.0000000000000000
    EFP Energy =                            0.0000000000000000
    Total Energy =                       -208.8906989600935162



Properties will be evaluated at   0.000000,   0.000000,   0.000000 Bohr

Properties computed using the SCF density matrix

  Nuclear Dipole Moment: (a.u.)
     X:   -10.7594      Y:     3.8432      Z:   -86.1995

  Electronic Dipole Moment: (a.u.)
     X:    10.0129      Y:    -3.7021      Z:    86.1373

  Dipole Moment: (a.u.)
     X:    -0.7466      Y:     0.1411      Z:    -0.0622     Total:     0.7623

  Dipole Moment: (Debye)
     X:    -1.8975      Y:     0.3586      Z:    -0.1581     Total:     1.9376


*** tstop() called on psinet at Mon May 15 15:37:57 2017
Module time:
	user time   =      18.19 seconds =       0.30 minutes
	system time =       0.19 seconds =       0.00 minutes
	total time  =         18 seconds =       0.30 minutes
Total time:
	user time   =      39.69 seconds =       0.66 minutes
	system time =       0.57 seconds =       0.01 minutes
	total time  =         40 seconds =       0.67 minutes

*** tstart() called on psinet
*** at Mon May 15 15:37:57 2017


  //>>>>>>>>>>>>>>>>>>>>>>>>>>>>>>>>>>>//
  //               DFMP2               //
  //<<<<<<<<<<<<<<<<<<<<<<<<<<<<<<<<<<<//

   => Loading Basis Set <=

    Name: (DEF2-TZVPP AUX)
    Role: RIFIT
    Keyword: DF_BASIS_MP2
    atoms 1-4, 11 entry C          line   190 file /home/psilocaluser/gits/hrw-direct/objdir4/stage/usr/local/psi4/share/psi4/basis/def2-tzvpp-ri.gbs 
    atoms 5       entry N          line   237 file /home/psilocaluser/gits/hrw-direct/objdir4/stage/usr/local/psi4/share/psi4/basis/def2-tzvpp-ri.gbs 
    atoms 6-10    entry H          line    21 file /home/psilocaluser/gits/hrw-direct/objdir4/stage/usr/local/psi4/share/psi4/basis/def2-tzvpp-ri.gbs 
    atoms 12-13   entry O          line   284 file /home/psilocaluser/gits/hrw-direct/objdir4/stage/usr/local/psi4/share/psi4/basis/def2-tzvpp-ri.gbs 

	 --------------------------------------------------------
	                          DF-MP2                         
	      2nd-Order Density-Fitted Moller-Plesset Theory     
	              RMP2 Wavefunction,   1 Threads             
	                                                         
	        Rob Parrish, Justin Turney, Andy Simmonett,      
	           Ed Hohenstein, and C. David Sherrill          
	 --------------------------------------------------------

   => Auxiliary Basis Set <=

  Basis Set: (DEF2-TZVPP AUX)
    Blend: DEF2-TZVPP-RI
    Number of shells: 226
    Number of basis function: 758
    Number of Cartesian functions: 935
    Spherical Harmonics?: true
    Max angular momentum: 4

	 --------------------------------------------------------
	                 NBF =   318, NAUX =   758
	 --------------------------------------------------------
	   CLASS    FOCC     OCC    AOCC    AVIR     VIR    FVIR
	   PAIRS       0      18      18     300     300       0
	 --------------------------------------------------------

	-----------------------------------------------------------
	 ==================> DF-MP2 Energies <==================== 
	-----------------------------------------------------------
	 Reference Energy          =    -208.8906989600935162 [Eh]
	 Singles Energy            =      -0.0000000000027901 [Eh]
	 Same-Spin Energy          =      -0.2243845638527908 [Eh]
	 Opposite-Spin Energy      =      -0.7162297036605293 [Eh]
	 Correlation Energy        =      -0.9406142675161102 [Eh]
	 Total Energy              =    -209.8313132276096269 [Eh]
	-----------------------------------------------------------
	 ================> DF-SCS-MP2 Energies <================== 
	-----------------------------------------------------------
	 SCS Same-Spin Scale       =       0.3333333333333333 [-]
	 SCS Opposite-Spin Scale   =       1.2000000000000000 [-]
	 SCS Same-Spin Energy      =      -0.0747948546175969 [Eh]
	 SCS Opposite-Spin Energy  =      -0.8594756443926351 [Eh]
	 SCS Correlation Energy    =      -0.9342704990130222 [Eh]
	 SCS Total Energy          =    -209.8249694591065406 [Eh]
	-----------------------------------------------------------


*** tstop() called on psinet at Mon May 15 15:38:03 2017
Module time:
	user time   =       5.59 seconds =       0.09 minutes
	system time =       0.18 seconds =       0.00 minutes
	total time  =          6 seconds =       0.10 minutes
Total time:
	user time   =      45.28 seconds =       0.75 minutes
	system time =       0.75 seconds =       0.01 minutes
	total time  =         46 seconds =       0.77 minutes

       N-Body: Complex Energy (fragments = (1,), basis = (1, 2):  -209.83131322760963)

   ==> N-Body: Now computing 2-body complexes <==


       N-Body: Computing complex (1/1) with fragments (1, 2) in the basis of fragments (1, 2).

    SCF Algorithm Type (re)set to DF.

*** tstart() called on psinet
*** at Mon May 15 15:38:03 2017

   => Loading Basis Set <=

    Name: DEF2-TZVPP
    Role: ORBITAL
    Keyword: BASIS
    atoms 1-4, 11 entry C          line   132 file /home/psilocaluser/gits/hrw-direct/objdir4/stage/usr/local/psi4/share/psi4/basis/def2-tzvpp.gbs 
    atoms 5       entry N          line   165 file /home/psilocaluser/gits/hrw-direct/objdir4/stage/usr/local/psi4/share/psi4/basis/def2-tzvpp.gbs 
    atoms 6-10    entry H          line    14 file /home/psilocaluser/gits/hrw-direct/objdir4/stage/usr/local/psi4/share/psi4/basis/def2-tzvpp.gbs 
    atoms 12-13   entry O          line   198 file /home/psilocaluser/gits/hrw-direct/objdir4/stage/usr/local/psi4/share/psi4/basis/def2-tzvpp.gbs 


         ---------------------------------------------------------
                                   SCF
            by Justin Turney, Rob Parrish, and Andy Simmonett
                              RHF Reference
                        1 Threads,    500 MiB Core
         ---------------------------------------------------------

  ==> Geometry <==

    Molecular point group: c1
    Full point group: C1

    Geometry (in Angstrom), charge = 0, multiplicity = 1:

       Center              X                  Y                   Z               Mass       
    ------------   -----------------  -----------------  -----------------  -----------------
           C         -0.692324098017    -0.983632939731    -1.322470992051    12.000000000000
           C          0.674302001983    -0.821997839731    -1.185732592051    12.000000000000
           C          0.934796601983     0.570697560269    -1.156052092051    12.000000000000
           C         -0.279987098017     1.220643060269    -1.275475292051    12.000000000000
           N         -1.249781298017     0.263123560269    -1.380785892051    14.003074004780
           H         -2.234844598017     0.448799360269    -1.439768392051     1.007825032070
           H         -1.298300998017    -1.869742339731    -1.385972892051     1.007825032070
           H          1.396577001983    -1.617269339731    -1.122088692051     1.007825032070
           H          1.894965901983     1.048174960269    -1.065281392051     1.007825032070
           H         -0.524299798017     2.267648460269    -1.297809092051     1.007825032070
           C          0.243441301983    -0.086372939731     1.918771307949    12.000000000000
           O         -0.897022198017     0.132396560269     1.784942407949    15.994914619560
           O          1.379046101983    -0.304724139731     2.087980207949    15.994914619560

  Running in c1 symmetry.

  Rotational constants: A =      0.11545  B =      0.04957  C =      0.04479 [cm^-1]
  Rotational constants: A =   3461.24014  B =   1486.09213  C =   1342.90265 [MHz]
  Nuclear repulsion =  336.168591491027257

  Charge       = 0
  Multiplicity = 1
  Electrons    = 58
  Nalpha       = 29
  Nbeta        = 29

  ==> Algorithm <==

  SCF Algorithm Type is DF.
  DIIS enabled.
  MOM disabled.
  Fractional occupation disabled.
  Guess Type is SAD.
  Energy threshold   = 1.00e-08
  Density threshold  = 1.00e-08
  Integral threshold = 0.00e+00

  ==> Primary Basis <==

  Basis Set: DEF2-TZVPP
    Blend: DEF2-TZVPP
    Number of shells: 118
    Number of basis function: 318
    Number of Cartesian functions: 363
    Spherical Harmonics?: true
    Max angular momentum: 3

   => Loading Basis Set <=

    Name: (DEF2-TZVPP AUX)
    Role: JKFIT
    Keyword: DF_BASIS_SCF
    atoms 1-4, 11 entry C          line   202 file /home/psilocaluser/gits/hrw-direct/objdir4/stage/usr/local/psi4/share/psi4/basis/def2-tzvpp-jkfit.gbs 
    atoms 5       entry N          line   262 file /home/psilocaluser/gits/hrw-direct/objdir4/stage/usr/local/psi4/share/psi4/basis/def2-tzvpp-jkfit.gbs 
    atoms 6-10    entry H          line    22 file /home/psilocaluser/gits/hrw-direct/objdir4/stage/usr/local/psi4/share/psi4/basis/def2-tzvpp-jkfit.gbs 
    atoms 12-13   entry O          line   322 file /home/psilocaluser/gits/hrw-direct/objdir4/stage/usr/local/psi4/share/psi4/basis/def2-tzvpp-jkfit.gbs 

  ==> Pre-Iterations <==

   -------------------------------------------------------
    Irrep   Nso     Nmo     Nalpha   Nbeta   Ndocc  Nsocc
   -------------------------------------------------------
     A        318     318       0       0       0       0
   -------------------------------------------------------
    Total     318     318      29      29      29       0
   -------------------------------------------------------

  ==> Integral Setup <==

  ==> DFJK: Density-Fitted J/K Matrices <==

    J tasked:                  Yes
    K tasked:                  Yes
    wK tasked:                  No
    OpenMP threads:              1
    Integrals threads:           1
    Memory (MB):               375
    Algorithm:                Core
    Integral Cache:           NONE
    Schwarz Cutoff:          1E-12
    Fitting Condition:       1E-12

   => Auxiliary Basis Set <=

  Basis Set: (DEF2-TZVPP AUX)
    Blend: DEF2-TZVPP-JKFIT
    Number of shells: 230
    Number of basis function: 696
    Number of Cartesian functions: 824
    Spherical Harmonics?: true
    Max angular momentum: 4

  Minimum eigenvalue in the overlap matrix is 3.9157642228E-05.
  Using Symmetric Orthogonalization.

  SCF Guess: Superposition of Atomic Densities via on-the-fly atomic UHF.

  ==> Iterations <==

                           Total Energy        Delta E     RMS |[F,P]|

   @DF-RHF iter   0:  -399.43855625311346   -3.99439e+02   1.69080e-02 
   @DF-RHF iter   1:  -396.39945774993703    3.03910e+00   1.82130e-03 
   @DF-RHF iter   2:  -396.55733647946158   -1.57879e-01   1.01686e-03 DIIS
   @DF-RHF iter   3:  -396.59798316491060   -4.06467e-02   2.68653e-04 DIIS
   @DF-RHF iter   4:  -396.60358562049004   -5.60246e-03   8.44160e-05 DIIS
   @DF-RHF iter   5:  -396.60416151044427   -5.75890e-04   2.95277e-05 DIIS
   @DF-RHF iter   6:  -396.60426535385113   -1.03843e-04   1.55981e-05 DIIS
   @DF-RHF iter   7:  -396.60428799216959   -2.26383e-05   5.02460e-06 DIIS
   @DF-RHF iter   8:  -396.60429141733277   -3.42516e-06   2.02342e-06 DIIS
   @DF-RHF iter   9:  -396.60429196131514   -5.43982e-07   6.68145e-07 DIIS
   @DF-RHF iter  10:  -396.60429204686648   -8.55513e-08   1.80028e-07 DIIS
   @DF-RHF iter  11:  -396.60429205355490   -6.68842e-09   7.63894e-08 DIIS
   @DF-RHF iter  12:  -396.60429205434798   -7.93079e-10   2.44161e-08 DIIS
   @DF-RHF iter  13:  -396.60429205445342   -1.05445e-10   9.49848e-09 DIIS

  ==> Post-Iterations <==

    Orbital Energies (a.u.)
    -----------------------

    Doubly Occupied:                                                      

       1A    -20.631834     2A    -20.631716     3A    -15.607652  
       4A    -11.445430     5A    -11.254733     6A    -11.254687  
       7A    -11.211997     8A    -11.210928     9A     -1.506473  
      10A     -1.453565    11A     -1.295934    12A     -1.045713  
      13A     -0.980078    14A     -0.797081    15A     -0.783029  
      16A     -0.771414    17A     -0.740555    18A     -0.723912  
      19A     -0.694254    20A     -0.692924    21A     -0.596020  
      22A     -0.587881    23A     -0.571408    24A     -0.549928  
      25A     -0.533014    26A     -0.525356    27A     -0.524280  
      28A     -0.352695    29A     -0.301448  

    Virtual:                                                              

      30A      0.130297    31A      0.157088    32A      0.166473  
      33A      0.184695    34A      0.185837    35A      0.200880  
      36A      0.201166    37A      0.206122    38A      0.219361  
      39A      0.222674    40A      0.271605    41A      0.284617  
      42A      0.296227    43A      0.311200    44A      0.312752  
      45A      0.333326    46A      0.347962    47A      0.364278  
      48A      0.385147    49A      0.406289    50A      0.422750  
      51A      0.452410    52A      0.457321    53A      0.489708  
      54A      0.498272    55A      0.506109    56A      0.510820  
      57A      0.527691    58A      0.540282    59A      0.550611  
      60A      0.554969    61A      0.571085    62A      0.577982  
      63A      0.586993    64A      0.590172    65A      0.594731  
      66A      0.632858    67A      0.644659    68A      0.665917  
      69A      0.678050    70A      0.683541    71A      0.758469  
      72A      0.768764    73A      0.780886    74A      0.785066  
      75A      0.796235    76A      0.830496    77A      0.831699  
      78A      0.853756    79A      0.860943    80A      0.875396  
      81A      0.921305    82A      0.935350    83A      0.956345  
      84A      0.982040    85A      0.994534    86A      0.998316  
      87A      1.032327    88A      1.080711    89A      1.123259  
      90A      1.146288    91A      1.148737    92A      1.166243  
      93A      1.191057    94A      1.205899    95A      1.217188  
      96A      1.220251    97A      1.252679    98A      1.259723  
      99A      1.271397   100A      1.279725   101A      1.300906  
     102A      1.326359   103A      1.346272   104A      1.378912  
     105A      1.382384   106A      1.401026   107A      1.414679  
     108A      1.453682   109A      1.492709   110A      1.504248  
     111A      1.518883   112A      1.519612   113A      1.537365  
     114A      1.560821   115A      1.573970   116A      1.620466  
     117A      1.621180   118A      1.648358   119A      1.677164  
     120A      1.681628   121A      1.695649   122A      1.709683  
     123A      1.759851   124A      1.807064   125A      1.812382  
     126A      1.826914   127A      1.847500   128A      1.856402  
     129A      1.868559   130A      1.878559   131A      1.912493  
     132A      1.934663   133A      1.939617   134A      1.963381  
     135A      1.987751   136A      1.993994   137A      2.017215  
     138A      2.043909   139A      2.086861   140A      2.145710  
     141A      2.164332   142A      2.185273   143A      2.198707  
     144A      2.212032   145A      2.232182   146A      2.274776  
     147A      2.340996   148A      2.391732   149A      2.417065  
     150A      2.517254   151A      2.518627   152A      2.563605  
     153A      2.566094   154A      2.576312   155A      2.716907  
     156A      2.744350   157A      2.796794   158A      2.812050  
     159A      2.847572   160A      2.879142   161A      2.898255  
     162A      2.900734   163A      2.922174   164A      2.927032  
     165A      2.967396   166A      2.978207   167A      3.004318  
     168A      3.054104   169A      3.068877   170A      3.109035  
     171A      3.119017   172A      3.129012   173A      3.143274  
     174A      3.156589   175A      3.157902   176A      3.175687  
     177A      3.191517   178A      3.232971   179A      3.233856  
     180A      3.237114   181A      3.242293   182A      3.256116  
     183A      3.286559   184A      3.297639   185A      3.337768  
     186A      3.339689   187A      3.378369   188A      3.390301  
     189A      3.408800   190A      3.410538   191A      3.439394  
     192A      3.450566   193A      3.453797   194A      3.484239  
     195A      3.508331   196A      3.524465   197A      3.545783  
     198A      3.549667   199A      3.559192   200A      3.602518  
     201A      3.609890   202A      3.624458   203A      3.627164  
     204A      3.653905   205A      3.664252   206A      3.694944  
     207A      3.724810   208A      3.736324   209A      3.756269  
     210A      3.790258   211A      3.809559   212A      3.868630  
     213A      3.875981   214A      3.891347   215A      3.910286  
     216A      3.926574   217A      3.977274   218A      4.010251  
     219A      4.019016   220A      4.056677   221A      4.061222  
     222A      4.099202   223A      4.109521   224A      4.118241  
     225A      4.135027   226A      4.156167   227A      4.163991  
     228A      4.182079   229A      4.193341   230A      4.211872  
     231A      4.220722   232A      4.251875   233A      4.262193  
     234A      4.320969   235A      4.322212   236A      4.440937  
     237A      4.486349   238A      4.497493   239A      4.536526  
     240A      4.591123   241A      4.614921   242A      4.641591  
     243A      4.645908   244A      4.647766   245A      4.663934  
     246A      4.705815   247A      4.749787   248A      4.754923  
     249A      4.830752   250A      4.844359   251A      4.890287  
     252A      4.955021   253A      4.963525   254A      5.070823  
     255A      5.099600   256A      5.132372   257A      5.172673  
     258A      5.237371   259A      5.244165   260A      5.307545  
     261A      5.317865   262A      5.327571   263A      5.330160  
     264A      5.357487   265A      5.474958   266A      5.494117  
     267A      5.517185   268A      5.527060   269A      5.528149  
     270A      5.563095   271A      5.590615   272A      5.591571  
     273A      5.638167   274A      5.652063   275A      5.654581  
     276A      5.669991   277A      5.673917   278A      5.675051  
     279A      5.724300   280A      5.820262   281A      5.871845  
     282A      5.957830   283A      6.021419   284A      6.047126  
     285A      6.150008   286A      6.188963   287A      6.251154  
     288A      6.252985   289A      6.354600   290A      6.406125  
     291A      6.486604   292A      6.588463   293A      6.595178  
     294A      6.634578   295A      6.737339   296A      6.809743  
     297A      6.815723   298A      6.848157   299A      6.855689  
     300A      6.992816   301A      7.031610   302A      7.237298  
     303A      7.245990   304A      7.293912   305A      7.306795  
     306A      7.386728   307A      7.519274   308A      7.548297  
     309A      7.900262   310A      8.014600   311A     23.956537  
     312A     24.376816   313A     24.486746   314A     24.884494  
     315A     24.986983   316A     34.216112   317A     45.494048  
     318A     45.679764  

    Final Occupation by Irrep:
              A 
    DOCC [    29 ]

  Energy converged.

  @DF-RHF Final Energy:  -396.60429205445342

   => Energetics <=

    Nuclear Repulsion Energy =            336.1685914910272572
    One-Electron Energy =               -1206.9938851578906451
    Two-Electron Energy =                 474.2210016124100207
    DFT Exchange-Correlation Energy =       0.0000000000000000
    Empirical Dispersion Energy =           0.0000000000000000
    PCM Polarization Energy =               0.0000000000000000
    EFP Energy =                            0.0000000000000000
    Total Energy =                       -396.6042920544534240



Properties will be evaluated at   0.000000,   0.000000,   0.000000 Bohr

Properties computed using the SCF density matrix

  Nuclear Dipole Moment: (a.u.)
     X:    -0.7121      Y:     0.2587      Z:    -5.8937

  Electronic Dipole Moment: (a.u.)
     X:    -0.0688      Y:    -0.1082      Z:     5.6891

  Dipole Moment: (a.u.)
     X:    -0.7808      Y:     0.1505      Z:    -0.2046     Total:     0.8211

  Dipole Moment: (Debye)
     X:    -1.9847      Y:     0.3825      Z:    -0.5201     Total:     2.0871


*** tstop() called on psinet at Mon May 15 15:38:25 2017
Module time:
	user time   =      21.61 seconds =       0.36 minutes
	system time =       0.34 seconds =       0.01 minutes
	total time  =         22 seconds =       0.37 minutes
Total time:
	user time   =      66.90 seconds =       1.11 minutes
	system time =       1.09 seconds =       0.02 minutes
	total time  =         68 seconds =       1.13 minutes

*** tstart() called on psinet
*** at Mon May 15 15:38:25 2017


  //>>>>>>>>>>>>>>>>>>>>>>>>>>>>>>>>>>>//
  //               DFMP2               //
  //<<<<<<<<<<<<<<<<<<<<<<<<<<<<<<<<<<<//

   => Loading Basis Set <=

    Name: (DEF2-TZVPP AUX)
    Role: RIFIT
    Keyword: DF_BASIS_MP2
    atoms 1-4, 11 entry C          line   190 file /home/psilocaluser/gits/hrw-direct/objdir4/stage/usr/local/psi4/share/psi4/basis/def2-tzvpp-ri.gbs 
    atoms 5       entry N          line   237 file /home/psilocaluser/gits/hrw-direct/objdir4/stage/usr/local/psi4/share/psi4/basis/def2-tzvpp-ri.gbs 
    atoms 6-10    entry H          line    21 file /home/psilocaluser/gits/hrw-direct/objdir4/stage/usr/local/psi4/share/psi4/basis/def2-tzvpp-ri.gbs 
    atoms 12-13   entry O          line   284 file /home/psilocaluser/gits/hrw-direct/objdir4/stage/usr/local/psi4/share/psi4/basis/def2-tzvpp-ri.gbs 

	 --------------------------------------------------------
	                          DF-MP2                         
	      2nd-Order Density-Fitted Moller-Plesset Theory     
	              RMP2 Wavefunction,   1 Threads             
	                                                         
	        Rob Parrish, Justin Turney, Andy Simmonett,      
	           Ed Hohenstein, and C. David Sherrill          
	 --------------------------------------------------------

   => Auxiliary Basis Set <=

  Basis Set: (DEF2-TZVPP AUX)
    Blend: DEF2-TZVPP-RI
    Number of shells: 226
    Number of basis function: 758
    Number of Cartesian functions: 935
    Spherical Harmonics?: true
    Max angular momentum: 4

	 --------------------------------------------------------
	                 NBF =   318, NAUX =   758
	 --------------------------------------------------------
	   CLASS    FOCC     OCC    AOCC    AVIR     VIR    FVIR
	   PAIRS       0      29      29     289     289       0
	 --------------------------------------------------------

	-----------------------------------------------------------
	 ==================> DF-MP2 Energies <==================== 
	-----------------------------------------------------------
	 Reference Energy          =    -396.6042920544534240 [Eh]
	 Singles Energy            =      -0.0000000000019818 [Eh]
	 Same-Spin Energy          =      -0.3951948184751748 [Eh]
	 Opposite-Spin Energy      =      -1.2083534833186542 [Eh]
	 Correlation Energy        =      -1.6035483017958108 [Eh]
	 Total Energy              =    -398.2078403562492213 [Eh]
	-----------------------------------------------------------
	 ================> DF-SCS-MP2 Energies <================== 
	-----------------------------------------------------------
	 SCS Same-Spin Scale       =       0.3333333333333333 [-]
	 SCS Opposite-Spin Scale   =       1.2000000000000000 [-]
	 SCS Same-Spin Energy      =      -0.1317316061583916 [Eh]
	 SCS Opposite-Spin Energy  =      -1.4500241799823850 [Eh]
	 SCS Correlation Energy    =      -1.5817557861427582 [Eh]
	 SCS Total Energy          =    -398.1860478405961885 [Eh]
	-----------------------------------------------------------


*** tstop() called on psinet at Mon May 15 15:38:32 2017
Module time:
	user time   =       7.05 seconds =       0.12 minutes
	system time =       0.26 seconds =       0.00 minutes
	total time  =          7 seconds =       0.12 minutes
Total time:
	user time   =      73.95 seconds =       1.23 minutes
	system time =       1.35 seconds =       0.02 minutes
	total time  =         75 seconds =       1.25 minutes

       N-Body: Complex Energy (fragments = (1, 2), basis = (1, 2):  -398.20784035624922)

   ==> N-Body: Counterpoise Corrected (CP)  energies <==

   n-Body     Total Energy [Eh]       I.E. [kcal/mol]      Delta [kcal/mol]
        1     -398.202867750484        0.000000000000        0.000000000000
        2     -398.207840356249       -3.120357357242       -3.120357357242

   => Loading Basis Set <=

    Name: STO-3G
    Role: ORBITAL
    Keyword: BASIS
    atoms 1-4, 11 entry C          line    60 file /home/psilocaluser/gits/hrw-direct/objdir4/stage/usr/local/psi4/share/psi4/basis/sto-3g.gbs 
    atoms 5       entry N          line    70 file /home/psilocaluser/gits/hrw-direct/objdir4/stage/usr/local/psi4/share/psi4/basis/sto-3g.gbs 
    atoms 6-10    entry H          line    18 file /home/psilocaluser/gits/hrw-direct/objdir4/stage/usr/local/psi4/share/psi4/basis/sto-3g.gbs 
    atoms 12-13   entry O          line    80 file /home/psilocaluser/gits/hrw-direct/objdir4/stage/usr/local/psi4/share/psi4/basis/sto-3g.gbs 

	CP corrected Binding Energy for C4H5N with CO2....................PASSED

*** Psi4 exiting successfully. Buy a developer a beer!
