
    -----------------------------------------------------------------------
          Psi4: An Open-Source Ab Initio Electronic Structure Package
                               Psi4 1.4a1.dev189 

                         Git: Rev {HEAD} d6ce54b dirty


    R. M. Parrish, L. A. Burns, D. G. A. Smith, A. C. Simmonett,
    A. E. DePrince III, E. G. Hohenstein, U. Bozkaya, A. Yu. Sokolov,
    R. Di Remigio, R. M. Richard, J. F. Gonthier, A. M. James,
    H. R. McAlexander, A. Kumar, M. Saitow, X. Wang, B. P. Pritchard,
    P. Verma, H. F. Schaefer III, K. Patkowski, R. A. King, E. F. Valeev,
    F. A. Evangelista, J. M. Turney, T. D. Crawford, and C. D. Sherrill,
    J. Chem. Theory Comput. 13(7) pp 3185--3197 (2017).
    (doi: 10.1021/acs.jctc.7b00174)


                         Additional Contributions by
    P. Kraus, H. Kruse, M. H. Lechner, M. C. Schieber, R. A. Shaw,
    A. Alenaizan, R. Galvelis, Z. L. Glick, S. Lehtola, and J. P. Misiewicz

    -----------------------------------------------------------------------


    Psi4 started on: Monday, 20 May 2019 09:59PM

    Process ID: 29074
    Host:       hokru
    PSIDATADIR: /usr/qc/psi4fork.bin/share/psi4
    Memory:     500.0 MiB
    Threads:    6
    
  ==> Input File <==

--------------------------------------------------------------------------
#! DFT Functional Test

# 0 1 RKS #TEST
E11 = -74.9357060634761325 #TEST 
E12 = -75.3197136000833467 #TEST 
E13 = -75.3185361193393561 #TEST 
E14 = -75.3128227464311664 #TEST 
E15 = -75.2976800393595056 #TEST 
E16 = -75.3498795533826353 #TEST 
E17 = -75.3210334526467875 #TEST 

# 0 1 UKS #TEST
E21 = -74.9357060634761183 #TEST 
E22 = -75.3197136000833467 #TEST 
E23 = -75.3185361193393987 #TEST 
E24 = -75.3128227464311237 #TEST 
E25 = -75.2976800393594772 #TEST 
E26 = -75.3498795533826495 #TEST 
E27 = -75.3210334526467875 #TEST 

# 1 2 UKS #TEST
E31 = -74.5654066758682461 #TEST 
E32 = -74.9675187714110649 #TEST 
E33 = -74.9709314184930946 #TEST 
E34 = -74.9632762770721257 #TEST 
E35 = -74.9473107140609187 #TEST 
E36 = -74.9993321902006471 #TEST 
E37 = -74.9700054987337978 #TEST 

# -1 2 UKS #TEST
E41 = -74.4314195977634796 #TEST
E42 = -74.8154425337799012 #TEST
E43 = -74.8011001623153078 #TEST
E44 = -74.7977837267321775 #TEST
E45 = -74.7903050024021780 #TEST
E46 = -74.8445370716718656 #TEST
E47 = -74.8012620368241983 #TEST 

molecule h2o {
0 1
O 0.000000000000  0.000000000000 -0.068516219310
H 0.000000000000 -0.790689573744  0.543701060724
H 0.000000000000  0.790689573744  0.543701060724
no_com
no_reorient
}

set {
    print 2
    basis sto-3g
    scf_type direct
    dft_spherical_points 302
    dft_radial_points 99
    reference rks
    e_convergence 1.e-8
    d_convergence 1.e-8
}

V11 = energy('scf', dft_functional="svwn")
compare_values(E11, V11, 7, "RKS  0 1    SVWN Energy") #TEST

V12 = energy('scf', dft_functional="b3lyp")
compare_values(E12, V12, 7, "RKS  0 1   B3LYP Energy") #TEST

V13 = energy('scf', dft_functional="wB97")
compare_values(E13, V13, 7, "RKS  0 1    wB97 Energy") #TEST

V14 = energy('scf', dft_functional="wB97X")
compare_values(E14, V14, 7, "RKS  0 1   wB97X Energy") #TEST

V15 = energy('scf', dft_functional="b86bpbe")
compare_values(E15, V15, 7, "RKS  0 1 B86BPBE Energy") #TEST

V16 = energy('scf', dft_functional="pw86pbe")
compare_values(E16, V16, 7, "RKS  0 1 PW86PBE Energy") #TEST

V17 = energy('scf', dft_functional="m05")
compare_values(E17, V17, 7, "RKS  0 1     M05 Energy") #TEST

set scf_type direct
set reference uks

V21 = energy('scf', dft_functional="svwn")
compare_values(E21, V21, 7, "UKS  0 1    SVWN Energy") #TEST

V22 = energy('scf', dft_functional="b3lyp")
compare_values(E22, V22, 7, "UKS  0 1   B3LYP Energy") #TEST

V23 = energy('scf', dft_functional="wB97")
compare_values(E23, V23, 7, "UKS  0 1    wB97 Energy") #TEST

V24 = energy('scf', dft_functional="wB97X")
compare_values(E24, V24, 7, "UKS  0 1   wB97X Energy") #TEST

V25 = energy('scf', dft_functional="b86bpbe")
compare_values(E25, V25, 7, "UKS  0 1 B86BPBE Energy") #TEST

V26 = energy('scf', dft_functional="pw86pbe")
compare_values(E26, V26, 7, "UKS  0 1 PW86PBE Energy") #TEST

V27 = energy('scf', dft_functional="m05")
compare_values(E27, V27, 7, "UKS  0 1     M05 Energy") #TEST

molecule h2op {
1 2
O
H 1 1.0
H 1 1.0 2 104.5
}

V31 = energy('scf', dft_functional="svwn")
compare_values(E31, V31, 7, "UKS  1 2    SVWN Energy") #TEST

V32 = energy('scf', dft_functional="b3lyp")
compare_values(E32, V32, 7, "UKS  1 2   B3LYP Energy") #TEST

V33 = energy('scf', dft_functional="wB97")
compare_values(E33, V33, 7, "UKS  1 2    wB97 Energy") #TEST

V34 = energy('scf', dft_functional="wB97X")
compare_values(E34, V34, 7, "UKS  1 2   wB97X Energy") #TEST

V35 = energy('scf', dft_functional="b86bpbe")
compare_values(E35, V35, 7, "UKS  1 2 B86BPBE Energy") #TEST

V36 = energy('scf', dft_functional="pw86pbe")
compare_values(E36, V36, 7, "UKS  1 2 PW86PBE Energy") #TEST

V37 = energy('scf', dft_functional="m05")
compare_values(E37, V37, 7, "UKS  1 2     M05 Energy") #TEST

molecule h2om {
-1 2
O
H 1 1.0
H 1 1.0 2 104.5
}

set guess sad

V41 = energy('scf', dft_functional="svwn")
compare_values(E41, V41, 7, "UKS -1 2    SVWN Energy") #TEST

V42 = energy('scf', dft_functional="b3lyp")
compare_values(E42, V42, 7, "UKS -1 2   B3LYP Energy") #TEST

V43 = energy('scf', dft_functional="wB97")
compare_values(E43, V43, 7, "UKS -1 2    wB97 Energy") #TEST

V44 = energy('scf', dft_functional="wB97X")
compare_values(E44, V44, 7, "UKS -1 2   wB97X Energy") #TEST

V45 = energy('scf', dft_functional="b86bpbe")
compare_values(E45, V45, 7, "UKS -1 2 B86BPBE Energy") #TEST

V46 = energy('scf', dft_functional="pw86pbe")
compare_values(E46, V46, 7, "UKS -1 2 PW86PBE Energy") #TEST

V47 = energy('scf', dft_functional="m05")
compare_values(E47, V47, 7, "UKS -1 2     M05 Energy") #TEST
--------------------------------------------------------------------------

*** tstart() called on hokru
*** at Mon May 20 21:59:53 2019

   => Loading Basis Set <=

    Name: STO-3G
    Role: ORBITAL
    Keyword: BASIS
    atoms 1   entry O          line    81 file /usr/qc/psi4fork.bin/share/psi4/basis/sto-3g.gbs 
    atoms 2-3 entry H          line    19 file /usr/qc/psi4fork.bin/share/psi4/basis/sto-3g.gbs 


         ---------------------------------------------------------
                                   SCF
               by Justin Turney, Rob Parrish, Andy Simmonett
                          and Daniel G. A. Smith
                              RKS Reference
                        6 Threads,    500 MiB Core
         ---------------------------------------------------------

  ==> Geometry <==

    Molecular point group: c2v
    Full point group: C2v

    Geometry (in Angstrom), charge = 0, multiplicity = 1:

       Center              X                  Y                   Z               Mass       
    ------------   -----------------  -----------------  -----------------  -----------------
         O            0.000000000000     0.000000000000    -0.068516219310    15.994914619570
         H            0.000000000000    -0.790689573744     0.543701060724     1.007825032230
         H           -0.000000000000     0.790689573744     0.543701060724     1.007825032230

  Running in c2v symmetry.

  Rotational constants: A =     25.12555  B =     13.37733  C =      8.72955 [cm^-1]
  Rotational constants: A = 753245.07150  B = 401042.16706  C = 261705.25473 [MHz]
  Nuclear repulsion =    8.801465564568590

  Charge       = 0
  Multiplicity = 1
  Electrons    = 10
  Nalpha       = 5
  Nbeta        = 5

  ==> Algorithm <==

  SCF Algorithm Type is DIRECT.
  DIIS enabled.
  MOM disabled.
  Fractional occupation disabled.
  Guess Type is SAD.
  Energy threshold   = 1.00e-08
  Density threshold  = 1.00e-08
  Integral threshold = 0.00e+00

  ==> Primary Basis <==

  -AO BASIS SET INFORMATION:
    Name                   = STO-3G
    Blend                  = STO-3G
    Total number of shells = 5
    Number of primitives   = 15
    Number of AO           = 7
    Number of SO           = 7
    Maximum AM             = 1
    Spherical Harmonics    = TRUE

  -Contraction Scheme:
    Atom   Type   All Primitives // Shells:
   ------ ------ --------------------------
       1     O     6s 3p // 2s 1p 
       2     H     3s // 1s 
       3     H     3s // 1s 

  ==> DFT Potential <==

   => Composite Functional: SVWN <= 

    SVWN3 (RPA) LSDA Functional

    Adamson et. al., J. Comput. Chem., 20(9), 921-927, 1999


    Deriv               =              1
    GGA                 =          FALSE
    Meta                =          FALSE

    Exchange Hybrid     =          FALSE
    MP2 Hybrid          =          FALSE

   => Exchange Functionals <=

    1.0000         XC_LDA_X

   => Correlation Functionals <=

    1.0000   XC_LDA_C_VWN_RPA

   => XC_LDA_X Functional <=

    Slater exchange
    P. A. M. Dirac, Math. Proc. Cambridge Philos. Soc. 26, 376 (1930)
    F. Bloch, Z. Phys. 57, 545 (1929)
    GGA   =          FALSE
    Meta  =          FALSE
    LRC   =          FALSE
    Alpha =   1.000000E+00
    Omega =   0.000000E+00

   => XC_LDA_C_VWN_RPA Functional <=

    Vosko, Wilk & Nusair (VWN5_RPA)
    S. H. Vosko, L. Wilk, and M. Nusair, Can. J. Phys. 58, 1200 (1980)
    GGA   =          FALSE
    Meta  =          FALSE
    LRC   =          FALSE
    Alpha =   1.000000E+00
    Omega =   0.000000E+00

   => Molecular Quadrature <=

    Radial Scheme          =       TREUTLER
    Pruning Type           =       FUNCTION
    Pruning Scheme         =           FLAT
    Nuclear Scheme         =       TREUTLER

    BS radius alpha        =              1
    Pruning alpha          =              1
    Radial Points          =             99
    Spherical Points       =            302
    Total Points           =          88431
    Total Blocks           =            710
    Max Points             =            256
    Max Functions          =              7

   => Loading Basis Set <=

    Name: (STO-3G AUX)
    Role: JKFIT
    Keyword: DF_BASIS_SCF
    atoms 1   entry O          line   323 file /usr/qc/psi4fork.bin/share/psi4/basis/def2-svp-jkfit.gbs 
    atoms 2-3 entry H          line    23 file /usr/qc/psi4fork.bin/share/psi4/basis/def2-svp-jkfit.gbs 

  Starting with a DF guess...

  ==> Pre-Iterations <==

   -------------------------------------------------------
    Irrep   Nso     Nmo     Nalpha   Nbeta   Ndocc  Nsocc
   -------------------------------------------------------
     A1         4       4       0       0       0       0
     A2         0       0       0       0       0       0
     B1         1       1       0       0       0       0
     B2         2       2       0       0       0       0
   -------------------------------------------------------
    Total       7       7       5       5       5       0
   -------------------------------------------------------

  ==> Integral Setup <==

  DFHelper Memory: AOs need 0.000 GiB; user supplied 0.362 GiB. Using in-core AOs.

  ==> MemDFJK: Density-Fitted J/K Matrices <==

    J tasked:                   Yes
    K tasked:                    No
    wK tasked:                   No
    OpenMP threads:               6
    Memory [MiB]:               370
    Algorithm:                 Core
    Schwarz Cutoff:           1E-12
    Mask sparsity (%):       0.0000
    Fitting Condition:        1E-10

   => Auxiliary Basis Set <=

  -AO BASIS SET INFORMATION:
    Name                   = (STO-3G AUX)
    Blend                  = DEF2-SVP-JKFIT
    Total number of shells = 37
    Number of primitives   = 49
    Number of AO           = 133
    Number of SO           = 113
    Maximum AM             = 4
    Spherical Harmonics    = TRUE

  -Contraction Scheme:
    Atom   Type   All Primitives // Shells:
   ------ ------ --------------------------
       1     O     14s 10p 6d 2f 1g // 10s 8p 4d 2f 1g 
       2     H     4s 2p 2d // 2s 2p 2d 
       3     H     4s 2p 2d // 2s 2p 2d 

  Cached 100.0% of DFT collocation blocks in 0.004 [GiB].

  Minimum eigenvalue in the overlap matrix is 3.7028400386E-01.
  Using Symmetric Orthogonalization.

  SCF Guess: Superposition of Atomic Densities via on-the-fly atomic UHF.

  ==> Iterations <==

                           Total Energy        Delta E     RMS |[F,P]|

   @DF-RKS iter SAD:   -74.53491654368848   -7.45349e+01   0.00000e+00 
   @DF-RKS iter   1:   -74.91680977249277   -3.81893e-01   3.51322e-02 DIIS
   @DF-RKS iter   2:   -74.91201423751818    4.79553e-03   4.12354e-02 DIIS
   @DF-RKS iter   3:   -74.93613963204419   -2.41254e-02   6.67786e-04 DIIS
   @DF-RKS iter   4:   -74.93614603322665   -6.40118e-06   2.78735e-05 DIIS
   @DF-RKS iter   5:   -74.93614604832005   -1.50934e-08   9.73049e-07 DIIS
   @DF-RKS iter   6:   -74.93614604833618   -1.61293e-11   7.51827e-10 DIIS

  DF guess converged.

  ==> DirectJK: Integral-Direct J/K Matrices <==

    J tasked:                  Yes
    K tasked:                   No
    wK tasked:                  No
    Integrals threads:           6
    Schwarz Cutoff:          1E-12

   @RKS iter   7:   -74.93570606195435   -7.49357e+01   1.37681e-05 DIIS
   @RKS iter   8:   -74.93570606172506    2.29292e-10   1.11819e-05 DIIS
   @RKS iter   9:   -74.93570606339668   -1.67162e-09   2.40381e-06 DIIS
   @RKS iter  10:   -74.93570606347615   -7.94671e-11   2.47574e-08 DIIS
   @RKS iter  11:   -74.93570606347616   -1.42109e-14   5.03285e-10 DIIS
  Energy and wave function converged.


  ==> Post-Iterations <==

    Orbital Energies [Eh]
    ---------------------

    Doubly Occupied:                                                      

       1A1   -18.295583     2A1    -0.830868     1B2    -0.386574  
       3A1    -0.173458     1B1    -0.074169  

    Virtual:                                                              

       4A1     0.261788     2B2     0.364782  

    Final Occupation by Irrep:
             A1    A2    B1    B2 
    DOCC [     3,    0,    1,    1 ]

  @RKS Final Energy:   -74.93570606347616

   => Energetics <=

    Nuclear Repulsion Energy =              8.8014655645685895
    One-Electron Energy =                -121.7233834979833915
    Two-Electron Energy =                  47.0267663299662360
    DFT Exchange-Correlation Energy =      -9.0405544600275984
    Empirical Dispersion Energy =           0.0000000000000000
    VV10 Nonlocal Energy =                  0.0000000000000000
    Total Energy =                        -74.9357060634761609

Computation Completed


Properties will be evaluated at   0.000000,   0.000000,   0.000000 [a0]

Properties computed using the SCF density matrix

  Nuclear Dipole Moment: [e a0]
     X:     0.0000      Y:     0.0000      Z:     1.0191

  Electronic Dipole Moment: [e a0]
     X:     0.0000      Y:     0.0000      Z:    -0.3637

  Dipole Moment: [e a0]
     X:     0.0000      Y:     0.0000      Z:     0.6554     Total:     0.6554

  Dipole Moment: [D]
     X:     0.0000      Y:     0.0000      Z:     1.6658     Total:     1.6658


*** tstop() called on hokru at Mon May 20 21:59:54 2019
Module time:
	user time   =       4.22 seconds =       0.07 minutes
	system time =       0.17 seconds =       0.00 minutes
	total time  =          1 seconds =       0.02 minutes
Total time:
	user time   =       4.22 seconds =       0.07 minutes
	system time =       0.17 seconds =       0.00 minutes
	total time  =          1 seconds =       0.02 minutes
    RKS  0 1    SVWN Energy...........................................PASSED

*** tstart() called on hokru
*** at Mon May 20 21:59:54 2019

   => Loading Basis Set <=

    Name: STO-3G
    Role: ORBITAL
    Keyword: BASIS
    atoms 1   entry O          line    81 file /usr/qc/psi4fork.bin/share/psi4/basis/sto-3g.gbs 
    atoms 2-3 entry H          line    19 file /usr/qc/psi4fork.bin/share/psi4/basis/sto-3g.gbs 


         ---------------------------------------------------------
                                   SCF
               by Justin Turney, Rob Parrish, Andy Simmonett
                          and Daniel G. A. Smith
                              RKS Reference
                        6 Threads,    500 MiB Core
         ---------------------------------------------------------

  ==> Geometry <==

    Molecular point group: c2v
    Full point group: C2v

    Geometry (in Angstrom), charge = 0, multiplicity = 1:

       Center              X                  Y                   Z               Mass       
    ------------   -----------------  -----------------  -----------------  -----------------
         O            0.000000000000     0.000000000000    -0.068516219310    15.994914619570
         H            0.000000000000    -0.790689573744     0.543701060724     1.007825032230
         H           -0.000000000000     0.790689573744     0.543701060724     1.007825032230

  Running in c2v symmetry.

  Rotational constants: A =     25.12555  B =     13.37733  C =      8.72955 [cm^-1]
  Rotational constants: A = 753245.07150  B = 401042.16706  C = 261705.25473 [MHz]
  Nuclear repulsion =    8.801465564568590

  Charge       = 0
  Multiplicity = 1
  Electrons    = 10
  Nalpha       = 5
  Nbeta        = 5

  ==> Algorithm <==

  SCF Algorithm Type is DIRECT.
  DIIS enabled.
  MOM disabled.
  Fractional occupation disabled.
  Guess Type is SAD.
  Energy threshold   = 1.00e-08
  Density threshold  = 1.00e-08
  Integral threshold = 0.00e+00

  ==> Primary Basis <==

  -AO BASIS SET INFORMATION:
    Name                   = STO-3G
    Blend                  = STO-3G
    Total number of shells = 5
    Number of primitives   = 15
    Number of AO           = 7
    Number of SO           = 7
    Maximum AM             = 1
    Spherical Harmonics    = TRUE

  -Contraction Scheme:
    Atom   Type   All Primitives // Shells:
   ------ ------ --------------------------
       1     O     6s 3p // 2s 1p 
       2     H     3s // 1s 
       3     H     3s // 1s 

  ==> DFT Potential <==

   => Composite Functional: B3LYP <= 

    B3LYP Hyb-GGA Exchange-Correlation Functional

    P. J. Stephens, F. J. Devlin, C. F. Chabalowski, and M. J. Frisch, J. Phys. Chem. 98, 11623 (1994)

    Deriv               =              1
    GGA                 =           TRUE
    Meta                =          FALSE

    Exchange Hybrid     =           TRUE
    MP2 Hybrid          =          FALSE

   => Exchange Functionals <=

    0.0800   Slater exchange
    0.7200         Becke 88

   => Exact (HF) Exchange <=

    0.2000               HF 

   => Correlation Functionals <=

    0.1900   Vosko, Wilk & Nusair (VWN5_RPA)
    0.8100   Lee, Yang & Parr

   => XC_HYB_GGA_XC_B3LYP Functional <=

    B3LYP
    P. J. Stephens, F. J. Devlin, C. F. Chabalowski, and M. J. Frisch, J. Phys. Chem. 98, 11623 (1994)
    GGA   =           TRUE
    Meta  =          FALSE
    LRC   =          FALSE
    Alpha =   1.000000E+00
    Omega =   0.000000E+00

   => Molecular Quadrature <=

    Radial Scheme          =       TREUTLER
    Pruning Type           =       FUNCTION
    Pruning Scheme         =           FLAT
    Nuclear Scheme         =       TREUTLER

    BS radius alpha        =              1
    Pruning alpha          =              1
    Radial Points          =             99
    Spherical Points       =            302
    Total Points           =          88431
    Total Blocks           =            710
    Max Points             =            256
    Max Functions          =              7

   => Loading Basis Set <=

    Name: (STO-3G AUX)
    Role: JKFIT
    Keyword: DF_BASIS_SCF
    atoms 1   entry O          line   323 file /usr/qc/psi4fork.bin/share/psi4/basis/def2-svp-jkfit.gbs 
    atoms 2-3 entry H          line    23 file /usr/qc/psi4fork.bin/share/psi4/basis/def2-svp-jkfit.gbs 

  Starting with a DF guess...

  ==> Pre-Iterations <==

   -------------------------------------------------------
    Irrep   Nso     Nmo     Nalpha   Nbeta   Ndocc  Nsocc
   -------------------------------------------------------
     A1         4       4       0       0       0       0
     A2         0       0       0       0       0       0
     B1         1       1       0       0       0       0
     B2         2       2       0       0       0       0
   -------------------------------------------------------
    Total       7       7       5       5       5       0
   -------------------------------------------------------

  ==> Integral Setup <==

  DFHelper Memory: AOs need 0.000 GiB; user supplied 0.349 GiB. Using in-core AOs.

  ==> MemDFJK: Density-Fitted J/K Matrices <==

    J tasked:                   Yes
    K tasked:                   Yes
    wK tasked:                   No
    OpenMP threads:               6
    Memory [MiB]:               356
    Algorithm:                 Core
    Schwarz Cutoff:           1E-12
    Mask sparsity (%):       0.0000
    Fitting Condition:        1E-10

   => Auxiliary Basis Set <=

  -AO BASIS SET INFORMATION:
    Name                   = (STO-3G AUX)
    Blend                  = DEF2-SVP-JKFIT
    Total number of shells = 37
    Number of primitives   = 49
    Number of AO           = 133
    Number of SO           = 113
    Maximum AM             = 4
    Spherical Harmonics    = TRUE

  -Contraction Scheme:
    Atom   Type   All Primitives // Shells:
   ------ ------ --------------------------
       1     O     14s 10p 6d 2f 1g // 10s 8p 4d 2f 1g 
       2     H     4s 2p 2d // 2s 2p 2d 
       3     H     4s 2p 2d // 2s 2p 2d 

  Cached 100.0% of DFT collocation blocks in 0.018 [GiB].

  Minimum eigenvalue in the overlap matrix is 3.7028400386E-01.
  Using Symmetric Orthogonalization.

  SCF Guess: Superposition of Atomic Densities via on-the-fly atomic UHF.

  ==> Iterations <==

                           Total Energy        Delta E     RMS |[F,P]|

   @DF-RKS iter SAD:   -74.82887439716362   -7.48289e+01   0.00000e+00 
   @DF-RKS iter   1:   -75.29287848886713   -4.64004e-01   4.08362e-02 DIIS
   @DF-RKS iter   2:   -75.30454651204008   -1.16680e-02   3.31503e-02 DIIS
   @DF-RKS iter   3:   -75.32008315060436   -1.55366e-02   3.34818e-04 DIIS
   @DF-RKS iter   4:   -75.32008439584732   -1.24524e-06   5.94214e-06 DIIS
   @DF-RKS iter   5:   -75.32008439629388   -4.46562e-10   6.45498e-08 DIIS
   @DF-RKS iter   6:   -75.32008439629396   -8.52651e-14   1.08059e-08 DIIS
   @DF-RKS iter   7:   -75.32008439629399   -2.84217e-14   6.22804e-11 DIIS

  DF guess converged.

  ==> DirectJK: Integral-Direct J/K Matrices <==

    J tasked:                  Yes
    K tasked:                  Yes
    wK tasked:                  No
    Integrals threads:           6
    Schwarz Cutoff:          1E-12

   @RKS iter   8:   -75.31971359824861   -7.53197e+01   1.35275e-05 DIIS
   @RKS iter   9:   -75.31971359900822   -7.59613e-10   8.74550e-06 DIIS
   @RKS iter  10:   -75.31971360006658   -1.05835e-09   1.09603e-06 DIIS
   @RKS iter  11:   -75.31971360008330   -1.67262e-11   6.29416e-09 DIIS
  Energy and wave function converged.


  ==> Post-Iterations <==

    Orbital Energies [Eh]
    ---------------------

    Doubly Occupied:                                                      

       1A1   -18.840683     2A1    -0.916512     1B2    -0.427084  
       3A1    -0.233392     1B1    -0.142454  

    Virtual:                                                              

       4A1     0.317930     2B2     0.427495  

    Final Occupation by Irrep:
             A1    A2    B1    B2 
    DOCC [     3,    0,    1,    1 ]

  @RKS Final Energy:   -75.31971360008330

   => Energetics <=

    Nuclear Repulsion Energy =              8.8014655645685895
    One-Electron Energy =                -121.6673398973297111
    Two-Electron Energy =                  45.1530455802204997
    DFT Exchange-Correlation Energy =      -7.6068848475426929
    Empirical Dispersion Energy =           0.0000000000000000
    VV10 Nonlocal Energy =                  0.0000000000000000
    Total Energy =                        -75.3197136000833041

Computation Completed


Properties will be evaluated at   0.000000,   0.000000,   0.000000 [a0]

Properties computed using the SCF density matrix

  Nuclear Dipole Moment: [e a0]
     X:     0.0000      Y:     0.0000      Z:     1.0191

  Electronic Dipole Moment: [e a0]
     X:     0.0000      Y:     0.0000      Z:    -0.3867

  Dipole Moment: [e a0]
     X:     0.0000      Y:     0.0000      Z:     0.6324     Total:     0.6324

  Dipole Moment: [D]
     X:     0.0000      Y:     0.0000      Z:     1.6073     Total:     1.6073


*** tstop() called on hokru at Mon May 20 21:59:55 2019
Module time:
	user time   =       5.09 seconds =       0.08 minutes
	system time =       0.09 seconds =       0.00 minutes
	total time  =          1 seconds =       0.02 minutes
Total time:
	user time   =       9.35 seconds =       0.16 minutes
	system time =       0.27 seconds =       0.00 minutes
	total time  =          2 seconds =       0.03 minutes
    RKS  0 1   B3LYP Energy...........................................PASSED

*** tstart() called on hokru
*** at Mon May 20 21:59:55 2019

   => Loading Basis Set <=

    Name: STO-3G
    Role: ORBITAL
    Keyword: BASIS
    atoms 1   entry O          line    81 file /usr/qc/psi4fork.bin/share/psi4/basis/sto-3g.gbs 
    atoms 2-3 entry H          line    19 file /usr/qc/psi4fork.bin/share/psi4/basis/sto-3g.gbs 


         ---------------------------------------------------------
                                   SCF
               by Justin Turney, Rob Parrish, Andy Simmonett
                          and Daniel G. A. Smith
                              RKS Reference
                        6 Threads,    500 MiB Core
         ---------------------------------------------------------

  ==> Geometry <==

    Molecular point group: c2v
    Full point group: C2v

    Geometry (in Angstrom), charge = 0, multiplicity = 1:

       Center              X                  Y                   Z               Mass       
    ------------   -----------------  -----------------  -----------------  -----------------
         O            0.000000000000     0.000000000000    -0.068516219310    15.994914619570
         H            0.000000000000    -0.790689573744     0.543701060724     1.007825032230
         H           -0.000000000000     0.790689573744     0.543701060724     1.007825032230

  Running in c2v symmetry.

  Rotational constants: A =     25.12555  B =     13.37733  C =      8.72955 [cm^-1]
  Rotational constants: A = 753245.07150  B = 401042.16706  C = 261705.25473 [MHz]
  Nuclear repulsion =    8.801465564568590

  Charge       = 0
  Multiplicity = 1
  Electrons    = 10
  Nalpha       = 5
  Nbeta        = 5

  ==> Algorithm <==

  SCF Algorithm Type is DIRECT.
  DIIS enabled.
  MOM disabled.
  Fractional occupation disabled.
  Guess Type is SAD.
  Energy threshold   = 1.00e-08
  Density threshold  = 1.00e-08
  Integral threshold = 0.00e+00

  ==> Primary Basis <==

  -AO BASIS SET INFORMATION:
    Name                   = STO-3G
    Blend                  = STO-3G
    Total number of shells = 5
    Number of primitives   = 15
    Number of AO           = 7
    Number of SO           = 7
    Maximum AM             = 1
    Spherical Harmonics    = TRUE

  -Contraction Scheme:
    Atom   Type   All Primitives // Shells:
   ------ ------ --------------------------
       1     O     6s 3p // 2s 1p 
       2     H     3s // 1s 
       3     H     3s // 1s 

  ==> DFT Potential <==

   => Composite Functional: WB97 <= 

    wB97 GGA Exchange-Correlation Functional

    J.-D. Chai and M. Head-Gordon, J. Chem. Phys. 128, 084106 (2008)

    Deriv               =              1
    GGA                 =           TRUE
    Meta                =          FALSE

    Exchange Hybrid     =          FALSE
    MP2 Hybrid          =          FALSE

   => Exchange-Correlation Functionals <=

    1.0000   wB97 range-separated functional

   => Exact (HF) Exchange <=

    1.0000            HF,LR [omega = 0.4000]

   => XC_HYB_GGA_XC_WB97 Functional <=

    wB97 range-separated functional
    J.-D. Chai and M. Head-Gordon, J. Chem. Phys. 128, 084106 (2008)
    GGA   =           TRUE
    Meta  =          FALSE
    LRC   =           TRUE
    Alpha =   1.000000E+00
    Omega =   4.000000E-01

   => Molecular Quadrature <=

    Radial Scheme          =       TREUTLER
    Pruning Type           =       FUNCTION
    Pruning Scheme         =           FLAT
    Nuclear Scheme         =       TREUTLER

    BS radius alpha        =              1
    Pruning alpha          =              1
    Radial Points          =             99
    Spherical Points       =            302
    Total Points           =          88431
    Total Blocks           =            710
    Max Points             =            256
    Max Functions          =              7

   => Loading Basis Set <=

    Name: (STO-3G AUX)
    Role: JKFIT
    Keyword: DF_BASIS_SCF
    atoms 1   entry O          line   323 file /usr/qc/psi4fork.bin/share/psi4/basis/def2-svp-jkfit.gbs 
    atoms 2-3 entry H          line    23 file /usr/qc/psi4fork.bin/share/psi4/basis/def2-svp-jkfit.gbs 

  Starting with a DF guess...

  ==> Pre-Iterations <==

   -------------------------------------------------------
    Irrep   Nso     Nmo     Nalpha   Nbeta   Ndocc  Nsocc
   -------------------------------------------------------
     A1         4       4       0       0       0       0
     A2         0       0       0       0       0       0
     B1         1       1       0       0       0       0
     B2         2       2       0       0       0       0
   -------------------------------------------------------
    Total       7       7       5       5       5       0
   -------------------------------------------------------

  ==> Integral Setup <==

  ==> DiskDFJK: Density-Fitted J/K Matrices <==

    J tasked:                  Yes
    K tasked:                   No
    wK tasked:                 Yes
    Omega:               4.000E-01
    OpenMP threads:              6
    Integrals threads:           6
    Memory [MiB]:              356
    Algorithm:                Core
    Integral Cache:           NONE
    Schwarz Cutoff:          1E-12
    Fitting Condition:       1E-10

   => Auxiliary Basis Set <=

  -AO BASIS SET INFORMATION:
    Name                   = (STO-3G AUX)
    Blend                  = DEF2-SVP-JKFIT
    Total number of shells = 37
    Number of primitives   = 49
    Number of AO           = 133
    Number of SO           = 113
    Maximum AM             = 4
    Spherical Harmonics    = TRUE

  -Contraction Scheme:
    Atom   Type   All Primitives // Shells:
   ------ ------ --------------------------
       1     O     14s 10p 6d 2f 1g // 10s 8p 4d 2f 1g 
       2     H     4s 2p 2d // 2s 2p 2d 
       3     H     4s 2p 2d // 2s 2p 2d 

  Cached 100.0% of DFT collocation blocks in 0.018 [GiB].

  Minimum eigenvalue in the overlap matrix is 3.7028400386E-01.
  Using Symmetric Orthogonalization.

  SCF Guess: Superposition of Atomic Densities via on-the-fly atomic UHF.

  ==> Iterations <==

                           Total Energy        Delta E     RMS |[F,P]|

   @DF-RKS iter SAD:   -74.65352779947293   -7.46535e+01   0.00000e+00 
   @DF-RKS iter   1:   -75.27599385303054   -6.22466e-01   4.94076e-02 DIIS
   @DF-RKS iter   2:   -75.31453221401398   -3.85384e-02   1.87882e-02 DIIS
   @DF-RKS iter   3:   -75.31889172300527   -4.35951e-03   1.79127e-03 DIIS
   @DF-RKS iter   4:   -75.31897413941805   -8.24164e-05   2.77803e-04 DIIS
   @DF-RKS iter   5:   -75.31897639517483   -2.25576e-06   4.10099e-05 DIIS
   @DF-RKS iter   6:   -75.31897645924299   -6.40682e-08   8.85319e-07 DIIS
   @DF-RKS iter   7:   -75.31897645926733   -2.43432e-11   1.96272e-09 DIIS

  DF guess converged.

  ==> DirectJK: Integral-Direct J/K Matrices <==

    J tasked:                  Yes
    K tasked:                   No
    wK tasked:                 Yes
    Omega:               4.000E-01
    Integrals threads:           6
    Schwarz Cutoff:          1E-12

   @RKS iter   8:   -75.31853611602243   -7.53185e+01   1.73529e-05 DIIS
   @RKS iter   9:   -75.31853611891493   -2.89251e-09   5.75619e-06 DIIS
   @RKS iter  10:   -75.31853611933411   -4.19178e-10   4.79047e-07 DIIS
   @RKS iter  11:   -75.31853611933917   -5.05906e-12   8.85896e-08 DIIS
   @RKS iter  12:   -75.31853611933940   -2.27374e-13   1.08516e-08 DIIS
   @RKS iter  13:   -75.31853611933936    4.26326e-14   1.60314e-14 DIIS
  Energy and wave function converged.


  ==> Post-Iterations <==

    Orbital Energies [Eh]
    ---------------------

    Doubly Occupied:                                                      

       1A1   -18.702717     2A1    -1.047211     1B2    -0.547587  
       3A1    -0.349276     1B1    -0.256666  

    Virtual:                                                              

       4A1     0.445347     2B2     0.556393  

    Final Occupation by Irrep:
             A1    A2    B1    B2 
    DOCC [     3,    0,    1,    1 ]

  @RKS Final Energy:   -75.31853611933936

   => Energetics <=

    Nuclear Repulsion Energy =              8.8014655645685895
    One-Electron Energy =                -121.6432815545747133
    Two-Electron Energy =                  44.8828979469377884
    DFT Exchange-Correlation Energy =      -7.3596180762710226
    Empirical Dispersion Energy =           0.0000000000000000
    VV10 Nonlocal Energy =                  0.0000000000000000
    Total Energy =                        -75.3185361193393561

Computation Completed


Properties will be evaluated at   0.000000,   0.000000,   0.000000 [a0]

Properties computed using the SCF density matrix

  Nuclear Dipole Moment: [e a0]
     X:     0.0000      Y:     0.0000      Z:     1.0191

  Electronic Dipole Moment: [e a0]
     X:     0.0000      Y:     0.0000      Z:    -0.3853

  Dipole Moment: [e a0]
     X:     0.0000      Y:     0.0000      Z:     0.6338     Total:     0.6338

  Dipole Moment: [D]
     X:     0.0000      Y:     0.0000      Z:     1.6108     Total:     1.6108


*** tstop() called on hokru at Mon May 20 21:59:56 2019
Module time:
	user time   =       6.46 seconds =       0.11 minutes
	system time =       0.15 seconds =       0.00 minutes
	total time  =          1 seconds =       0.02 minutes
Total time:
	user time   =      15.85 seconds =       0.26 minutes
	system time =       0.42 seconds =       0.01 minutes
	total time  =          3 seconds =       0.05 minutes
    RKS  0 1    wB97 Energy...........................................PASSED

*** tstart() called on hokru
*** at Mon May 20 21:59:56 2019

   => Loading Basis Set <=

    Name: STO-3G
    Role: ORBITAL
    Keyword: BASIS
    atoms 1   entry O          line    81 file /usr/qc/psi4fork.bin/share/psi4/basis/sto-3g.gbs 
    atoms 2-3 entry H          line    19 file /usr/qc/psi4fork.bin/share/psi4/basis/sto-3g.gbs 


         ---------------------------------------------------------
                                   SCF
               by Justin Turney, Rob Parrish, Andy Simmonett
                          and Daniel G. A. Smith
                              RKS Reference
                        6 Threads,    500 MiB Core
         ---------------------------------------------------------

  ==> Geometry <==

    Molecular point group: c2v
    Full point group: C2v

    Geometry (in Angstrom), charge = 0, multiplicity = 1:

       Center              X                  Y                   Z               Mass       
    ------------   -----------------  -----------------  -----------------  -----------------
         O            0.000000000000     0.000000000000    -0.068516219310    15.994914619570
         H            0.000000000000    -0.790689573744     0.543701060724     1.007825032230
         H           -0.000000000000     0.790689573744     0.543701060724     1.007825032230

  Running in c2v symmetry.

  Rotational constants: A =     25.12555  B =     13.37733  C =      8.72955 [cm^-1]
  Rotational constants: A = 753245.07150  B = 401042.16706  C = 261705.25473 [MHz]
  Nuclear repulsion =    8.801465564568590

  Charge       = 0
  Multiplicity = 1
  Electrons    = 10
  Nalpha       = 5
  Nbeta        = 5

  ==> Algorithm <==

  SCF Algorithm Type is DIRECT.
  DIIS enabled.
  MOM disabled.
  Fractional occupation disabled.
  Guess Type is SAD.
  Energy threshold   = 1.00e-08
  Density threshold  = 1.00e-08
  Integral threshold = 0.00e+00

  ==> Primary Basis <==

  -AO BASIS SET INFORMATION:
    Name                   = STO-3G
    Blend                  = STO-3G
    Total number of shells = 5
    Number of primitives   = 15
    Number of AO           = 7
    Number of SO           = 7
    Maximum AM             = 1
    Spherical Harmonics    = TRUE

  -Contraction Scheme:
    Atom   Type   All Primitives // Shells:
   ------ ------ --------------------------
       1     O     6s 3p // 2s 1p 
       2     H     3s // 1s 
       3     H     3s // 1s 

  ==> DFT Potential <==

   => Composite Functional: WB97X <= 

    wB97X Hyb-GGA Exchange-Correlation Functional

    J.-D. Chai and M. Head-Gordon, J. Chem. Phys. 128, 084106 (2008)

    Deriv               =              1
    GGA                 =           TRUE
    Meta                =          FALSE

    Exchange Hybrid     =           TRUE
    MP2 Hybrid          =          FALSE

   => Exchange-Correlation Functionals <=

    1.0000   wB97X range-separated functional

   => Exact (HF) Exchange <=

    0.8423            HF,LR [omega = 0.3000]
    0.1577               HF 

   => XC_HYB_GGA_XC_WB97X Functional <=

    wB97X range-separated functional
    J.-D. Chai and M. Head-Gordon, J. Chem. Phys. 128, 084106 (2008)
    GGA   =           TRUE
    Meta  =          FALSE
    LRC   =           TRUE
    Alpha =   1.000000E+00
    Omega =   3.000000E-01

   => Molecular Quadrature <=

    Radial Scheme          =       TREUTLER
    Pruning Type           =       FUNCTION
    Pruning Scheme         =           FLAT
    Nuclear Scheme         =       TREUTLER

    BS radius alpha        =              1
    Pruning alpha          =              1
    Radial Points          =             99
    Spherical Points       =            302
    Total Points           =          88431
    Total Blocks           =            710
    Max Points             =            256
    Max Functions          =              7

   => Loading Basis Set <=

    Name: (STO-3G AUX)
    Role: JKFIT
    Keyword: DF_BASIS_SCF
    atoms 1   entry O          line   323 file /usr/qc/psi4fork.bin/share/psi4/basis/def2-svp-jkfit.gbs 
    atoms 2-3 entry H          line    23 file /usr/qc/psi4fork.bin/share/psi4/basis/def2-svp-jkfit.gbs 

  Starting with a DF guess...

  ==> Pre-Iterations <==

   -------------------------------------------------------
    Irrep   Nso     Nmo     Nalpha   Nbeta   Ndocc  Nsocc
   -------------------------------------------------------
     A1         4       4       0       0       0       0
     A2         0       0       0       0       0       0
     B1         1       1       0       0       0       0
     B2         2       2       0       0       0       0
   -------------------------------------------------------
    Total       7       7       5       5       5       0
   -------------------------------------------------------

  ==> Integral Setup <==

  ==> DiskDFJK: Density-Fitted J/K Matrices <==

    J tasked:                  Yes
    K tasked:                  Yes
    wK tasked:                 Yes
    Omega:               3.000E-01
    OpenMP threads:              6
    Integrals threads:           6
    Memory [MiB]:              356
    Algorithm:                Core
    Integral Cache:           NONE
    Schwarz Cutoff:          1E-12
    Fitting Condition:       1E-10

   => Auxiliary Basis Set <=

  -AO BASIS SET INFORMATION:
    Name                   = (STO-3G AUX)
    Blend                  = DEF2-SVP-JKFIT
    Total number of shells = 37
    Number of primitives   = 49
    Number of AO           = 133
    Number of SO           = 113
    Maximum AM             = 4
    Spherical Harmonics    = TRUE

  -Contraction Scheme:
    Atom   Type   All Primitives // Shells:
   ------ ------ --------------------------
       1     O     14s 10p 6d 2f 1g // 10s 8p 4d 2f 1g 
       2     H     4s 2p 2d // 2s 2p 2d 
       3     H     4s 2p 2d // 2s 2p 2d 

  Cached 100.0% of DFT collocation blocks in 0.018 [GiB].

  Minimum eigenvalue in the overlap matrix is 3.7028400386E-01.
  Using Symmetric Orthogonalization.

  SCF Guess: Superposition of Atomic Densities via on-the-fly atomic UHF.

  ==> Iterations <==

                           Total Energy        Delta E     RMS |[F,P]|

   @DF-RKS iter SAD:   -74.66137134822090   -7.46614e+01   0.00000e+00 
   @DF-RKS iter   1:   -75.27057195465348   -6.09201e-01   4.93816e-02 DIIS
   @DF-RKS iter   2:   -75.30811456154541   -3.75426e-02   2.00672e-02 DIIS
   @DF-RKS iter   3:   -75.31316038677193   -5.04583e-03   1.58414e-03 DIIS
   @DF-RKS iter   4:   -75.31322266608201   -6.22793e-05   2.27192e-04 DIIS
   @DF-RKS iter   5:   -75.31322412023715   -1.45416e-06   3.51526e-05 DIIS
   @DF-RKS iter   6:   -75.31322416733859   -4.71014e-08   7.78406e-07 DIIS
   @DF-RKS iter   7:   -75.31322416735753   -1.89431e-11   1.26279e-09 DIIS

  DF guess converged.

  ==> DirectJK: Integral-Direct J/K Matrices <==

    J tasked:                  Yes
    K tasked:                  Yes
    wK tasked:                 Yes
    Omega:               3.000E-01
    Integrals threads:           6
    Schwarz Cutoff:          1E-12

   @RKS iter   8:   -75.31282274364679   -7.53128e+01   1.59445e-05 DIIS
   @RKS iter   9:   -75.31282274601426   -2.36747e-09   5.66477e-06 DIIS
   @RKS iter  10:   -75.31282274642760   -4.13337e-10   4.31558e-07 DIIS
   @RKS iter  11:   -75.31282274643104   -3.43903e-12   5.63215e-08 DIIS
   @RKS iter  12:   -75.31282274643114   -9.94760e-14   7.55430e-09 DIIS
  Energy and wave function converged.


  ==> Post-Iterations <==

    Orbital Energies [Eh]
    ---------------------

    Doubly Occupied:                                                      

       1A1   -18.901909     2A1    -1.039660     1B2    -0.535892  
       3A1    -0.342151     1B1    -0.251871  

    Virtual:                                                              

       4A1     0.432875     2B2     0.543499  

    Final Occupation by Irrep:
             A1    A2    B1    B2 
    DOCC [     3,    0,    1,    1 ]

  @RKS Final Energy:   -75.31282274643114

   => Energetics <=

    Nuclear Repulsion Energy =              8.8014655645685895
    One-Electron Energy =                -121.6688783787553803
    Two-Electron Energy =                  44.1911119428420989
    DFT Exchange-Correlation Energy =      -6.6365218750864390
    Empirical Dispersion Energy =           0.0000000000000000
    VV10 Nonlocal Energy =                  0.0000000000000000
    Total Energy =                        -75.3128227464311379

Computation Completed


Properties will be evaluated at   0.000000,   0.000000,   0.000000 [a0]

Properties computed using the SCF density matrix

  Nuclear Dipole Moment: [e a0]
     X:     0.0000      Y:     0.0000      Z:     1.0191

  Electronic Dipole Moment: [e a0]
     X:     0.0000      Y:     0.0000      Z:    -0.3793

  Dipole Moment: [e a0]
     X:     0.0000      Y:     0.0000      Z:     0.6398     Total:     0.6398

  Dipole Moment: [D]
     X:     0.0000      Y:     0.0000      Z:     1.6261     Total:     1.6261


*** tstop() called on hokru at Mon May 20 21:59:57 2019
Module time:
	user time   =       6.11 seconds =       0.10 minutes
	system time =       0.09 seconds =       0.00 minutes
	total time  =          1 seconds =       0.02 minutes
Total time:
	user time   =      21.99 seconds =       0.37 minutes
	system time =       0.51 seconds =       0.01 minutes
	total time  =          4 seconds =       0.07 minutes
    RKS  0 1   wB97X Energy...........................................PASSED

*** tstart() called on hokru
*** at Mon May 20 21:59:57 2019

   => Loading Basis Set <=

    Name: STO-3G
    Role: ORBITAL
    Keyword: BASIS
    atoms 1   entry O          line    81 file /usr/qc/psi4fork.bin/share/psi4/basis/sto-3g.gbs 
    atoms 2-3 entry H          line    19 file /usr/qc/psi4fork.bin/share/psi4/basis/sto-3g.gbs 


         ---------------------------------------------------------
                                   SCF
               by Justin Turney, Rob Parrish, Andy Simmonett
                          and Daniel G. A. Smith
                              RKS Reference
                        6 Threads,    500 MiB Core
         ---------------------------------------------------------

  ==> Geometry <==

    Molecular point group: c2v
    Full point group: C2v

    Geometry (in Angstrom), charge = 0, multiplicity = 1:

       Center              X                  Y                   Z               Mass       
    ------------   -----------------  -----------------  -----------------  -----------------
         O            0.000000000000     0.000000000000    -0.068516219310    15.994914619570
         H            0.000000000000    -0.790689573744     0.543701060724     1.007825032230
         H           -0.000000000000     0.790689573744     0.543701060724     1.007825032230

  Running in c2v symmetry.

  Rotational constants: A =     25.12555  B =     13.37733  C =      8.72955 [cm^-1]
  Rotational constants: A = 753245.07150  B = 401042.16706  C = 261705.25473 [MHz]
  Nuclear repulsion =    8.801465564568590

  Charge       = 0
  Multiplicity = 1
  Electrons    = 10
  Nalpha       = 5
  Nbeta        = 5

  ==> Algorithm <==

  SCF Algorithm Type is DIRECT.
  DIIS enabled.
  MOM disabled.
  Fractional occupation disabled.
  Guess Type is SAD.
  Energy threshold   = 1.00e-08
  Density threshold  = 1.00e-08
  Integral threshold = 0.00e+00

  ==> Primary Basis <==

  -AO BASIS SET INFORMATION:
    Name                   = STO-3G
    Blend                  = STO-3G
    Total number of shells = 5
    Number of primitives   = 15
    Number of AO           = 7
    Number of SO           = 7
    Maximum AM             = 1
    Spherical Harmonics    = TRUE

  -Contraction Scheme:
    Atom   Type   All Primitives // Shells:
   ------ ------ --------------------------
       1     O     6s 3p // 2s 1p 
       2     H     3s // 1s 
       3     H     3s // 1s 

  ==> DFT Potential <==

   => Composite Functional: B86BPBE <= 

    B86BPBE GGA Exchange-Correlation Functional

    A. D. Becke, J. Chem. Phys. 85:7184, 1986.


    Deriv               =              1
    GGA                 =           TRUE
    Meta                =          FALSE

    Exchange Hybrid     =          FALSE
    MP2 Hybrid          =          FALSE

   => Exchange Functionals <=

    1.0000   XC_GGA_X_B86_MGC

   => Correlation Functionals <=

    1.0000     XC_GGA_C_PBE

   => XC_GGA_X_B86_MGC Functional <=

    Becke 86 with modified gradient correction
    A. D. Becke, J. Chem. Phys. 84, 4524 (1986)
    A. D. Becke, J. Chem. Phys. 85, 7184 (1986)
    GGA   =           TRUE
    Meta  =          FALSE
    LRC   =          FALSE
    Alpha =   1.000000E+00
    Omega =   0.000000E+00

   => XC_GGA_C_PBE Functional <=

    Perdew, Burke & Ernzerhof
    J. P. Perdew, K. Burke, and M. Ernzerhof, Phys. Rev. Lett. 77, 3865 (1996)
    J. P. Perdew, K. Burke, and M. Ernzerhof, Phys. Rev. Lett. 78, 1396 (1997)
    GGA   =           TRUE
    Meta  =          FALSE
    LRC   =          FALSE
    Alpha =   1.000000E+00
    Omega =   0.000000E+00

   => Molecular Quadrature <=

    Radial Scheme          =       TREUTLER
    Pruning Type           =       FUNCTION
    Pruning Scheme         =           FLAT
    Nuclear Scheme         =       TREUTLER

    BS radius alpha        =              1
    Pruning alpha          =              1
    Radial Points          =             99
    Spherical Points       =            302
    Total Points           =          88431
    Total Blocks           =            710
    Max Points             =            256
    Max Functions          =              7

   => Loading Basis Set <=

    Name: (STO-3G AUX)
    Role: JKFIT
    Keyword: DF_BASIS_SCF
    atoms 1   entry O          line   323 file /usr/qc/psi4fork.bin/share/psi4/basis/def2-svp-jkfit.gbs 
    atoms 2-3 entry H          line    23 file /usr/qc/psi4fork.bin/share/psi4/basis/def2-svp-jkfit.gbs 

  Starting with a DF guess...

  ==> Pre-Iterations <==

   -------------------------------------------------------
    Irrep   Nso     Nmo     Nalpha   Nbeta   Ndocc  Nsocc
   -------------------------------------------------------
     A1         4       4       0       0       0       0
     A2         0       0       0       0       0       0
     B1         1       1       0       0       0       0
     B2         2       2       0       0       0       0
   -------------------------------------------------------
    Total       7       7       5       5       5       0
   -------------------------------------------------------

  ==> Integral Setup <==

  DFHelper Memory: AOs need 0.000 GiB; user supplied 0.349 GiB. Using in-core AOs.

  ==> MemDFJK: Density-Fitted J/K Matrices <==

    J tasked:                   Yes
    K tasked:                    No
    wK tasked:                   No
    OpenMP threads:               6
    Memory [MiB]:               356
    Algorithm:                 Core
    Schwarz Cutoff:           1E-12
    Mask sparsity (%):       0.0000
    Fitting Condition:        1E-10

   => Auxiliary Basis Set <=

  -AO BASIS SET INFORMATION:
    Name                   = (STO-3G AUX)
    Blend                  = DEF2-SVP-JKFIT
    Total number of shells = 37
    Number of primitives   = 49
    Number of AO           = 133
    Number of SO           = 113
    Maximum AM             = 4
    Spherical Harmonics    = TRUE

  -Contraction Scheme:
    Atom   Type   All Primitives // Shells:
   ------ ------ --------------------------
       1     O     14s 10p 6d 2f 1g // 10s 8p 4d 2f 1g 
       2     H     4s 2p 2d // 2s 2p 2d 
       3     H     4s 2p 2d // 2s 2p 2d 

  Cached 100.0% of DFT collocation blocks in 0.018 [GiB].

  Minimum eigenvalue in the overlap matrix is 3.7028400386E-01.
  Using Symmetric Orthogonalization.

  SCF Guess: Superposition of Atomic Densities via on-the-fly atomic UHF.

  ==> Iterations <==

                           Total Energy        Delta E     RMS |[F,P]|

   @DF-RKS iter SAD:   -74.89103291723146   -7.48910e+01   0.00000e+00 
   @DF-RKS iter   1:   -75.28019680346551   -3.89164e-01   3.35886e-02 DIIS
   @DF-RKS iter   2:   -75.27621336549069    3.98344e-03   3.89985e-02 DIIS
   @DF-RKS iter   3:   -75.29811506320286   -2.19017e-02   6.68166e-04 DIIS
   @DF-RKS iter   4:   -75.29812120400874   -6.14081e-06   3.28890e-05 DIIS
   @DF-RKS iter   5:   -75.29812122438740   -2.03787e-08   6.53335e-07 DIIS
   @DF-RKS iter   6:   -75.29812122439446   -7.06279e-12   7.45376e-10 DIIS

  DF guess converged.

  ==> DirectJK: Integral-Direct J/K Matrices <==

    J tasked:                  Yes
    K tasked:                   No
    wK tasked:                  No
    Integrals threads:           6
    Schwarz Cutoff:          1E-12

   @RKS iter   7:   -75.29768003773168   -7.52977e+01   1.38412e-05 DIIS
   @RKS iter   8:   -75.29768003748435    2.47326e-10   1.14913e-05 DIIS
   @RKS iter   9:   -75.29768003928990   -1.80555e-09   2.23478e-06 DIIS
   @RKS iter  10:   -75.29768003935945   -6.95479e-11   2.35833e-08 DIIS
   @RKS iter  11:   -75.29768003935948   -2.84217e-14   5.38483e-10 DIIS
  Energy and wave function converged.


  ==> Post-Iterations <==

    Orbital Energies [Eh]
    ---------------------

    Doubly Occupied:                                                      

       1A1   -18.469368     2A1    -0.826334     1B2    -0.375490  
       3A1    -0.169205     1B1    -0.066800  

    Virtual:                                                              

       4A1     0.270742     2B2     0.374399  

    Final Occupation by Irrep:
             A1    A2    B1    B2 
    DOCC [     3,    0,    1,    1 ]

  @RKS Final Energy:   -75.29768003935948

   => Energetics <=

    Nuclear Repulsion Energy =              8.8014655645685895
    One-Electron Energy =                -121.6589630348885578
    Two-Electron Energy =                  46.9570550330090271
    DFT Exchange-Correlation Energy =      -9.3972376020485378
    Empirical Dispersion Energy =           0.0000000000000000
    VV10 Nonlocal Energy =                  0.0000000000000000
    Total Energy =                        -75.2976800393594772

Computation Completed


Properties will be evaluated at   0.000000,   0.000000,   0.000000 [a0]

Properties computed using the SCF density matrix

  Nuclear Dipole Moment: [e a0]
     X:     0.0000      Y:     0.0000      Z:     1.0191

  Electronic Dipole Moment: [e a0]
     X:     0.0000      Y:     0.0000      Z:    -0.3972

  Dipole Moment: [e a0]
     X:     0.0000      Y:     0.0000      Z:     0.6218     Total:     0.6218

  Dipole Moment: [D]
     X:     0.0000      Y:     0.0000      Z:     1.5805     Total:     1.5805


*** tstop() called on hokru at Mon May 20 21:59:58 2019
Module time:
	user time   =       5.07 seconds =       0.08 minutes
	system time =       0.13 seconds =       0.00 minutes
	total time  =          1 seconds =       0.02 minutes
Total time:
	user time   =      27.10 seconds =       0.45 minutes
	system time =       0.64 seconds =       0.01 minutes
	total time  =          5 seconds =       0.08 minutes
    RKS  0 1 B86BPBE Energy...........................................PASSED

*** tstart() called on hokru
*** at Mon May 20 21:59:58 2019

   => Loading Basis Set <=

    Name: STO-3G
    Role: ORBITAL
    Keyword: BASIS
    atoms 1   entry O          line    81 file /usr/qc/psi4fork.bin/share/psi4/basis/sto-3g.gbs 
    atoms 2-3 entry H          line    19 file /usr/qc/psi4fork.bin/share/psi4/basis/sto-3g.gbs 


         ---------------------------------------------------------
                                   SCF
               by Justin Turney, Rob Parrish, Andy Simmonett
                          and Daniel G. A. Smith
                              RKS Reference
                        6 Threads,    500 MiB Core
         ---------------------------------------------------------

  ==> Geometry <==

    Molecular point group: c2v
    Full point group: C2v

    Geometry (in Angstrom), charge = 0, multiplicity = 1:

       Center              X                  Y                   Z               Mass       
    ------------   -----------------  -----------------  -----------------  -----------------
         O            0.000000000000     0.000000000000    -0.068516219310    15.994914619570
         H            0.000000000000    -0.790689573744     0.543701060724     1.007825032230
         H           -0.000000000000     0.790689573744     0.543701060724     1.007825032230

  Running in c2v symmetry.

  Rotational constants: A =     25.12555  B =     13.37733  C =      8.72955 [cm^-1]
  Rotational constants: A = 753245.07150  B = 401042.16706  C = 261705.25473 [MHz]
  Nuclear repulsion =    8.801465564568590

  Charge       = 0
  Multiplicity = 1
  Electrons    = 10
  Nalpha       = 5
  Nbeta        = 5

  ==> Algorithm <==

  SCF Algorithm Type is DIRECT.
  DIIS enabled.
  MOM disabled.
  Fractional occupation disabled.
  Guess Type is SAD.
  Energy threshold   = 1.00e-08
  Density threshold  = 1.00e-08
  Integral threshold = 0.00e+00

  ==> Primary Basis <==

  -AO BASIS SET INFORMATION:
    Name                   = STO-3G
    Blend                  = STO-3G
    Total number of shells = 5
    Number of primitives   = 15
    Number of AO           = 7
    Number of SO           = 7
    Maximum AM             = 1
    Spherical Harmonics    = TRUE

  -Contraction Scheme:
    Atom   Type   All Primitives // Shells:
   ------ ------ --------------------------
       1     O     6s 3p // 2s 1p 
       2     H     3s // 1s 
       3     H     3s // 1s 

  ==> DFT Potential <==

   => Composite Functional: PW86PBE <= 

    PW86PBE GGA Exchange-Correlation Functional

    J. P. Perdew and W. Yue, Phys. Rev. B 33:8800(R), 1986.


    Deriv               =              1
    GGA                 =           TRUE
    Meta                =          FALSE

    Exchange Hybrid     =          FALSE
    MP2 Hybrid          =          FALSE

   => Exchange Functionals <=

    1.0000    XC_GGA_X_PW86

   => Correlation Functionals <=

    1.0000     XC_GGA_C_PBE

   => XC_GGA_X_PW86 Functional <=

    Perdew & Wang 86
    J. P. Perdew and W. Yue, Phys. Rev. B 33, 8800 (1986)
    GGA   =           TRUE
    Meta  =          FALSE
    LRC   =          FALSE
    Alpha =   1.000000E+00
    Omega =   0.000000E+00

   => XC_GGA_C_PBE Functional <=

    Perdew, Burke & Ernzerhof
    J. P. Perdew, K. Burke, and M. Ernzerhof, Phys. Rev. Lett. 77, 3865 (1996)
    J. P. Perdew, K. Burke, and M. Ernzerhof, Phys. Rev. Lett. 78, 1396 (1997)
    GGA   =           TRUE
    Meta  =          FALSE
    LRC   =          FALSE
    Alpha =   1.000000E+00
    Omega =   0.000000E+00

   => Molecular Quadrature <=

    Radial Scheme          =       TREUTLER
    Pruning Type           =       FUNCTION
    Pruning Scheme         =           FLAT
    Nuclear Scheme         =       TREUTLER

    BS radius alpha        =              1
    Pruning alpha          =              1
    Radial Points          =             99
    Spherical Points       =            302
    Total Points           =          88431
    Total Blocks           =            710
    Max Points             =            256
    Max Functions          =              7

   => Loading Basis Set <=

    Name: (STO-3G AUX)
    Role: JKFIT
    Keyword: DF_BASIS_SCF
    atoms 1   entry O          line   323 file /usr/qc/psi4fork.bin/share/psi4/basis/def2-svp-jkfit.gbs 
    atoms 2-3 entry H          line    23 file /usr/qc/psi4fork.bin/share/psi4/basis/def2-svp-jkfit.gbs 

  Starting with a DF guess...

  ==> Pre-Iterations <==

   -------------------------------------------------------
    Irrep   Nso     Nmo     Nalpha   Nbeta   Ndocc  Nsocc
   -------------------------------------------------------
     A1         4       4       0       0       0       0
     A2         0       0       0       0       0       0
     B1         1       1       0       0       0       0
     B2         2       2       0       0       0       0
   -------------------------------------------------------
    Total       7       7       5       5       5       0
   -------------------------------------------------------

  ==> Integral Setup <==

  DFHelper Memory: AOs need 0.000 GiB; user supplied 0.349 GiB. Using in-core AOs.

  ==> MemDFJK: Density-Fitted J/K Matrices <==

    J tasked:                   Yes
    K tasked:                    No
    wK tasked:                   No
    OpenMP threads:               6
    Memory [MiB]:               356
    Algorithm:                 Core
    Schwarz Cutoff:           1E-12
    Mask sparsity (%):       0.0000
    Fitting Condition:        1E-10

   => Auxiliary Basis Set <=

  -AO BASIS SET INFORMATION:
    Name                   = (STO-3G AUX)
    Blend                  = DEF2-SVP-JKFIT
    Total number of shells = 37
    Number of primitives   = 49
    Number of AO           = 133
    Number of SO           = 113
    Maximum AM             = 4
    Spherical Harmonics    = TRUE

  -Contraction Scheme:
    Atom   Type   All Primitives // Shells:
   ------ ------ --------------------------
       1     O     14s 10p 6d 2f 1g // 10s 8p 4d 2f 1g 
       2     H     4s 2p 2d // 2s 2p 2d 
       3     H     4s 2p 2d // 2s 2p 2d 

  Cached 100.0% of DFT collocation blocks in 0.018 [GiB].

  Minimum eigenvalue in the overlap matrix is 3.7028400386E-01.
  Using Symmetric Orthogonalization.

  SCF Guess: Superposition of Atomic Densities via on-the-fly atomic UHF.

  ==> Iterations <==

                           Total Energy        Delta E     RMS |[F,P]|

   @DF-RKS iter SAD:   -74.94451184157766   -7.49445e+01   0.00000e+00 
   @DF-RKS iter   1:   -75.33284809143001   -3.88336e-01   3.31516e-02 DIIS
   @DF-RKS iter   2:   -75.32881358884470    4.03450e-03   3.85938e-02 DIIS
   @DF-RKS iter   3:   -75.35031451482614   -2.15009e-02   6.84280e-04 DIIS
   @DF-RKS iter   4:   -75.35032090958096   -6.39475e-06   3.36596e-05 DIIS
   @DF-RKS iter   5:   -75.35032093078189   -2.12009e-08   6.45674e-07 DIIS
   @DF-RKS iter   6:   -75.35032093078887   -6.97753e-12   1.30474e-09 DIIS

  DF guess converged.

  ==> DirectJK: Integral-Direct J/K Matrices <==

    J tasked:                  Yes
    K tasked:                   No
    wK tasked:                  No
    Integrals threads:           6
    Schwarz Cutoff:          1E-12

   @RKS iter   7:   -75.34987955173638   -7.53499e+01   1.38742e-05 DIIS
   @RKS iter   8:   -75.34987955146637    2.70006e-10   1.16040e-05 DIIS
   @RKS iter   9:   -75.34987955331324   -1.84687e-09   2.22844e-06 DIIS
   @RKS iter  10:   -75.34987955338262   -6.93774e-11   2.34488e-08 DIIS
   @RKS iter  11:   -75.34987955338262    0.00000e+00   5.52956e-10 DIIS
  Energy and wave function converged.


  ==> Post-Iterations <==

    Orbital Energies [Eh]
    ---------------------

    Doubly Occupied:                                                      

       1A1   -18.487307     2A1    -0.826521     1B2    -0.375989  
       3A1    -0.170236     1B1    -0.066857  

    Virtual:                                                              

       4A1     0.268783     2B2     0.372460  

    Final Occupation by Irrep:
             A1    A2    B1    B2 
    DOCC [     3,    0,    1,    1 ]

  @RKS Final Energy:   -75.34987955338262

   => Energetics <=

    Nuclear Repulsion Energy =              8.8014655645685895
    One-Electron Energy =                -121.6456020789305654
    Two-Electron Energy =                  46.9424253437571650
    DFT Exchange-Correlation Energy =      -9.4481683827778120
    Empirical Dispersion Energy =           0.0000000000000000
    VV10 Nonlocal Energy =                  0.0000000000000000
    Total Energy =                        -75.3498795533826211

Computation Completed


Properties will be evaluated at   0.000000,   0.000000,   0.000000 [a0]

Properties computed using the SCF density matrix

  Nuclear Dipole Moment: [e a0]
     X:     0.0000      Y:     0.0000      Z:     1.0191

  Electronic Dipole Moment: [e a0]
     X:     0.0000      Y:     0.0000      Z:    -0.4027

  Dipole Moment: [e a0]
     X:     0.0000      Y:     0.0000      Z:     0.6164     Total:     0.6164

  Dipole Moment: [D]
     X:     0.0000      Y:     0.0000      Z:     1.5667     Total:     1.5667


*** tstop() called on hokru at Mon May 20 21:59:59 2019
Module time:
	user time   =       5.09 seconds =       0.08 minutes
	system time =       0.13 seconds =       0.00 minutes
	total time  =          1 seconds =       0.02 minutes
Total time:
	user time   =      32.23 seconds =       0.54 minutes
	system time =       0.77 seconds =       0.01 minutes
	total time  =          6 seconds =       0.10 minutes
    RKS  0 1 PW86PBE Energy...........................................PASSED

*** tstart() called on hokru
*** at Mon May 20 21:59:59 2019

   => Loading Basis Set <=

    Name: STO-3G
    Role: ORBITAL
    Keyword: BASIS
    atoms 1   entry O          line    81 file /usr/qc/psi4fork.bin/share/psi4/basis/sto-3g.gbs 
    atoms 2-3 entry H          line    19 file /usr/qc/psi4fork.bin/share/psi4/basis/sto-3g.gbs 


         ---------------------------------------------------------
                                   SCF
               by Justin Turney, Rob Parrish, Andy Simmonett
                          and Daniel G. A. Smith
                              RKS Reference
                        6 Threads,    500 MiB Core
         ---------------------------------------------------------

  ==> Geometry <==

    Molecular point group: c2v
    Full point group: C2v

    Geometry (in Angstrom), charge = 0, multiplicity = 1:

       Center              X                  Y                   Z               Mass       
    ------------   -----------------  -----------------  -----------------  -----------------
         O            0.000000000000     0.000000000000    -0.068516219310    15.994914619570
         H            0.000000000000    -0.790689573744     0.543701060724     1.007825032230
         H           -0.000000000000     0.790689573744     0.543701060724     1.007825032230

  Running in c2v symmetry.

  Rotational constants: A =     25.12555  B =     13.37733  C =      8.72955 [cm^-1]
  Rotational constants: A = 753245.07150  B = 401042.16706  C = 261705.25473 [MHz]
  Nuclear repulsion =    8.801465564568590

  Charge       = 0
  Multiplicity = 1
  Electrons    = 10
  Nalpha       = 5
  Nbeta        = 5

  ==> Algorithm <==

  SCF Algorithm Type is DIRECT.
  DIIS enabled.
  MOM disabled.
  Fractional occupation disabled.
  Guess Type is SAD.
  Energy threshold   = 1.00e-08
  Density threshold  = 1.00e-08
  Integral threshold = 0.00e+00

  ==> Primary Basis <==

  -AO BASIS SET INFORMATION:
    Name                   = STO-3G
    Blend                  = STO-3G
    Total number of shells = 5
    Number of primitives   = 15
    Number of AO           = 7
    Number of SO           = 7
    Maximum AM             = 1
    Spherical Harmonics    = TRUE

  -Contraction Scheme:
    Atom   Type   All Primitives // Shells:
   ------ ------ --------------------------
       1     O     6s 3p // 2s 1p 
       2     H     3s // 1s 
       3     H     3s // 1s 

  ==> DFT Potential <==

   => Composite Functional: M05 <= 

    M05 Meta-GGA XC Functional

    Y. Zhao and N. E. Schultz and D. G. Truhlar, J. Chem. Phys. 123, 161103, 2005


    Deriv               =              1
    GGA                 =           TRUE
    Meta                =           TRUE

    Exchange Hybrid     =           TRUE
    MP2 Hybrid          =          FALSE

   => Exchange Functionals <=

    1.0000   XC_HYB_MGGA_X_M05

   => Exact (HF) Exchange <=

    0.2800               HF 

   => Correlation Functionals <=

    1.0000    XC_MGGA_C_M05

   => XC_HYB_MGGA_X_M05 Functional <=

    Minnesota M05 hybrid exchange functional
    Y. Zhao, N. E. Schultz, and D. G. Truhlar, J. Chem. Phys. 123, 161103 (2005)
    GGA   =           TRUE
    Meta  =           TRUE
    LRC   =          FALSE
    Alpha =   1.000000E+00
    Omega =   0.000000E+00

   => XC_MGGA_C_M05 Functional <=

    Minnesota M05 correlation functional
    Y. Zhao, N. E. Schultz, and D. G. Truhlar, J. Chem. Phys. 123, 161103 (2005)
    GGA   =           TRUE
    Meta  =           TRUE
    LRC   =          FALSE
    Alpha =   1.000000E+00
    Omega =   0.000000E+00

   => Molecular Quadrature <=

    Radial Scheme          =       TREUTLER
    Pruning Type           =       FUNCTION
    Pruning Scheme         =           FLAT
    Nuclear Scheme         =       TREUTLER

    BS radius alpha        =              1
    Pruning alpha          =              1
    Radial Points          =             99
    Spherical Points       =            302
    Total Points           =          88431
    Total Blocks           =            710
    Max Points             =            256
    Max Functions          =              7

   => Loading Basis Set <=

    Name: (STO-3G AUX)
    Role: JKFIT
    Keyword: DF_BASIS_SCF
    atoms 1   entry O          line   323 file /usr/qc/psi4fork.bin/share/psi4/basis/def2-svp-jkfit.gbs 
    atoms 2-3 entry H          line    23 file /usr/qc/psi4fork.bin/share/psi4/basis/def2-svp-jkfit.gbs 

  Starting with a DF guess...

  ==> Pre-Iterations <==

   -------------------------------------------------------
    Irrep   Nso     Nmo     Nalpha   Nbeta   Ndocc  Nsocc
   -------------------------------------------------------
     A1         4       4       0       0       0       0
     A2         0       0       0       0       0       0
     B1         1       1       0       0       0       0
     B2         2       2       0       0       0       0
   -------------------------------------------------------
    Total       7       7       5       5       5       0
   -------------------------------------------------------

  ==> Integral Setup <==

  DFHelper Memory: AOs need 0.000 GiB; user supplied 0.322 GiB. Using in-core AOs.

  ==> MemDFJK: Density-Fitted J/K Matrices <==

    J tasked:                   Yes
    K tasked:                   Yes
    wK tasked:                   No
    OpenMP threads:               6
    Memory [MiB]:               329
    Algorithm:                 Core
    Schwarz Cutoff:           1E-12
    Mask sparsity (%):       0.0000
    Fitting Condition:        1E-10

   => Auxiliary Basis Set <=

  -AO BASIS SET INFORMATION:
    Name                   = (STO-3G AUX)
    Blend                  = DEF2-SVP-JKFIT
    Total number of shells = 37
    Number of primitives   = 49
    Number of AO           = 133
    Number of SO           = 113
    Maximum AM             = 4
    Spherical Harmonics    = TRUE

  -Contraction Scheme:
    Atom   Type   All Primitives // Shells:
   ------ ------ --------------------------
       1     O     14s 10p 6d 2f 1g // 10s 8p 4d 2f 1g 
       2     H     4s 2p 2d // 2s 2p 2d 
       3     H     4s 2p 2d // 2s 2p 2d 

  Cached 100.0% of DFT collocation blocks in 0.044 [GiB].

  Minimum eigenvalue in the overlap matrix is 3.7028400386E-01.
  Using Symmetric Orthogonalization.

  SCF Guess: Superposition of Atomic Densities via on-the-fly atomic UHF.

  ==> Iterations <==

                           Total Energy        Delta E     RMS |[F,P]|

   @DF-RKS iter SAD:   -74.81516765260479   -7.48152e+01   0.00000e+00 
   @DF-RKS iter   1:   -75.29320074559794   -4.78033e-01   4.15149e-02 DIIS
   @DF-RKS iter   2:   -75.30750768218905   -1.43069e-02   3.14767e-02 DIIS
   @DF-RKS iter   3:   -75.32137463809038   -1.38670e-02   1.64680e-04 DIIS
   @DF-RKS iter   4:   -75.32137487922695   -2.41137e-07   2.68592e-05 DIIS
   @DF-RKS iter   5:   -75.32137489002371   -1.07968e-08   1.36555e-06 DIIS
   @DF-RKS iter   6:   -75.32137489006523   -4.15241e-11   9.52544e-09 DIIS

  DF guess converged.

  ==> DirectJK: Integral-Direct J/K Matrices <==

    J tasked:                  Yes
    K tasked:                  Yes
    wK tasked:                  No
    Integrals threads:           6
    Schwarz Cutoff:          1E-12

   @RKS iter   7:   -75.32103345082569   -7.53210e+01   1.31964e-05 DIIS
   @RKS iter   8:   -75.32103345174480   -9.19101e-10   8.05744e-06 DIIS
   @RKS iter   9:   -75.32103345263612   -8.91319e-10   8.72656e-07 DIIS
   @RKS iter  10:   -75.32103345264674   -1.06297e-11   1.45156e-09 DIIS
  Energy and wave function converged.


  ==> Post-Iterations <==

    Orbital Energies [Eh]
    ---------------------

    Doubly Occupied:                                                      

       1A1   -18.937923     2A1    -0.931556     1B2    -0.443720  
       3A1    -0.236827     1B1    -0.133728  

    Virtual:                                                              

       4A1     0.337138     2B2     0.440246  

    Final Occupation by Irrep:
             A1    A2    B1    B2 
    DOCC [     3,    0,    1,    1 ]

  @RKS Final Energy:   -75.32103345264674

   => Energetics <=

    Nuclear Repulsion Energy =              8.8014655645685895
    One-Electron Energy =                -121.7518207869122335
    Two-Electron Energy =                  44.5189162462092725
    DFT Exchange-Correlation Energy =      -6.8895944765123716
    Empirical Dispersion Energy =           0.0000000000000000
    VV10 Nonlocal Energy =                  0.0000000000000000
    Total Energy =                        -75.3210334526467449

Computation Completed


Properties will be evaluated at   0.000000,   0.000000,   0.000000 [a0]

Properties computed using the SCF density matrix

  Nuclear Dipole Moment: [e a0]
     X:     0.0000      Y:     0.0000      Z:     1.0191

  Electronic Dipole Moment: [e a0]
     X:     0.0000      Y:     0.0000      Z:    -0.3546

  Dipole Moment: [e a0]
     X:     0.0000      Y:     0.0000      Z:     0.6645     Total:     0.6645

  Dipole Moment: [D]
     X:     0.0000      Y:     0.0000      Z:     1.6889     Total:     1.6889


*** tstop() called on hokru at Mon May 20 22:00:00 2019
Module time:
	user time   =       5.45 seconds =       0.09 minutes
	system time =       0.14 seconds =       0.00 minutes
	total time  =          1 seconds =       0.02 minutes
Total time:
	user time   =      37.73 seconds =       0.63 minutes
	system time =       0.91 seconds =       0.02 minutes
	total time  =          7 seconds =       0.12 minutes
    RKS  0 1     M05 Energy...........................................PASSED

*** tstart() called on hokru
*** at Mon May 20 22:00:00 2019

   => Loading Basis Set <=

    Name: STO-3G
    Role: ORBITAL
    Keyword: BASIS
    atoms 1   entry O          line    81 file /usr/qc/psi4fork.bin/share/psi4/basis/sto-3g.gbs 
    atoms 2-3 entry H          line    19 file /usr/qc/psi4fork.bin/share/psi4/basis/sto-3g.gbs 


         ---------------------------------------------------------
                                   SCF
               by Justin Turney, Rob Parrish, Andy Simmonett
                          and Daniel G. A. Smith
                              UKS Reference
                        6 Threads,    500 MiB Core
         ---------------------------------------------------------

  ==> Geometry <==

    Molecular point group: c2v
    Full point group: C2v

    Geometry (in Angstrom), charge = 0, multiplicity = 1:

       Center              X                  Y                   Z               Mass       
    ------------   -----------------  -----------------  -----------------  -----------------
         O            0.000000000000     0.000000000000    -0.068516219310    15.994914619570
         H            0.000000000000    -0.790689573744     0.543701060724     1.007825032230
         H           -0.000000000000     0.790689573744     0.543701060724     1.007825032230

  Running in c2v symmetry.

  Rotational constants: A =     25.12555  B =     13.37733  C =      8.72955 [cm^-1]
  Rotational constants: A = 753245.07150  B = 401042.16706  C = 261705.25473 [MHz]
  Nuclear repulsion =    8.801465564568590

  Charge       = 0
  Multiplicity = 1
  Electrons    = 10
  Nalpha       = 5
  Nbeta        = 5

  ==> Algorithm <==

  SCF Algorithm Type is DIRECT.
  DIIS enabled.
  MOM disabled.
  Fractional occupation disabled.
  Guess Type is SAD.
  Energy threshold   = 1.00e-08
  Density threshold  = 1.00e-08
  Integral threshold = 0.00e+00

  ==> Primary Basis <==

  -AO BASIS SET INFORMATION:
    Name                   = STO-3G
    Blend                  = STO-3G
    Total number of shells = 5
    Number of primitives   = 15
    Number of AO           = 7
    Number of SO           = 7
    Maximum AM             = 1
    Spherical Harmonics    = TRUE

  -Contraction Scheme:
    Atom   Type   All Primitives // Shells:
   ------ ------ --------------------------
       1     O     6s 3p // 2s 1p 
       2     H     3s // 1s 
       3     H     3s // 1s 

  ==> DFT Potential <==

   => Composite Functional: SVWN <= 

    SVWN3 (RPA) LSDA Functional

    Adamson et. al., J. Comput. Chem., 20(9), 921-927, 1999


    Deriv               =              1
    GGA                 =          FALSE
    Meta                =          FALSE

    Exchange Hybrid     =          FALSE
    MP2 Hybrid          =          FALSE

   => Exchange Functionals <=

    1.0000         XC_LDA_X

   => Correlation Functionals <=

    1.0000   XC_LDA_C_VWN_RPA

   => XC_LDA_X Functional <=

    Slater exchange
    P. A. M. Dirac, Math. Proc. Cambridge Philos. Soc. 26, 376 (1930)
    F. Bloch, Z. Phys. 57, 545 (1929)
    GGA   =          FALSE
    Meta  =          FALSE
    LRC   =          FALSE
    Alpha =   1.000000E+00
    Omega =   0.000000E+00

   => XC_LDA_C_VWN_RPA Functional <=

    Vosko, Wilk & Nusair (VWN5_RPA)
    S. H. Vosko, L. Wilk, and M. Nusair, Can. J. Phys. 58, 1200 (1980)
    GGA   =          FALSE
    Meta  =          FALSE
    LRC   =          FALSE
    Alpha =   1.000000E+00
    Omega =   0.000000E+00

   => Molecular Quadrature <=

    Radial Scheme          =       TREUTLER
    Pruning Type           =       FUNCTION
    Pruning Scheme         =           FLAT
    Nuclear Scheme         =       TREUTLER

    BS radius alpha        =              1
    Pruning alpha          =              1
    Radial Points          =             99
    Spherical Points       =            302
    Total Points           =          88431
    Total Blocks           =            710
    Max Points             =            256
    Max Functions          =              7

   => Loading Basis Set <=

    Name: (STO-3G AUX)
    Role: JKFIT
    Keyword: DF_BASIS_SCF
    atoms 1   entry O          line   323 file /usr/qc/psi4fork.bin/share/psi4/basis/def2-svp-jkfit.gbs 
    atoms 2-3 entry H          line    23 file /usr/qc/psi4fork.bin/share/psi4/basis/def2-svp-jkfit.gbs 

  Starting with a DF guess...

  ==> Pre-Iterations <==

   -------------------------------------------------------
    Irrep   Nso     Nmo     Nalpha   Nbeta   Ndocc  Nsocc
   -------------------------------------------------------
     A1         4       4       0       0       0       0
     A2         0       0       0       0       0       0
     B1         1       1       0       0       0       0
     B2         2       2       0       0       0       0
   -------------------------------------------------------
    Total       7       7       5       5       5       0
   -------------------------------------------------------

  ==> Integral Setup <==

  DFHelper Memory: AOs need 0.000 GiB; user supplied 0.362 GiB. Using in-core AOs.

  ==> MemDFJK: Density-Fitted J/K Matrices <==

    J tasked:                   Yes
    K tasked:                    No
    wK tasked:                   No
    OpenMP threads:               6
    Memory [MiB]:               370
    Algorithm:                 Core
    Schwarz Cutoff:           1E-12
    Mask sparsity (%):       0.0000
    Fitting Condition:        1E-10

   => Auxiliary Basis Set <=

  -AO BASIS SET INFORMATION:
    Name                   = (STO-3G AUX)
    Blend                  = DEF2-SVP-JKFIT
    Total number of shells = 37
    Number of primitives   = 49
    Number of AO           = 133
    Number of SO           = 113
    Maximum AM             = 4
    Spherical Harmonics    = TRUE

  -Contraction Scheme:
    Atom   Type   All Primitives // Shells:
   ------ ------ --------------------------
       1     O     14s 10p 6d 2f 1g // 10s 8p 4d 2f 1g 
       2     H     4s 2p 2d // 2s 2p 2d 
       3     H     4s 2p 2d // 2s 2p 2d 

  Cached 100.0% of DFT collocation blocks in 0.004 [GiB].

  Minimum eigenvalue in the overlap matrix is 3.7028400386E-01.
  Using Symmetric Orthogonalization.

  SCF Guess: Superposition of Atomic Densities via on-the-fly atomic UHF.

  ==> Iterations <==

                           Total Energy        Delta E     RMS |[F,P]|

   @DF-UKS iter SAD:   -74.53491654368852   -7.45349e+01   0.00000e+00 
   @DF-UKS iter   1:   -74.91680977249281   -3.81893e-01   3.51322e-02 DIIS
   @DF-UKS iter   2:   -74.91201423751818    4.79553e-03   4.12354e-02 DIIS
   @DF-UKS iter   3:   -74.93613963204422   -2.41254e-02   6.67786e-04 DIIS
   @DF-UKS iter   4:   -74.93614603322669   -6.40118e-06   2.78735e-05 DIIS
   @DF-UKS iter   5:   -74.93614604832004   -1.50933e-08   9.73049e-07 DIIS
[...]

  Running in c2v symmetry.

  Rotational constants: A =     25.12555  B =     13.37733  C =      8.72955 [cm^-1]
  Rotational constants: A = 753245.07149  B = 401042.16706  C = 261705.25473 [MHz]
  Nuclear repulsion =    8.801465564567374

  Charge       = -1
  Multiplicity = 2
  Electrons    = 11
  Nalpha       = 6
  Nbeta        = 5

  ==> Algorithm <==

  SCF Algorithm Type is DIRECT.
  DIIS enabled.
  MOM disabled.
  Fractional occupation disabled.
  Guess Type is SAD.
  Energy threshold   = 1.00e-08
  Density threshold  = 1.00e-08
  Integral threshold = 0.00e+00

  ==> Primary Basis <==

  -AO BASIS SET INFORMATION:
    Name                   = STO-3G
    Blend                  = STO-3G
    Total number of shells = 5
    Number of primitives   = 15
    Number of AO           = 7
    Number of SO           = 7
    Maximum AM             = 1
    Spherical Harmonics    = TRUE

  -Contraction Scheme:
    Atom   Type   All Primitives // Shells:
   ------ ------ --------------------------
       1     O     6s 3p // 2s 1p 
       2     H     3s // 1s 
       3     H     3s // 1s 

  ==> DFT Potential <==

   => Composite Functional: PW86PBE <= 

    PW86PBE GGA Exchange-Correlation Functional

    J. P. Perdew and W. Yue, Phys. Rev. B 33:8800(R), 1986.


    Deriv               =              1
    GGA                 =           TRUE
    Meta                =          FALSE

    Exchange Hybrid     =          FALSE
    MP2 Hybrid          =          FALSE

   => Exchange Functionals <=

    1.0000    XC_GGA_X_PW86

   => Correlation Functionals <=

    1.0000     XC_GGA_C_PBE

   => XC_GGA_X_PW86 Functional <=

    Perdew & Wang 86
    J. P. Perdew and W. Yue, Phys. Rev. B 33, 8800 (1986)
    GGA   =           TRUE
    Meta  =          FALSE
    LRC   =          FALSE
    Alpha =   1.000000E+00
    Omega =   0.000000E+00

   => XC_GGA_C_PBE Functional <=

    Perdew, Burke & Ernzerhof
    J. P. Perdew, K. Burke, and M. Ernzerhof, Phys. Rev. Lett. 77, 3865 (1996)
    J. P. Perdew, K. Burke, and M. Ernzerhof, Phys. Rev. Lett. 78, 1396 (1997)
    GGA   =           TRUE
    Meta  =          FALSE
    LRC   =          FALSE
    Alpha =   1.000000E+00
    Omega =   0.000000E+00

   => Molecular Quadrature <=

    Radial Scheme          =       TREUTLER
    Pruning Type           =       FUNCTION
    Pruning Scheme         =           FLAT
    Nuclear Scheme         =       TREUTLER

    BS radius alpha        =              1
    Pruning alpha          =              1
    Radial Points          =             99
    Spherical Points       =            302
    Total Points           =          88431
    Total Blocks           =            710
    Max Points             =            256
    Max Functions          =              7

   => Loading Basis Set <=

    Name: (STO-3G AUX)
    Role: JKFIT
    Keyword: DF_BASIS_SCF
    atoms 1   entry O          line   323 file /usr/qc/psi4fork.bin/share/psi4/basis/def2-svp-jkfit.gbs 
    atoms 2-3 entry H          line    23 file /usr/qc/psi4fork.bin/share/psi4/basis/def2-svp-jkfit.gbs 

  Starting with a DF guess...

  ==> Pre-Iterations <==

   -------------------------------------------------------
    Irrep   Nso     Nmo     Nalpha   Nbeta   Ndocc  Nsocc
   -------------------------------------------------------
     A1         4       4       0       0       0       0
     A2         0       0       0       0       0       0
     B1         1       1       0       0       0       0
     B2         2       2       0       0       0       0
   -------------------------------------------------------
    Total       7       7       6       5       5       1
   -------------------------------------------------------

  ==> Integral Setup <==

  DFHelper Memory: AOs need 0.000 GiB; user supplied 0.349 GiB. Using in-core AOs.

  ==> MemDFJK: Density-Fitted J/K Matrices <==

    J tasked:                   Yes
    K tasked:                    No
    wK tasked:                   No
    OpenMP threads:               6
    Memory [MiB]:               356
    Algorithm:                 Core
    Schwarz Cutoff:           1E-12
    Mask sparsity (%):       0.0000
    Fitting Condition:        1E-10

   => Auxiliary Basis Set <=

  -AO BASIS SET INFORMATION:
    Name                   = (STO-3G AUX)
    Blend                  = DEF2-SVP-JKFIT
    Total number of shells = 37
    Number of primitives   = 49
    Number of AO           = 133
    Number of SO           = 113
    Maximum AM             = 4
    Spherical Harmonics    = TRUE

  -Contraction Scheme:
    Atom   Type   All Primitives // Shells:
   ------ ------ --------------------------
       1     O     14s 10p 6d 2f 1g // 10s 8p 4d 2f 1g 
       2     H     4s 2p 2d // 2s 2p 2d 
       3     H     4s 2p 2d // 2s 2p 2d 

  Cached 100.0% of DFT collocation blocks in 0.018 [GiB].

  Minimum eigenvalue in the overlap matrix is 3.7028400386E-01.
  Using Symmetric Orthogonalization.

  SCF Guess: Superposition of Atomic Densities via on-the-fly atomic UHF.

  ==> Iterations <==

                           Total Energy        Delta E     RMS |[F,P]|

   @DF-UKS iter SAD:   -74.94451184156767   -7.49445e+01   0.00000e+00 
   @DF-UKS iter   1:   -74.79979190996053    1.44720e-01   5.31876e-02 DIIS
   @DF-UKS iter   2:   -74.81502816341651   -1.52363e-02   4.29558e-02 DIIS
   @DF-UKS iter   3:   -74.84507396613685   -3.00458e-02   6.48068e-04 DIIS
   @DF-UKS iter   4:   -74.84508152673575   -7.56060e-06   3.00857e-05 DIIS
   @DF-UKS iter   5:   -74.84508155901226   -3.22765e-08   2.77497e-06 DIIS
   @DF-UKS iter   6:   -74.84508155928592   -2.73658e-10   3.42875e-08 DIIS
   @DF-UKS iter   7:   -74.84508155928592    0.00000e+00   3.33229e-10 DIIS

  DF guess converged.

  ==> DirectJK: Integral-Direct J/K Matrices <==

    J tasked:                  Yes
    K tasked:                   No
    wK tasked:                  No
    Integrals threads:           6
    Schwarz Cutoff:          1E-12

   @UKS iter   8:   -74.84453705966614   -7.48445e+01   2.78383e-05 DIIS
   @UKS iter   9:   -74.84453706313261   -3.46647e-09   2.32498e-05 DIIS
   @UKS iter  10:   -74.84453707167020   -8.53760e-09   3.14112e-07 DIIS
   @UKS iter  11:   -74.84453707167184   -1.63425e-12   1.85582e-08 DIIS
   @UKS iter  12:   -74.84453707167185   -1.42109e-14   2.17142e-09 DIIS
  Energy and wave function converged.


  ==> Post-Iterations <==

   @Spin Contamination Metric:   7.246519107E-04
   @S^2 Expected:                7.500000000E-01
   @S^2 Observed:                7.507246519E-01
   @S   Expected:                5.000000000E-01
   @S   Observed:                5.000000000E-01

    Orbital Energies [Eh]
    ---------------------

    Alpha Occupied:                                                       

       1A1   -17.814859     2A1    -0.299601     1B2     0.126188  
       3A1     0.296585     1B1     0.441142     4A1     0.752440  

    Alpha Virtual:                                                        

       2B2     0.857121  

    Beta Occupied:                                                        

       1A1   -17.801496     2A1    -0.264047     1B2     0.153410  
       3A1     0.325777     1B1     0.460161  

    Beta Virtual:                                                         

       4A1     0.838392     2B2     0.897517  

    Final Occupation by Irrep:
             A1    A2    B1    B2 
    DOCC [     3,    0,    1,    1 ]
    SOCC [     1,    0,    0,    0 ]

  @UKS Final Energy:   -74.84453707167185

   => Energetics <=

    Nuclear Repulsion Energy =              8.8014655645673745
    One-Electron Energy =                -126.4327003447020132
    Two-Electron Energy =                  52.8414213257632639
    DFT Exchange-Correlation Energy =     -10.0547236173004855
    Empirical Dispersion Energy =           0.0000000000000000
    VV10 Nonlocal Energy =                  0.0000000000000000
    Total Energy =                        -74.8445370716718514

  UHF NO Occupations:
  HONO-2 :    3 A1 2.0000000
  HONO-1 :    1 B2 1.9996376
  HONO-0 :    4 A1 1.0000000
  LUNO+0 :    2 B2 0.0003624


Computation Completed


Properties will be evaluated at   0.000000,   0.000000,   0.000000 [a0]

Properties computed using the SCF density matrix

  Nuclear Dipole Moment: [e a0]
     X:     0.0000      Y:     0.0000      Z:     1.0191

  Electronic Dipole Moment: [e a0]
     X:     0.0000      Y:     0.0000      Z:    -1.3818

  Dipole Moment: [e a0]
     X:     0.0000      Y:     0.0000      Z:    -0.3627     Total:     0.3627

  Dipole Moment: [D]
     X:     0.0000      Y:     0.0000      Z:    -0.9220     Total:     0.9220


*** tstop() called on hokru at Mon May 20 22:00:50 2019
Module time:
	user time   =      13.94 seconds =       0.23 minutes
	system time =       0.34 seconds =       0.01 minutes
	total time  =          2 seconds =       0.03 minutes
Total time:
	user time   =     330.85 seconds =       5.51 minutes
	system time =       9.09 seconds =       0.15 minutes
	total time  =         57 seconds =       0.95 minutes
    UKS -1 2 PW86PBE Energy...........................................PASSED

*** tstart() called on hokru
*** at Mon May 20 22:00:50 2019

   => Loading Basis Set <=

    Name: STO-3G
    Role: ORBITAL
    Keyword: BASIS
    atoms 1   entry O          line    81 file /usr/qc/psi4fork.bin/share/psi4/basis/sto-3g.gbs 
    atoms 2-3 entry H          line    19 file /usr/qc/psi4fork.bin/share/psi4/basis/sto-3g.gbs 


         ---------------------------------------------------------
                                   SCF
               by Justin Turney, Rob Parrish, Andy Simmonett
                          and Daniel G. A. Smith
                              UKS Reference
                        6 Threads,    500 MiB Core
         ---------------------------------------------------------

  ==> Geometry <==

    Molecular point group: c2v
    Full point group: C2v

    Geometry (in Angstrom), charge = -1, multiplicity = 2:

       Center              X                  Y                   Z               Mass       
    ------------   -----------------  -----------------  -----------------  -----------------
         O            0.000000000000     0.000000000000    -0.068516219320    15.994914619570
         H            0.000000000000    -0.790689573744     0.543701060715     1.007825032230
         H            0.000000000000     0.790689573744     0.543701060715     1.007825032230

  Running in c2v symmetry.

  Rotational constants: A =     25.12555  B =     13.37733  C =      8.72955 [cm^-1]
  Rotational constants: A = 753245.07149  B = 401042.16706  C = 261705.25473 [MHz]
  Nuclear repulsion =    8.801465564567374

  Charge       = -1
  Multiplicity = 2
  Electrons    = 11
  Nalpha       = 6
  Nbeta        = 5

  ==> Algorithm <==

  SCF Algorithm Type is DIRECT.
  DIIS enabled.
  MOM disabled.
  Fractional occupation disabled.
  Guess Type is SAD.
  Energy threshold   = 1.00e-08
  Density threshold  = 1.00e-08
  Integral threshold = 0.00e+00

  ==> Primary Basis <==

  -AO BASIS SET INFORMATION:
    Name                   = STO-3G
    Blend                  = STO-3G
    Total number of shells = 5
    Number of primitives   = 15
    Number of AO           = 7
    Number of SO           = 7
    Maximum AM             = 1
    Spherical Harmonics    = TRUE

  -Contraction Scheme:
    Atom   Type   All Primitives // Shells:
   ------ ------ --------------------------
       1     O     6s 3p // 2s 1p 
       2     H     3s // 1s 
       3     H     3s // 1s 

  ==> DFT Potential <==

   => Composite Functional: M05 <= 

    M05 Meta-GGA XC Functional

    Y. Zhao and N. E. Schultz and D. G. Truhlar, J. Chem. Phys. 123, 161103, 2005


    Deriv               =              1
    GGA                 =           TRUE
    Meta                =           TRUE

    Exchange Hybrid     =           TRUE
    MP2 Hybrid          =          FALSE

   => Exchange Functionals <=

    1.0000   XC_HYB_MGGA_X_M05

   => Exact (HF) Exchange <=

    0.2800               HF 

   => Correlation Functionals <=

    1.0000    XC_MGGA_C_M05

   => XC_HYB_MGGA_X_M05 Functional <=

    Minnesota M05 hybrid exchange functional
    Y. Zhao, N. E. Schultz, and D. G. Truhlar, J. Chem. Phys. 123, 161103 (2005)
    GGA   =           TRUE
    Meta  =           TRUE
    LRC   =          FALSE
    Alpha =   1.000000E+00
    Omega =   0.000000E+00

   => XC_MGGA_C_M05 Functional <=

    Minnesota M05 correlation functional
    Y. Zhao, N. E. Schultz, and D. G. Truhlar, J. Chem. Phys. 123, 161103 (2005)
    GGA   =           TRUE
    Meta  =           TRUE
    LRC   =          FALSE
    Alpha =   1.000000E+00
    Omega =   0.000000E+00

   => Molecular Quadrature <=

    Radial Scheme          =       TREUTLER
    Pruning Type           =       FUNCTION
    Pruning Scheme         =           FLAT
    Nuclear Scheme         =       TREUTLER

    BS radius alpha        =              1
    Pruning alpha          =              1
    Radial Points          =             99
    Spherical Points       =            302
    Total Points           =          88431
    Total Blocks           =            710
    Max Points             =            256
    Max Functions          =              7

   => Loading Basis Set <=

    Name: (STO-3G AUX)
    Role: JKFIT
    Keyword: DF_BASIS_SCF
    atoms 1   entry O          line   323 file /usr/qc/psi4fork.bin/share/psi4/basis/def2-svp-jkfit.gbs 
    atoms 2-3 entry H          line    23 file /usr/qc/psi4fork.bin/share/psi4/basis/def2-svp-jkfit.gbs 

  Starting with a DF guess...

  ==> Pre-Iterations <==

   -------------------------------------------------------
    Irrep   Nso     Nmo     Nalpha   Nbeta   Ndocc  Nsocc
   -------------------------------------------------------
     A1         4       4       0       0       0       0
     A2         0       0       0       0       0       0
     B1         1       1       0       0       0       0
     B2         2       2       0       0       0       0
   -------------------------------------------------------
    Total       7       7       6       5       5       1
   -------------------------------------------------------

  ==> Integral Setup <==

  DFHelper Memory: AOs need 0.000 GiB; user supplied 0.322 GiB. Using in-core AOs.

  ==> MemDFJK: Density-Fitted J/K Matrices <==

    J tasked:                   Yes
    K tasked:                   Yes
    wK tasked:                   No
    OpenMP threads:               6
    Memory [MiB]:               329
    Algorithm:                 Core
    Schwarz Cutoff:           1E-12
    Mask sparsity (%):       0.0000
    Fitting Condition:        1E-10

   => Auxiliary Basis Set <=

  -AO BASIS SET INFORMATION:
    Name                   = (STO-3G AUX)
    Blend                  = DEF2-SVP-JKFIT
    Total number of shells = 37
    Number of primitives   = 49
    Number of AO           = 133
    Number of SO           = 113
    Maximum AM             = 4
    Spherical Harmonics    = TRUE

  -Contraction Scheme:
    Atom   Type   All Primitives // Shells:
   ------ ------ --------------------------
       1     O     14s 10p 6d 2f 1g // 10s 8p 4d 2f 1g 
       2     H     4s 2p 2d // 2s 2p 2d 
       3     H     4s 2p 2d // 2s 2p 2d 

  Cached 100.0% of DFT collocation blocks in 0.044 [GiB].

  Minimum eigenvalue in the overlap matrix is 3.7028400386E-01.
  Using Symmetric Orthogonalization.

  SCF Guess: Superposition of Atomic Densities via on-the-fly atomic UHF.

  ==> Iterations <==

                           Total Energy        Delta E     RMS |[F,P]|

   @DF-UKS iter SAD:   -74.81516765259508   -7.48152e+01   0.00000e+00 
   @DF-UKS iter   1:   -74.74210988687182    7.30578e-02   6.01347e-02 DIIS
   @DF-UKS iter   2:   -74.78575910470342   -4.36492e-02   3.12265e-02 DIIS
   @DF-UKS iter   3:   -74.80166523456623   -1.59061e-02   5.35229e-04 DIIS
   @DF-UKS iter   4:   -74.80167218839296   -6.95383e-06   7.45385e-05 DIIS
   @DF-UKS iter   5:   -74.80167239001028   -2.01617e-07   1.23447e-05 DIIS
   @DF-UKS iter   6:   -74.80167239518639   -5.17610e-09   9.28647e-07 DIIS
   @DF-UKS iter   7:   -74.80167239520847   -2.20837e-11   1.85297e-08 DIIS
   @DF-UKS iter   8:   -74.80167239520847    0.00000e+00   4.35850e-10 DIIS

  DF guess converged.

  ==> DirectJK: Integral-Direct J/K Matrices <==

    J tasked:                  Yes
    K tasked:                  Yes
    wK tasked:                  No
    Integrals threads:           6
    Schwarz Cutoff:          1E-12

   @UKS iter   9:   -74.80126202585464   -7.48013e+01   2.58757e-05 DIIS
   @UKS iter  10:   -74.80126203404663   -8.19199e-09   1.32278e-05 DIIS
   @UKS iter  11:   -74.80126203681257   -2.76594e-09   5.50971e-07 DIIS
   @UKS iter  12:   -74.80126203682333   -1.07576e-11   1.52558e-07 DIIS
   @UKS iter  13:   -74.80126203682420   -8.66862e-13   7.32837e-09 DIIS
  Energy and wave function converged.


  ==> Post-Iterations <==

   @Spin Contamination Metric:   4.086324202E-04
   @S^2 Expected:                7.500000000E-01
   @S^2 Observed:                7.504086324E-01
   @S   Expected:                5.000000000E-01
   @S   Observed:                5.000000000E-01

    Orbital Energies [Eh]
    ---------------------

    Alpha Occupied:                                                       

       1A1   -18.278331     2A1    -0.411451     1B2     0.045494  
       3A1     0.224425     1B1     0.363207     4A1     0.704468  

    Alpha Virtual:                                                        

       2B2     0.910616  

    Beta Occupied:                                                        

       1A1   -18.262486     2A1    -0.371528     1B2     0.081794  
       3A1     0.255456     1B1     0.390887  

    Beta Virtual:                                                         

       4A1     0.904047     2B2     0.962628  

    Final Occupation by Irrep:
             A1    A2    B1    B2 
    DOCC [     3,    0,    1,    1 ]
    SOCC [     1,    0,    0,    0 ]

  @UKS Final Energy:   -74.80126203682420

   => Energetics <=

    Nuclear Repulsion Energy =              8.8014655645673745
    One-Electron Energy =                -126.4978665019243635
    Two-Electron Energy =                  50.2150802533962235
    DFT Exchange-Correlation Energy =      -7.3199413528634434
    Empirical Dispersion Energy =           0.0000000000000000
    VV10 Nonlocal Energy =                  0.0000000000000000
    Total Energy =                        -74.8012620368241983

  UHF NO Occupations:
  HONO-2 :    3 A1 2.0000000
  HONO-1 :    1 B2 1.9997957
  HONO-0 :    4 A1 1.0000000
  LUNO+0 :    2 B2 0.0002043


Computation Completed


Properties will be evaluated at   0.000000,   0.000000,   0.000000 [a0]

Properties computed using the SCF density matrix

  Nuclear Dipole Moment: [e a0]
     X:     0.0000      Y:     0.0000      Z:     1.0191

  Electronic Dipole Moment: [e a0]
     X:     0.0000      Y:     0.0000      Z:    -1.3548

  Dipole Moment: [e a0]
     X:     0.0000      Y:     0.0000      Z:    -0.3357     Total:     0.3357

  Dipole Moment: [D]
     X:     0.0000      Y:     0.0000      Z:    -0.8533     Total:     0.8533


*** tstop() called on hokru at Mon May 20 22:00:55 2019
Module time:
	user time   =      25.72 seconds =       0.43 minutes
	system time =       0.52 seconds =       0.01 minutes
	total time  =          5 seconds =       0.08 minutes
Total time:
	user time   =     356.61 seconds =       5.94 minutes
	system time =       9.61 seconds =       0.16 minutes
	total time  =         62 seconds =       1.03 minutes
    UKS -1 2     M05 Energy...........................................PASSED

    Psi4 stopped on: Monday, 20 May 2019 10:00PM
    Psi4 wall time for execution: 0:01:01.24

*** Psi4 exiting successfully. Buy a developer a beer!
