
    -----------------------------------------------------------------------
          Psi4: An Open-Source Ab Initio Electronic Structure Package
                               Psi4 1.1rc3.dev5 

                         Git: Rev {master} 3fbd859 


    R. M. Parrish, L. A. Burns, D. G. A. Smith, A. C. Simmonett,
    A. E. DePrince III, E. G. Hohenstein, U. Bozkaya, A. Yu. Sokolov,
    R. Di Remigio, R. M. Richard, J. F. Gonthier, A. M. James,
    H. R. McAlexander, A. Kumar, M. Saitow, X. Wang, B. P. Pritchard,
    P. Verma, H. F. Schaefer III, K. Patkowski, R. A. King, E. F. Valeev,
    F. A. Evangelista, J. M. Turney, T. D. Crawford, and C. D. Sherrill,
    J. Chem. Theory Comput. in press (2017).
    (doi: 10.1021/acs.jctc.7b00174)

    -----------------------------------------------------------------------


    Psi4 started on: Monday, 15 May 2017 03:36PM

    Process ID:  14118
    PSIDATADIR: /home/psilocaluser/gits/hrw-direct/objdir4/stage/usr/local/psi4/share/psi4
    Memory:     500.0 MiB
    Threads:    1
    
  ==> Input File <==

--------------------------------------------------------------------------
#! DFT Functional Test

E11 = -74.9493412744 #TEST
E12 = -75.3196957567 #TEST
E13 = -75.3185459160 #TEST
E14 = -75.3128178610 #TEST
E15 = -75.2976775610 #TEST
E16 = -75.3498758149 #TEST
E21 = -74.9493412744 #TEST
E22 = -75.3196957567 #TEST
E23 = -75.3185459160 #TEST
E24 = -75.3128178610 #TEST
E25 = -75.2976775610 #TEST
E26 = -75.3498758149 #TEST
E31 = -74.6448669477 #TEST
E32 = -74.9677634492 #TEST
E33 = -74.9709217377 #TEST
E34 = -74.9632650037 #TEST
E35 = -74.9473089301 #TEST
E36 = -74.9993295855 #TEST
E41 = -74.4108252721 #TEST
E42 = -74.8155846044 #TEST
E43 = -74.8011166756 #TEST
E44 = -74.7977834552 #TEST
E45 = -74.7903025944 #TEST
E46 = -74.8445334536 #TEST

molecule h2o {
0 1
O
H 1 1.0
H 1 1.0 2 104.5
}

set {
print 2
basis sto-3g

guess core
scf_type direct
dft_spherical_points 302
dft_radial_points 99
reference rks
}

set dft_functional b88_x
V11 = energy('scf')
compare_values(E11,V11, 3, "RKS  0 1    B88 Energy") #TEST

set dft_functional b3lyp
V12 = energy('scf')
compare_values(E12,V12, 3, "RKS  0 1  B3LYP Energy") #TEST

set dft_functional wB97
set dft_omega 0.4
V13 = energy('scf')
compare_values(E13,V13, 3, "RKS  0 1   wB97 Energy") #TEST

set dft_functional wB97X 
set dft_omega 0.3
V14 = energy('scf')
compare_values(E14,V14, 3, "RKS  0 1  wB97X Energy") #TEST

set dft_functional b86bpbe
V15 = energy('scf')
compare_values(E15,V15, 3, "RKS  0 1 B86BPBE Energy") #TEST

set dft_functional pw86pbe
V16 = energy('scf')
compare_values(E16,V16, 3, "RKS  0 1 PW86PBE Energy") #TEST

set scf_type direct
set reference uks
set dft_functional b88_x
V21 = energy('scf')
compare_values(E21,V21, 3, "UKS  0 1    B88 Energy") #TEST

set dft_functional b3lyp
V22 = energy('scf')
compare_values(E22,V22, 3, "UKS  0 1  B3LYP Energy") #TEST

set dft_functional wB97
set dft_omega 0.4
V23 = energy('scf')
compare_values(E23,V23, 3, "UKS  0 1   wB97 Energy") #TEST

set dft_functional wB97X 
set dft_omega 0.3
V24 = energy('scf')
compare_values(E24,V24, 3, "UKS  0 1  wB97X Energy") #TEST

set dft_functional b86bpbe
V25 = energy('scf')
compare_values(E25,V25, 3, "UKS  0 1 B86BPBE Energy") #TEST

set dft_functional pw86pbe
V26 = energy('scf')
compare_values(E26,V26, 3, "UKS  0 1 PW86PBE Energy") #TEST

molecule h2op {
1 2
O
H 1 1.0
H 1 1.0 2 104.5
}

set basis sto-3g
# Must be reset in each new molecule
set dft_functional b88_x
V31 = energy('scf')
compare_values(E31,V31, 3, "UKS  1 2    B88 Energy") #TEST

set dft_functional b3lyp
V32 = energy('scf')
compare_values(E32,V32, 3, "UKS  1 2  B3LYP Energy") #TEST

set dft_functional wB97
set dft_omega 0.4
V33 = energy('scf')
compare_values(E33,V33, 3, "UKS  1 2   wB97 Energy") #TEST

set dft_functional wB97X 
set dft_omega 0.3
V34 = energy('scf')
compare_values(E34,V34, 3, "UKS  1 2  wB97X Energy") #TEST

set dft_functional b86bpbe
V35 = energy('scf')
compare_values(E35,V35, 3, "UKS  1 2 B86BPBE Energy") #TEST

set dft_functional pw86pbe
V36 = energy('scf')
compare_values(E36,V36, 3, "UKS  1 2 PW86PBE Energy") #TEST

molecule h2om {
-1 2
O
H 1 1.0
H 1 1.0 2 104.5
}

set basis sto-3g
set dft_functional b88_x
V41 = energy('scf')
compare_values(E41,V41, 3, "UKS -1 2    B88 Energy") #TEST

set dft_functional b3lyp
V42 = energy('scf')
compare_values(E42,V42, 3, "UKS -1 2  B3LYP Energy") #TEST

set dft_functional wB97
set dft_omega 0.4
V43 = energy('scf')
compare_values(E43,V43, 3, "UKS -1 2   wB97 Energy") #TEST

set dft_functional wB97X 
set dft_omega 0.3
V44 = energy('scf')
compare_values(E44,V44, 3, "UKS -1 2  wB97X Energy") #TEST

set dft_functional b86bpbe
V45 = energy('scf')
compare_values(E45,V45, 3, "UKS -1 2 B86BPBE Energy") #TEST

set dft_functional pw86pbe
V46 = energy('scf')
compare_values(E46,V46, 3, "UKS -1 2 PW86PBE Energy") #TEST
--------------------------------------------------------------------------

*** tstart() called on psinet
*** at Mon May 15 15:36:07 2017

   => Loading Basis Set <=

    Name: STO-3G
    Role: ORBITAL
    Keyword: BASIS
    atoms 1   entry O          line    80 file /home/psilocaluser/gits/hrw-direct/objdir4/stage/usr/local/psi4/share/psi4/basis/sto-3g.gbs 
    atoms 2-3 entry H          line    18 file /home/psilocaluser/gits/hrw-direct/objdir4/stage/usr/local/psi4/share/psi4/basis/sto-3g.gbs 


         ---------------------------------------------------------
                                   SCF
            by Justin Turney, Rob Parrish, and Andy Simmonett
                              RKS Reference
                        1 Threads,    500 MiB Core
         ---------------------------------------------------------

  ==> Geometry <==

    Molecular point group: c2v
    Full point group: C2v

    Geometry (in Angstrom), charge = 0, multiplicity = 1:

       Center              X                  Y                   Z               Mass       
    ------------   -----------------  -----------------  -----------------  -----------------
           O          0.000000000000     0.000000000000    -0.068516219310    15.994914619560
           H          0.000000000000    -0.790689573744     0.543701060724     1.007825032070
           H          0.000000000000     0.790689573744     0.543701060724     1.007825032070

  Running in c2v symmetry.

  Rotational constants: A =     25.12555  B =     13.37733  C =      8.72955 [cm^-1]
  Rotational constants: A = 753245.06586  B = 401042.16407  C = 261705.25278 [MHz]
  Nuclear repulsion =    8.801465529972067

  Charge       = 0
  Multiplicity = 1
  Electrons    = 10
  Nalpha       = 5
  Nbeta        = 5

  ==> Algorithm <==

  SCF Algorithm Type is DIRECT.
  DIIS enabled.
  MOM disabled.
  Fractional occupation disabled.
  Guess Type is CORE.
  Energy threshold   = 1.00e-06
  Density threshold  = 1.00e-06
  Integral threshold = 0.00e+00

  ==> Primary Basis <==

  -AO BASIS SET INFORMATION:
    Name                   = STO-3G
    Blend                  = STO-3G
    Total number of shells = 5
    Number of primitives   = 15
    Number of AO           = 7
    Number of SO           = 7
    Maximum AM             = 1
    Spherical Harmonics    = TRUE

  -Contraction Scheme:
    Atom   Type   All Primitives // Shells:
   ------ ------ --------------------------
       1     O     6s 3p // 2s 1p 
       2     H     3s // 1s 
       3     H     3s // 1s 

  ==> DFT Potential <==

   => B88_X Composite Functional <= 

    Becke88 GGA Exchange

    A.D. Becke, Phys. Rev. A, 38(6):3098-3100, 1988

    Points   =           5000
    Deriv    =              1
    GGA      =           TRUE
    Meta     =          FALSE

    X_LRC        =          FALSE
    X_Hybrid     =          FALSE
    X_Alpha      =   0.000000E+00
    X_Omega      =   0.000000E+00
    C_LRC        =          FALSE
    C_Hybrid     =          FALSE
    C_Alpha      =   0.000000E+00
    C_Omega      =   0.000000E+00

   => Exchange Functionals <=

    1.0000   B88_X

   => Correlation Functionals <=


   => B88_X Functional <=

    Becke88 GGA Exchange

    A.D. Becke, Phys. Rev. A, 38(6):3098-3100, 1988

    GGA   =           TRUE
    Meta  =          FALSE
    LRC   =          FALSE
    Alpha =   1.000000E+00
    Omega =   0.000000E+00

   => Molecular Quadrature <=

    Radial Scheme    =       TREUTLER
    Pruning Scheme   =           FLAT
    Nuclear Scheme   =       TREUTLER

    BS radius alpha  =              1
    Pruning alpha    =              1
    Radial Points    =             99
    Spherical Points =            302
    Total Points     =          86165
    Total Blocks     =             87
    Max Points       =           4867
    Max Functions    =              7

   => Loading Basis Set <=

    Name: (STO-3G AUX)
    Role: JKFIT
    Keyword: DF_BASIS_SCF
    atoms 1   entry O          line   322 file /home/psilocaluser/gits/hrw-direct/objdir4/stage/usr/local/psi4/share/psi4/basis/def2-svp-jkfit.gbs 
    atoms 2-3 entry H          line    22 file /home/psilocaluser/gits/hrw-direct/objdir4/stage/usr/local/psi4/share/psi4/basis/def2-svp-jkfit.gbs 

  ==> Pre-Iterations <==

   -------------------------------------------------------
    Irrep   Nso     Nmo     Nalpha   Nbeta   Ndocc  Nsocc
   -------------------------------------------------------
     A1         4       4       0       0       0       0
     A2         0       0       0       0       0       0
     B1         1       1       0       0       0       0
     B2         2       2       0       0       0       0
   -------------------------------------------------------
    Total       7       7       5       5       5       0
   -------------------------------------------------------

  Starting with a DF guess...

  ==> Integral Setup <==

  ==> DFJK: Density-Fitted J/K Matrices <==

    J tasked:                  Yes
    K tasked:                   No
    wK tasked:                  No
    OpenMP threads:              1
    Integrals threads:           1
    Memory (MB):               375
    Algorithm:                Core
    Integral Cache:           NONE
    Schwarz Cutoff:          1E-12
    Fitting Condition:       1E-12

   => Auxiliary Basis Set <=

  -AO BASIS SET INFORMATION:
    Name                   = (STO-3G AUX)
    Blend                  = DEF2-SVP-JKFIT
    Total number of shells = 37
    Number of primitives   = 49
    Number of AO           = 133
    Number of SO           = 113
    Maximum AM             = 4
    Spherical Harmonics    = TRUE

  -Contraction Scheme:
    Atom   Type   All Primitives // Shells:
   ------ ------ --------------------------
       1     O     14s 10p 6d 2f 1g // 10s 8p 4d 2f 1g 
       2     H     4s 2p 2d // 2s 2p 2d 
       3     H     4s 2p 2d // 2s 2p 2d 

  Minimum eigenvalue in the overlap matrix is 3.7028400642E-01.
  Using Symmetric Orthogonalization.

  SCF Guess: Core (One-Electron) Hamiltonian.

  ==> Iterations <==

                           Total Energy        Delta E     RMS |[F,P]|

   @DF-RKS iter   1:   -73.16623837359289   -7.31662e+01   2.10255e-01 
   @DF-RKS iter   2:   -74.08274943074838   -9.16511e-01   2.00526e-01 DIIS
   @DF-RKS iter   3:   -74.94870150635772   -8.65952e-01   7.49901e-03 DIIS
   @DF-RKS iter   4:   -74.94977771143461   -1.07621e-03   1.64366e-03 DIIS
   @DF-RKS iter   5:   -74.94981345964695   -3.57482e-05   5.38279e-04 DIIS
   @DF-RKS iter   6:   -74.94981745313073   -3.99348e-06   1.12512e-04 DIIS
   @DF-RKS iter   7:   -74.94981763519748   -1.82067e-07   6.11093e-06 DIIS
   @DF-RKS iter   8:   -74.94981763573556   -5.38080e-10   1.85042e-10 DIIS

  DF guess converged.

  ==> Integral Setup <==

  ==> DirectJK: Integral-Direct J/K Matrices <==

    J tasked:                  Yes
    K tasked:                   No
    wK tasked:                  No
    Integrals threads:           1
    Schwarz Cutoff:          1E-12

   @RKS iter   9:   -74.94937516762344    4.42468e-04   1.41154e-05 DIIS
   @RKS iter  10:   -74.94937516729185    3.31596e-10   1.21026e-05 DIIS
   @RKS iter  11:   -74.94937516931746   -2.02562e-09   2.19601e-06 DIIS
   @RKS iter  12:   -74.94937516938488   -6.74163e-11   2.60387e-08 DIIS

  ==> Post-Iterations <==

    Orbital Energies (a.u.)
    -----------------------

    Doubly Occupied:                                                      

       1A1   -18.450318     2A1    -0.782593     1B2    -0.334067  
       3A1    -0.129868     1B1    -0.029260  

    Virtual:                                                              

       4A1     0.304317     2B2     0.410059  

    Final Occupation by Irrep:
             A1    A2    B1    B2 
    DOCC [     3,    0,    1,    1 ]

  Energy converged.

  @RKS Final Energy:   -74.94937516938488

   => Energetics <=

    Nuclear Repulsion Energy =              8.8014655299720665
    One-Electron Energy =                -121.5672347029672409
    Two-Electron Energy =                  46.8564140047542779
    DFT Exchange-Correlation Energy =      -9.0400200011439900
    Empirical Dispersion Energy =           0.0000000000000000
    PCM Polarization Energy =               0.0000000000000000
    EFP Energy =                            0.0000000000000000
    Total Energy =                        -74.9493751693848935



Properties will be evaluated at   0.000000,   0.000000,   0.000000 Bohr

Properties computed using the SCF density matrix

  Nuclear Dipole Moment: (a.u.)
     X:     0.0000      Y:     0.0000      Z:     1.0191

  Electronic Dipole Moment: (a.u.)
     X:     0.0000      Y:     0.0000      Z:    -0.4303

  Dipole Moment: (a.u.)
     X:     0.0000      Y:     0.0000      Z:     0.5888     Total:     0.5888

  Dipole Moment: (Debye)
     X:     0.0000      Y:     0.0000      Z:     1.4965     Total:     1.4965


*** tstop() called on psinet at Mon May 15 15:36:09 2017
Module time:
	user time   =       1.37 seconds =       0.02 minutes
	system time =       0.03 seconds =       0.00 minutes
	total time  =          2 seconds =       0.03 minutes
Total time:
	user time   =       1.37 seconds =       0.02 minutes
	system time =       0.03 seconds =       0.00 minutes
	total time  =          2 seconds =       0.03 minutes
	RKS  0 1    B88 Energy............................................PASSED

*** tstart() called on psinet
*** at Mon May 15 15:36:09 2017

   => Loading Basis Set <=

    Name: STO-3G
    Role: ORBITAL
    Keyword: BASIS
    atoms 1   entry O          line    80 file /home/psilocaluser/gits/hrw-direct/objdir4/stage/usr/local/psi4/share/psi4/basis/sto-3g.gbs 
    atoms 2-3 entry H          line    18 file /home/psilocaluser/gits/hrw-direct/objdir4/stage/usr/local/psi4/share/psi4/basis/sto-3g.gbs 


         ---------------------------------------------------------
                                   SCF
            by Justin Turney, Rob Parrish, and Andy Simmonett
                              RKS Reference
                        1 Threads,    500 MiB Core
         ---------------------------------------------------------

  ==> Geometry <==

    Molecular point group: c2v
    Full point group: C2v

    Geometry (in Angstrom), charge = 0, multiplicity = 1:

       Center              X                  Y                   Z               Mass       
    ------------   -----------------  -----------------  -----------------  -----------------
           O          0.000000000000     0.000000000000    -0.068516219310    15.994914619560
           H          0.000000000000    -0.790689573744     0.543701060724     1.007825032070
           H          0.000000000000     0.790689573744     0.543701060724     1.007825032070

  Running in c2v symmetry.

  Rotational constants: A =     25.12555  B =     13.37733  C =      8.72955 [cm^-1]
  Rotational constants: A = 753245.06586  B = 401042.16407  C = 261705.25278 [MHz]
  Nuclear repulsion =    8.801465529972067

  Charge       = 0
  Multiplicity = 1
  Electrons    = 10
  Nalpha       = 5
  Nbeta        = 5

  ==> Algorithm <==

  SCF Algorithm Type is DIRECT.
  DIIS enabled.
  MOM disabled.
  Fractional occupation disabled.
  Guess Type is CORE.
  Energy threshold   = 1.00e-06
  Density threshold  = 1.00e-06
  Integral threshold = 0.00e+00

  ==> Primary Basis <==

  -AO BASIS SET INFORMATION:
    Name                   = STO-3G
    Blend                  = STO-3G
    Total number of shells = 5
    Number of primitives   = 15
    Number of AO           = 7
    Number of SO           = 7
    Maximum AM             = 1
    Spherical Harmonics    = TRUE

  -Contraction Scheme:
    Atom   Type   All Primitives // Shells:
   ------ ------ --------------------------
       1     O     6s 3p // 2s 1p 
       2     H     3s // 1s 
       3     H     3s // 1s 

  ==> DFT Potential <==

   => B3LYP Composite Functional <= 

    B3LYP Hybrid-GGA Exchange-Correlation Functional (VWN1-RPA)

    P.J. Stephens et. al., J. Phys. Chem., 98, 11623-11627, 1994

    Points   =           5000
    Deriv    =              1
    GGA      =           TRUE
    Meta     =          FALSE

    X_LRC        =          FALSE
    X_Hybrid     =           TRUE
    X_Alpha      =   2.000000E-01
    X_Omega      =   0.000000E+00
    C_LRC        =          FALSE
    C_Hybrid     =          FALSE
    C_Alpha      =   0.000000E+00
    C_Omega      =   0.000000E+00

   => Exchange Functionals <=

    0.8000    B3_X
    0.2000      HF 

   => Correlation Functionals <=

    0.1900 VWN3RPA_C
    0.8100   LYP_C

   => B3_X Functional <=

    Becke88 GGA Exchange (B3LYP weighting)

    P.J. Stephens et. al., J. Phys. Chem., 98, 11623-11627, 1994

    GGA   =           TRUE
    Meta  =          FALSE
    LRC   =          FALSE
    Alpha =   1.000000E+00
    Omega =   0.000000E+00

   => VWN3RPA_C Functional <=

    VWN3 LSDA Correlation, RPA Parameters, VWN1 Spin Polarization

    S.H. Vosko, L. Wilk, and M. Nusair, Can. J. Phys., 58, 1200-1211, 1980

    GGA   =          FALSE
    Meta  =          FALSE
    LRC   =          FALSE
    Alpha =   1.900000E-01
    Omega =   0.000000E+00

   => LYP_C Functional <=

    LYP Correlation

    B. Miehlich et. al., Chem. Phys. Lett., 157(3), 200-206 (1989)

    GGA   =           TRUE
    Meta  =          FALSE
    LRC   =          FALSE
    Alpha =   8.100000E-01
    Omega =   0.000000E+00

   => Molecular Quadrature <=

    Radial Scheme    =       TREUTLER
    Pruning Scheme   =           FLAT
    Nuclear Scheme   =       TREUTLER

    BS radius alpha  =              1
    Pruning alpha    =              1
    Radial Points    =             99
    Spherical Points =            302
    Total Points     =          86165
    Total Blocks     =             87
    Max Points       =           4867
    Max Functions    =              7

   => Loading Basis Set <=

    Name: (STO-3G AUX)
    Role: JKFIT
    Keyword: DF_BASIS_SCF
    atoms 1   entry O          line   322 file /home/psilocaluser/gits/hrw-direct/objdir4/stage/usr/local/psi4/share/psi4/basis/def2-svp-jkfit.gbs 
    atoms 2-3 entry H          line    22 file /home/psilocaluser/gits/hrw-direct/objdir4/stage/usr/local/psi4/share/psi4/basis/def2-svp-jkfit.gbs 

  ==> Pre-Iterations <==

   -------------------------------------------------------
    Irrep   Nso     Nmo     Nalpha   Nbeta   Ndocc  Nsocc
   -------------------------------------------------------
     A1         4       4       0       0       0       0
     A2         0       0       0       0       0       0
     B1         1       1       0       0       0       0
     B2         2       2       0       0       0       0
   -------------------------------------------------------
    Total       7       7       5       5       5       0
   -------------------------------------------------------

  Starting with a DF guess...

  ==> Integral Setup <==

  ==> DFJK: Density-Fitted J/K Matrices <==

    J tasked:                  Yes
    K tasked:                  Yes
    wK tasked:                  No
    OpenMP threads:              1
    Integrals threads:           1
    Memory (MB):               375
    Algorithm:                Core
    Integral Cache:           NONE
    Schwarz Cutoff:          1E-12
    Fitting Condition:       1E-12

   => Auxiliary Basis Set <=

  -AO BASIS SET INFORMATION:
    Name                   = (STO-3G AUX)
    Blend                  = DEF2-SVP-JKFIT
    Total number of shells = 37
    Number of primitives   = 49
    Number of AO           = 133
    Number of SO           = 113
    Maximum AM             = 4
    Spherical Harmonics    = TRUE

  -Contraction Scheme:
    Atom   Type   All Primitives // Shells:
   ------ ------ --------------------------
       1     O     14s 10p 6d 2f 1g // 10s 8p 4d 2f 1g 
       2     H     4s 2p 2d // 2s 2p 2d 
       3     H     4s 2p 2d // 2s 2p 2d 

  Minimum eigenvalue in the overlap matrix is 3.7028400642E-01.
  Using Symmetric Orthogonalization.

  SCF Guess: Core (One-Electron) Hamiltonian.

  ==> Iterations <==

                           Total Energy        Delta E     RMS |[F,P]|

   @DF-RKS iter   1:   -73.57703879767205   -7.35770e+01   2.11936e-01 
   @DF-RKS iter   2:   -74.52448221969453   -9.47443e-01   1.95247e-01 DIIS
   @DF-RKS iter   3:   -75.31722533326857   -7.92743e-01   1.37558e-02 DIIS
   @DF-RKS iter   4:   -75.31987693839709   -2.65161e-03   3.71084e-03 DIIS
   @DF-RKS iter   5:   -75.32007269339428   -1.95755e-04   9.11437e-04 DIIS
   @DF-RKS iter   6:   -75.32008362955081   -1.09362e-05   2.90836e-04 DIIS
   @DF-RKS iter   7:   -75.32008485595802   -1.22641e-06   9.36027e-06 DIIS
   @DF-RKS iter   8:   -75.32008485725001   -1.29199e-09   4.01138e-09 DIIS

  DF guess converged.

  ==> Integral Setup <==

  ==> DirectJK: Integral-Direct J/K Matrices <==

    J tasked:                  Yes
    K tasked:                  Yes
    wK tasked:                  No
    Integrals threads:           1
    Schwarz Cutoff:          1E-12

   @RKS iter   9:   -75.31971405919944    3.70798e-04   1.35276e-05 DIIS
   @RKS iter  10:   -75.31971405995898   -7.59542e-10   8.74558e-06 DIIS
   @RKS iter  11:   -75.31971406101744   -1.05845e-09   1.09602e-06 DIIS
   @RKS iter  12:   -75.31971406103418   -1.67404e-11   6.29413e-09 DIIS

  ==> Post-Iterations <==

    Orbital Energies (a.u.)
    -----------------------

    Doubly Occupied:                                                      

       1A1   -18.840683     2A1    -0.916512     1B2    -0.427084  
       3A1    -0.233392     1B1    -0.142454  

    Virtual:                                                              

       4A1     0.317930     2B2     0.427495  

    Final Occupation by Irrep:
             A1    A2    B1    B2 
    DOCC [     3,    0,    1,    1 ]

  Energy converged.

  @RKS Final Energy:   -75.31971406103418

   => Energetics <=

    Nuclear Repulsion Energy =              8.8014655299720665
    One-Electron Energy =                -121.6673399123802426
    Two-Electron Energy =                  45.1530456355445153
    DFT Exchange-Correlation Energy =      -7.6068853141705146
    Empirical Dispersion Energy =           0.0000000000000000
    PCM Polarization Energy =               0.0000000000000000
    EFP Energy =                            0.0000000000000000
    Total Energy =                        -75.3197140610341762



Properties will be evaluated at   0.000000,   0.000000,   0.000000 Bohr

Properties computed using the SCF density matrix

  Nuclear Dipole Moment: (a.u.)
     X:     0.0000      Y:     0.0000      Z:     1.0191

  Electronic Dipole Moment: (a.u.)
     X:     0.0000      Y:     0.0000      Z:    -0.3867

  Dipole Moment: (a.u.)
     X:     0.0000      Y:     0.0000      Z:     0.6324     Total:     0.6324

  Dipole Moment: (Debye)
     X:     0.0000      Y:     0.0000      Z:     1.6073     Total:     1.6073


*** tstop() called on psinet at Mon May 15 15:36:12 2017
Module time:
	user time   =       3.15 seconds =       0.05 minutes
	system time =       0.02 seconds =       0.00 minutes
	total time  =          3 seconds =       0.05 minutes
Total time:
	user time   =       4.54 seconds =       0.08 minutes
	system time =       0.05 seconds =       0.00 minutes
	total time  =          5 seconds =       0.08 minutes
	RKS  0 1  B3LYP Energy............................................PASSED

*** tstart() called on psinet
*** at Mon May 15 15:36:12 2017

   => Loading Basis Set <=

    Name: STO-3G
    Role: ORBITAL
    Keyword: BASIS
    atoms 1   entry O          line    80 file /home/psilocaluser/gits/hrw-direct/objdir4/stage/usr/local/psi4/share/psi4/basis/sto-3g.gbs 
    atoms 2-3 entry H          line    18 file /home/psilocaluser/gits/hrw-direct/objdir4/stage/usr/local/psi4/share/psi4/basis/sto-3g.gbs 


         ---------------------------------------------------------
                                   SCF
            by Justin Turney, Rob Parrish, and Andy Simmonett
                              RKS Reference
                        1 Threads,    500 MiB Core
         ---------------------------------------------------------

  ==> Geometry <==

    Molecular point group: c2v
    Full point group: C2v

    Geometry (in Angstrom), charge = 0, multiplicity = 1:

       Center              X                  Y                   Z               Mass       
    ------------   -----------------  -----------------  -----------------  -----------------
           O          0.000000000000     0.000000000000    -0.068516219310    15.994914619560
           H          0.000000000000    -0.790689573744     0.543701060724     1.007825032070
           H          0.000000000000     0.790689573744     0.543701060724     1.007825032070

  Running in c2v symmetry.

  Rotational constants: A =     25.12555  B =     13.37733  C =      8.72955 [cm^-1]
  Rotational constants: A = 753245.06586  B = 401042.16407  C = 261705.25278 [MHz]
  Nuclear repulsion =    8.801465529972067

  Charge       = 0
  Multiplicity = 1
  Electrons    = 10
  Nalpha       = 5
  Nbeta        = 5

  ==> Algorithm <==

  SCF Algorithm Type is DIRECT.
  DIIS enabled.
  MOM disabled.
  Fractional occupation disabled.
  Guess Type is CORE.
  Energy threshold   = 1.00e-06
  Density threshold  = 1.00e-06
  Integral threshold = 0.00e+00

  ==> Primary Basis <==

  -AO BASIS SET INFORMATION:
    Name                   = STO-3G
    Blend                  = STO-3G
    Total number of shells = 5
    Number of primitives   = 15
    Number of AO           = 7
    Number of SO           = 7
    Maximum AM             = 1
    Spherical Harmonics    = TRUE

  -Contraction Scheme:
    Atom   Type   All Primitives // Shells:
   ------ ------ --------------------------
       1     O     6s 3p // 2s 1p 
       2     H     3s // 1s 
       3     H     3s // 1s 

  ==> DFT Potential <==

   => wB97 Composite Functional <= 

    Parameterized LRC B97 GGA XC Functional

    J.-D. Chai and M. Head-Gordon, J. Chem. Phys., 128, 084106, 2008

    Points   =           5000
    Deriv    =              1
    GGA      =           TRUE
    Meta     =          FALSE

    X_LRC        =           TRUE
    X_Hybrid     =          FALSE
    X_Alpha      =   0.000000E+00
    X_Omega      =   4.000000E-01
    C_LRC        =          FALSE
    C_Hybrid     =          FALSE
    C_Alpha      =   0.000000E+00
    C_Omega      =   0.000000E+00

   => Exchange Functionals <=

    1.0000  wB97_X [omega = 0.4000]
    1.0000   HF,LR [omega = 0.4000]

   => Correlation Functionals <=

    1.0000  wB97_C

   => wB97_X Functional <=



    GGA   =           TRUE
    Meta  =          FALSE
    LRC   =           TRUE
    Alpha =   1.000000E+00
    Omega =   4.000000E-01

   => wB97_C Functional <=



    GGA   =           TRUE
    Meta  =          FALSE
    LRC   =          FALSE
    Alpha =   1.000000E+00
    Omega =   0.000000E+00

   => Molecular Quadrature <=

    Radial Scheme    =       TREUTLER
    Pruning Scheme   =           FLAT
    Nuclear Scheme   =       TREUTLER

    BS radius alpha  =              1
    Pruning alpha    =              1
    Radial Points    =             99
    Spherical Points =            302
    Total Points     =          86165
    Total Blocks     =             87
    Max Points       =           4867
    Max Functions    =              7

   => Loading Basis Set <=

    Name: (STO-3G AUX)
    Role: JKFIT
    Keyword: DF_BASIS_SCF
    atoms 1   entry O          line   322 file /home/psilocaluser/gits/hrw-direct/objdir4/stage/usr/local/psi4/share/psi4/basis/def2-svp-jkfit.gbs 
    atoms 2-3 entry H          line    22 file /home/psilocaluser/gits/hrw-direct/objdir4/stage/usr/local/psi4/share/psi4/basis/def2-svp-jkfit.gbs 

  ==> Pre-Iterations <==

   -------------------------------------------------------
    Irrep   Nso     Nmo     Nalpha   Nbeta   Ndocc  Nsocc
   -------------------------------------------------------
     A1         4       4       0       0       0       0
     A2         0       0       0       0       0       0
     B1         1       1       0       0       0       0
     B2         2       2       0       0       0       0
   -------------------------------------------------------
    Total       7       7       5       5       5       0
   -------------------------------------------------------

  Starting with a DF guess...

  ==> Integral Setup <==

  ==> DFJK: Density-Fitted J/K Matrices <==

    J tasked:                  Yes
    K tasked:                   No
    wK tasked:                 Yes
    Omega:               4.000E-01
    OpenMP threads:              1
    Integrals threads:           1
    Memory (MB):               375
    Algorithm:                Core
    Integral Cache:           NONE
    Schwarz Cutoff:          1E-12
    Fitting Condition:       1E-12

   => Auxiliary Basis Set <=

  -AO BASIS SET INFORMATION:
    Name                   = (STO-3G AUX)
    Blend                  = DEF2-SVP-JKFIT
    Total number of shells = 37
    Number of primitives   = 49
    Number of AO           = 133
    Number of SO           = 113
    Maximum AM             = 4
    Spherical Harmonics    = TRUE

  -Contraction Scheme:
    Atom   Type   All Primitives // Shells:
   ------ ------ --------------------------
       1     O     14s 10p 6d 2f 1g // 10s 8p 4d 2f 1g 
       2     H     4s 2p 2d // 2s 2p 2d 
       3     H     4s 2p 2d // 2s 2p 2d 

  Minimum eigenvalue in the overlap matrix is 3.7028400642E-01.
  Using Symmetric Orthogonalization.

  SCF Guess: Core (One-Electron) Hamiltonian.

  ==> Iterations <==

                           Total Energy        Delta E     RMS |[F,P]|

   @DF-RKS iter   1:   -73.57307438369538   -7.35731e+01   2.10465e-01 
   @DF-RKS iter   2:   -75.13479646218457   -1.56172e+00   1.09164e-01 DIIS
   @DF-RKS iter   3:   -75.31827681754470   -1.83480e-01   5.03106e-03 DIIS
   @DF-RKS iter   4:   -75.31892404157446   -6.47224e-04   1.30925e-03 DIIS
   @DF-RKS iter   5:   -75.31897507990659   -5.10383e-05   1.57895e-04 DIIS
   @DF-RKS iter   6:   -75.31897592063414   -8.40728e-07   1.08868e-05 DIIS
   @DF-RKS iter   7:   -75.31897592195484   -1.32070e-09   1.26202e-07 DIIS

  DF guess converged.

  ==> Integral Setup <==

  ==> DirectJK: Integral-Direct J/K Matrices <==

    J tasked:                  Yes
    K tasked:                   No
    wK tasked:                 Yes
    Omega:               4.000E-01
    Integrals threads:           1
    Schwarz Cutoff:          1E-12

   @RKS iter   8:   -75.31853557936434    4.40343e-04   1.73544e-05 DIIS
   @RKS iter   9:   -75.31853558225768   -2.89334e-09   5.75695e-06 DIIS
   @RKS iter  10:   -75.31853558267704   -4.19362e-10   4.79028e-07 DIIS

  ==> Post-Iterations <==

    Orbital Energies (a.u.)
    -----------------------

    Doubly Occupied:                                                      

       1A1   -18.702716     2A1    -1.047211     1B2    -0.547585  
       3A1    -0.349276     1B1    -0.256665  

    Virtual:                                                              

       4A1     0.445347     2B2     0.556393  

    Final Occupation by Irrep:
             A1    A2    B1    B2 
    DOCC [     3,    0,    1,    1 ]

  Energy converged.

  @RKS Final Energy:   -75.31853558267704

   => Energetics <=

    Nuclear Repulsion Energy =              8.8014655299720665
    One-Electron Energy =                -121.6432801064211304
    Two-Electron Energy =                  44.8828966447033437
    DFT Exchange-Correlation Energy =      -7.3596176509313116
    Empirical Dispersion Energy =           0.0000000000000000
    PCM Polarization Energy =               0.0000000000000000
    EFP Energy =                            0.0000000000000000
    Total Energy =                        -75.3185355826770433



Properties will be evaluated at   0.000000,   0.000000,   0.000000 Bohr

Properties computed using the SCF density matrix

  Nuclear Dipole Moment: (a.u.)
     X:     0.0000      Y:     0.0000      Z:     1.0191

  Electronic Dipole Moment: (a.u.)
     X:     0.0000      Y:     0.0000      Z:    -0.3853

  Dipole Moment: (a.u.)
     X:     0.0000      Y:     0.0000      Z:     0.6338     Total:     0.6338

  Dipole Moment: (Debye)
     X:     0.0000      Y:     0.0000      Z:     1.6108     Total:     1.6108


*** tstop() called on psinet at Mon May 15 15:36:16 2017
Module time:
	user time   =       3.84 seconds =       0.06 minutes
	system time =       0.03 seconds =       0.00 minutes
	total time  =          4 seconds =       0.07 minutes
Total time:
	user time   =       8.39 seconds =       0.14 minutes
	system time =       0.08 seconds =       0.00 minutes
	total time  =          9 seconds =       0.15 minutes
	RKS  0 1   wB97 Energy............................................PASSED

*** tstart() called on psinet
*** at Mon May 15 15:36:16 2017

   => Loading Basis Set <=

    Name: STO-3G
    Role: ORBITAL
    Keyword: BASIS
    atoms 1   entry O          line    80 file /home/psilocaluser/gits/hrw-direct/objdir4/stage/usr/local/psi4/share/psi4/basis/sto-3g.gbs 
    atoms 2-3 entry H          line    18 file /home/psilocaluser/gits/hrw-direct/objdir4/stage/usr/local/psi4/share/psi4/basis/sto-3g.gbs 


         ---------------------------------------------------------
                                   SCF
            by Justin Turney, Rob Parrish, and Andy Simmonett
                              RKS Reference
                        1 Threads,    500 MiB Core
         ---------------------------------------------------------

  ==> Geometry <==

    Molecular point group: c2v
    Full point group: C2v

    Geometry (in Angstrom), charge = 0, multiplicity = 1:

       Center              X                  Y                   Z               Mass       
    ------------   -----------------  -----------------  -----------------  -----------------
           O          0.000000000000     0.000000000000    -0.068516219310    15.994914619560
           H          0.000000000000    -0.790689573744     0.543701060724     1.007825032070
           H          0.000000000000     0.790689573744     0.543701060724     1.007825032070

  Running in c2v symmetry.

  Rotational constants: A =     25.12555  B =     13.37733  C =      8.72955 [cm^-1]
  Rotational constants: A = 753245.06586  B = 401042.16407  C = 261705.25278 [MHz]
  Nuclear repulsion =    8.801465529972067

  Charge       = 0
  Multiplicity = 1
  Electrons    = 10
  Nalpha       = 5
  Nbeta        = 5

  ==> Algorithm <==

  SCF Algorithm Type is DIRECT.
  DIIS enabled.
  MOM disabled.
  Fractional occupation disabled.
  Guess Type is CORE.
  Energy threshold   = 1.00e-06
  Density threshold  = 1.00e-06
  Integral threshold = 0.00e+00

  ==> Primary Basis <==

  -AO BASIS SET INFORMATION:
    Name                   = STO-3G
    Blend                  = STO-3G
    Total number of shells = 5
    Number of primitives   = 15
    Number of AO           = 7
    Number of SO           = 7
    Maximum AM             = 1
    Spherical Harmonics    = TRUE

  -Contraction Scheme:
    Atom   Type   All Primitives // Shells:
   ------ ------ --------------------------
       1     O     6s 3p // 2s 1p 
       2     H     3s // 1s 
       3     H     3s // 1s 

  ==> DFT Potential <==

   => wB97X Composite Functional <= 

    Parameterized Hybrid LRC B97 GGA XC Functional

    J.-D. Chai and M. Head-Gordon, J. Chem. Phys., 128, 084106, 2008

    Points   =           5000
    Deriv    =              1
    GGA      =           TRUE
    Meta     =          FALSE

    X_LRC        =           TRUE
    X_Hybrid     =           TRUE
    X_Alpha      =   1.577060E-01
    X_Omega      =   3.000000E-01
    C_LRC        =          FALSE
    C_Hybrid     =          FALSE
    C_Alpha      =   0.000000E+00
    C_Omega      =   0.000000E+00

   => Exchange Functionals <=

    1.0000 wB97X_X [omega = 0.3000]
    0.8423   HF,LR [omega = 0.3000]
    0.1577      HF 

   => Correlation Functionals <=

    1.0000 wB97X_C

   => wB97X_X Functional <=



    GGA   =           TRUE
    Meta  =          FALSE
    LRC   =           TRUE
    Alpha =   1.187234E+00
    Omega =   3.000000E-01

   => wB97X_C Functional <=



    GGA   =           TRUE
    Meta  =          FALSE
    LRC   =          FALSE
    Alpha =   1.000000E+00
    Omega =   0.000000E+00

   => Molecular Quadrature <=

    Radial Scheme    =       TREUTLER
    Pruning Scheme   =           FLAT
    Nuclear Scheme   =       TREUTLER

    BS radius alpha  =              1
    Pruning alpha    =              1
    Radial Points    =             99
    Spherical Points =            302
    Total Points     =          86165
    Total Blocks     =             87
    Max Points       =           4867
    Max Functions    =              7

   => Loading Basis Set <=

    Name: (STO-3G AUX)
    Role: JKFIT
    Keyword: DF_BASIS_SCF
    atoms 1   entry O          line   322 file /home/psilocaluser/gits/hrw-direct/objdir4/stage/usr/local/psi4/share/psi4/basis/def2-svp-jkfit.gbs 
    atoms 2-3 entry H          line    22 file /home/psilocaluser/gits/hrw-direct/objdir4/stage/usr/local/psi4/share/psi4/basis/def2-svp-jkfit.gbs 

  ==> Pre-Iterations <==

   -------------------------------------------------------
    Irrep   Nso     Nmo     Nalpha   Nbeta   Ndocc  Nsocc
   -------------------------------------------------------
     A1         4       4       0       0       0       0
     A2         0       0       0       0       0       0
     B1         1       1       0       0       0       0
     B2         2       2       0       0       0       0
   -------------------------------------------------------
    Total       7       7       5       5       5       0
   -------------------------------------------------------

  Starting with a DF guess...

  ==> Integral Setup <==

  ==> DFJK: Density-Fitted J/K Matrices <==

    J tasked:                  Yes
    K tasked:                  Yes
    wK tasked:                 Yes
    Omega:               3.000E-01
    OpenMP threads:              1
    Integrals threads:           1
    Memory (MB):               375
    Algorithm:                Core
    Integral Cache:           NONE
    Schwarz Cutoff:          1E-12
    Fitting Condition:       1E-12

   => Auxiliary Basis Set <=

  -AO BASIS SET INFORMATION:
    Name                   = (STO-3G AUX)
    Blend                  = DEF2-SVP-JKFIT
    Total number of shells = 37
    Number of primitives   = 49
    Number of AO           = 133
    Number of SO           = 113
    Maximum AM             = 4
    Spherical Harmonics    = TRUE

  -Contraction Scheme:
    Atom   Type   All Primitives // Shells:
   ------ ------ --------------------------
       1     O     14s 10p 6d 2f 1g // 10s 8p 4d 2f 1g 
       2     H     4s 2p 2d // 2s 2p 2d 
       3     H     4s 2p 2d // 2s 2p 2d 

  Minimum eigenvalue in the overlap matrix is 3.7028400642E-01.
  Using Symmetric Orthogonalization.

  SCF Guess: Core (One-Electron) Hamiltonian.

  ==> Iterations <==

                           Total Energy        Delta E     RMS |[F,P]|

   @DF-RKS iter   1:   -73.58157149012915   -7.35816e+01   2.09557e-01 
   @DF-RKS iter   2:   -75.12134776021590   -1.53978e+00   1.10822e-01 DIIS
   @DF-RKS iter   3:   -75.31243381250118   -1.91086e-01   5.82457e-03 DIIS
   @DF-RKS iter   4:   -75.31317281953194   -7.39007e-04   1.26905e-03 DIIS
   @DF-RKS iter   5:   -75.31322212393513   -4.93044e-05   1.42298e-04 DIIS
   @DF-RKS iter   6:   -75.31322281091035   -6.86975e-07   8.14763e-06 DIIS
   @DF-RKS iter   7:   -75.31322281161485   -7.04503e-10   7.77502e-08 DIIS

  DF guess converged.

  ==> Integral Setup <==

  ==> DirectJK: Integral-Direct J/K Matrices <==

    J tasked:                  Yes
    K tasked:                  Yes
    wK tasked:                 Yes
    Omega:               3.000E-01
    Integrals threads:           1
    Schwarz Cutoff:          1E-12

   @RKS iter   8:   -75.31282138838436    4.01423e-04   1.59467e-05 DIIS
   @RKS iter   9:   -75.31282139075313   -2.36876e-09   5.66581e-06 DIIS
   @RKS iter  10:   -75.31282139116647   -4.13337e-10   4.31463e-07 DIIS

  ==> Post-Iterations <==

    Orbital Energies (a.u.)
    -----------------------

    Doubly Occupied:                                                      

       1A1   -18.901907     2A1    -1.039660     1B2    -0.535889  
       3A1    -0.342151     1B1    -0.251870  

    Virtual:                                                              

       4A1     0.432876     2B2     0.543499  

    Final Occupation by Irrep:
             A1    A2    B1    B2 
    DOCC [     3,    0,    1,    1 ]

  Energy converged.

  @RKS Final Energy:   -75.31282139116647

   => Energetics <=

    Nuclear Repulsion Energy =              8.8014655299720665
    One-Electron Energy =                -121.6688793165671285
    Two-Electron Energy =                  44.1911131863513944
    DFT Exchange-Correlation Energy =      -6.6365207909227824
    Empirical Dispersion Energy =           0.0000000000000000
    PCM Polarization Energy =               0.0000000000000000
    EFP Energy =                            0.0000000000000000
    Total Energy =                        -75.3128213911664517



Properties will be evaluated at   0.000000,   0.000000,   0.000000 Bohr

Properties computed using the SCF density matrix

  Nuclear Dipole Moment: (a.u.)
     X:     0.0000      Y:     0.0000      Z:     1.0191

  Electronic Dipole Moment: (a.u.)
     X:     0.0000      Y:     0.0000      Z:    -0.3793

  Dipole Moment: (a.u.)
     X:     0.0000      Y:     0.0000      Z:     0.6398     Total:     0.6398

  Dipole Moment: (Debye)
     X:     0.0000      Y:     0.0000      Z:     1.6261     Total:     1.6261


*** tstop() called on psinet at Mon May 15 15:36:19 2017
Module time:
	user time   =       3.83 seconds =       0.06 minutes
	system time =       0.02 seconds =       0.00 minutes
	total time  =          3 seconds =       0.05 minutes
Total time:
	user time   =      12.24 seconds =       0.20 minutes
	system time =       0.10 seconds =       0.00 minutes
	total time  =         12 seconds =       0.20 minutes
	RKS  0 1  wB97X Energy............................................PASSED

*** tstart() called on psinet
*** at Mon May 15 15:36:19 2017

   => Loading Basis Set <=

    Name: STO-3G
    Role: ORBITAL
    Keyword: BASIS
    atoms 1   entry O          line    80 file /home/psilocaluser/gits/hrw-direct/objdir4/stage/usr/local/psi4/share/psi4/basis/sto-3g.gbs 
    atoms 2-3 entry H          line    18 file /home/psilocaluser/gits/hrw-direct/objdir4/stage/usr/local/psi4/share/psi4/basis/sto-3g.gbs 


         ---------------------------------------------------------
                                   SCF
            by Justin Turney, Rob Parrish, and Andy Simmonett
                              RKS Reference
                        1 Threads,    500 MiB Core
         ---------------------------------------------------------

  ==> Geometry <==

    Molecular point group: c2v
    Full point group: C2v

    Geometry (in Angstrom), charge = 0, multiplicity = 1:

       Center              X                  Y                   Z               Mass       
    ------------   -----------------  -----------------  -----------------  -----------------
           O          0.000000000000     0.000000000000    -0.068516219310    15.994914619560
           H          0.000000000000    -0.790689573744     0.543701060724     1.007825032070
           H          0.000000000000     0.790689573744     0.543701060724     1.007825032070

  Running in c2v symmetry.

  Rotational constants: A =     25.12555  B =     13.37733  C =      8.72955 [cm^-1]
  Rotational constants: A = 753245.06586  B = 401042.16407  C = 261705.25278 [MHz]
  Nuclear repulsion =    8.801465529972067

  Charge       = 0
  Multiplicity = 1
  Electrons    = 10
  Nalpha       = 5
  Nbeta        = 5

  ==> Algorithm <==

  SCF Algorithm Type is DIRECT.
  DIIS enabled.
  MOM disabled.
  Fractional occupation disabled.
  Guess Type is CORE.
  Energy threshold   = 1.00e-06
  Density threshold  = 1.00e-06
  Integral threshold = 0.00e+00

  ==> Primary Basis <==

  -AO BASIS SET INFORMATION:
    Name                   = STO-3G
    Blend                  = STO-3G
    Total number of shells = 5
    Number of primitives   = 15
    Number of AO           = 7
    Number of SO           = 7
    Maximum AM             = 1
    Spherical Harmonics    = TRUE

  -Contraction Scheme:
    Atom   Type   All Primitives // Shells:
   ------ ------ --------------------------
       1     O     6s 3p // 2s 1p 
       2     H     3s // 1s 
       3     H     3s // 1s 

  ==> DFT Potential <==

   => B86BPBE Composite Functional <= 

    B86BPBE GGA Exchange-Correlation Functional

    A. D. Becke, J. Chem. Phys. 85:7184, 1986.

    Points   =           5000
    Deriv    =              1
    GGA      =           TRUE
    Meta     =          FALSE

    X_LRC        =          FALSE
    X_Hybrid     =          FALSE
    X_Alpha      =   0.000000E+00
    X_Omega      =   0.000000E+00
    C_LRC        =          FALSE
    C_Hybrid     =          FALSE
    C_Alpha      =   0.000000E+00
    C_Omega      =   0.000000E+00

   => Exchange Functionals <=

    1.0000  B86B_X

   => Correlation Functionals <=

    1.0000   PBE_C

   => B86B_X Functional <=

    Becke86B GGA Exchange

    A. D. Becke, J. Chem. Phys. 85:7184, 1986.

    GGA   =           TRUE
    Meta  =          FALSE
    LRC   =          FALSE
    Alpha =   1.000000E+00
    Omega =   0.000000E+00

   => PBE_C Functional <=

    PBE Correlation

    J.P. Perdew, K. Burke., and M. Ernzerhof, Phys. Rev. Lett., 77, 3865-3868, 1996

    GGA   =           TRUE
    Meta  =          FALSE
    LRC   =          FALSE
    Alpha =   1.000000E+00
    Omega =   0.000000E+00

   => Molecular Quadrature <=

    Radial Scheme    =       TREUTLER
    Pruning Scheme   =           FLAT
    Nuclear Scheme   =       TREUTLER

    BS radius alpha  =              1
    Pruning alpha    =              1
    Radial Points    =             99
    Spherical Points =            302
    Total Points     =          86165
    Total Blocks     =             87
    Max Points       =           4867
    Max Functions    =              7

   => Loading Basis Set <=

    Name: (STO-3G AUX)
    Role: JKFIT
    Keyword: DF_BASIS_SCF
    atoms 1   entry O          line   322 file /home/psilocaluser/gits/hrw-direct/objdir4/stage/usr/local/psi4/share/psi4/basis/def2-svp-jkfit.gbs 
    atoms 2-3 entry H          line    22 file /home/psilocaluser/gits/hrw-direct/objdir4/stage/usr/local/psi4/share/psi4/basis/def2-svp-jkfit.gbs 

  ==> Pre-Iterations <==

   -------------------------------------------------------
    Irrep   Nso     Nmo     Nalpha   Nbeta   Ndocc  Nsocc
   -------------------------------------------------------
     A1         4       4       0       0       0       0
     A2         0       0       0       0       0       0
     B1         1       1       0       0       0       0
     B2         2       2       0       0       0       0
   -------------------------------------------------------
    Total       7       7       5       5       5       0
   -------------------------------------------------------

  Starting with a DF guess...

  ==> Integral Setup <==

  ==> DFJK: Density-Fitted J/K Matrices <==

    J tasked:                  Yes
    K tasked:                   No
    wK tasked:                  No
    OpenMP threads:              1
    Integrals threads:           1
    Memory (MB):               375
    Algorithm:                Core
    Integral Cache:           NONE
    Schwarz Cutoff:          1E-12
    Fitting Condition:       1E-12

   => Auxiliary Basis Set <=

  -AO BASIS SET INFORMATION:
    Name                   = (STO-3G AUX)
    Blend                  = DEF2-SVP-JKFIT
    Total number of shells = 37
    Number of primitives   = 49
    Number of AO           = 133
    Number of SO           = 113
    Maximum AM             = 4
    Spherical Harmonics    = TRUE

  -Contraction Scheme:
    Atom   Type   All Primitives // Shells:
   ------ ------ --------------------------
       1     O     14s 10p 6d 2f 1g // 10s 8p 4d 2f 1g 
       2     H     4s 2p 2d // 2s 2p 2d 
       3     H     4s 2p 2d // 2s 2p 2d 

  Minimum eigenvalue in the overlap matrix is 3.7028400642E-01.
  Using Symmetric Orthogonalization.

  SCF Guess: Core (One-Electron) Hamiltonian.

  ==> Iterations <==

                           Total Energy        Delta E     RMS |[F,P]|

   @DF-RKS iter   1:   -73.54640079852227   -7.35464e+01   2.10532e-01 
   @DF-RKS iter   2:   -74.42465020547405   -8.78249e-01   2.03287e-01 DIIS
   @DF-RKS iter   3:   -75.29712516769285   -8.72475e-01   7.06571e-03 DIIS
   @DF-RKS iter   4:   -75.29805321206553   -9.28044e-04   1.88409e-03 DIIS
   @DF-RKS iter   5:   -75.29809965856381   -4.64465e-05   6.13173e-04 DIIS
   @DF-RKS iter   6:   -75.29810481622071   -5.15766e-06   1.27841e-04 DIIS
   @DF-RKS iter   7:   -75.29810504875044   -2.32530e-07   1.12925e-05 DIIS
   @DF-RKS iter   8:   -75.29810505057706   -1.82662e-09   4.76940e-10 DIIS

  DF guess converged.

  ==> Integral Setup <==

  ==> DirectJK: Integral-Direct J/K Matrices <==

    J tasked:                  Yes
    K tasked:                   No
    wK tasked:                  No
    Integrals threads:           1
    Schwarz Cutoff:          1E-12

   @RKS iter   9:   -75.29766386393446    4.41187e-04   1.38413e-05 DIIS
   @RKS iter  10:   -75.29766386368713    2.47326e-10   1.14913e-05 DIIS
   @RKS iter  11:   -75.29766386549267   -1.80553e-09   2.23477e-06 DIIS
   @RKS iter  12:   -75.29766386556227   -6.96048e-11   2.35834e-08 DIIS

  ==> Post-Iterations <==

    Orbital Energies (a.u.)
    -----------------------

    Doubly Occupied:                                                      

       1A1   -18.469362     2A1    -0.826334     1B2    -0.375489  
       3A1    -0.169204     1B1    -0.066799  

    Virtual:                                                              

       4A1     0.270743     2B2     0.374400  

    Final Occupation by Irrep:
             A1    A2    B1    B2 
    DOCC [     3,    0,    1,    1 ]

  Energy converged.

  @RKS Final Energy:   -75.29766386556227

   => Energetics <=

    Nuclear Repulsion Energy =              8.8014655299720665
    One-Electron Energy =                -121.6589642216954275
    Two-Electron Energy =                  46.9570563573234168
    DFT Exchange-Correlation Energy =      -9.3972215311623337
    Empirical Dispersion Energy =           0.0000000000000000
    PCM Polarization Energy =               0.0000000000000000
    EFP Energy =                            0.0000000000000000
    Total Energy =                        -75.2976638655622850



Properties will be evaluated at   0.000000,   0.000000,   0.000000 Bohr

Properties computed using the SCF density matrix

  Nuclear Dipole Moment: (a.u.)
     X:     0.0000      Y:     0.0000      Z:     1.0191

  Electronic Dipole Moment: (a.u.)
     X:     0.0000      Y:     0.0000      Z:    -0.3972

  Dipole Moment: (a.u.)
     X:     0.0000      Y:     0.0000      Z:     0.6218     Total:     0.6218

  Dipole Moment: (Debye)
     X:     0.0000      Y:     0.0000      Z:     1.5805     Total:     1.5805


*** tstop() called on psinet at Mon May 15 15:36:23 2017
Module time:
	user time   =       3.82 seconds =       0.06 minutes
	system time =       0.03 seconds =       0.00 minutes
	total time  =          4 seconds =       0.07 minutes
Total time:
	user time   =      16.07 seconds =       0.27 minutes
	system time =       0.13 seconds =       0.00 minutes
	total time  =         16 seconds =       0.27 minutes
	RKS  0 1 B86BPBE Energy...........................................PASSED

*** tstart() called on psinet
*** at Mon May 15 15:36:23 2017

   => Loading Basis Set <=

    Name: STO-3G
    Role: ORBITAL
    Keyword: BASIS
    atoms 1   entry O          line    80 file /home/psilocaluser/gits/hrw-direct/objdir4/stage/usr/local/psi4/share/psi4/basis/sto-3g.gbs 
    atoms 2-3 entry H          line    18 file /home/psilocaluser/gits/hrw-direct/objdir4/stage/usr/local/psi4/share/psi4/basis/sto-3g.gbs 


         ---------------------------------------------------------
                                   SCF
            by Justin Turney, Rob Parrish, and Andy Simmonett
                              RKS Reference
                        1 Threads,    500 MiB Core
         ---------------------------------------------------------

  ==> Geometry <==

    Molecular point group: c2v
    Full point group: C2v

    Geometry (in Angstrom), charge = 0, multiplicity = 1:

       Center              X                  Y                   Z               Mass       
    ------------   -----------------  -----------------  -----------------  -----------------
           O          0.000000000000     0.000000000000    -0.068516219310    15.994914619560
           H          0.000000000000    -0.790689573744     0.543701060724     1.007825032070
           H          0.000000000000     0.790689573744     0.543701060724     1.007825032070

  Running in c2v symmetry.

  Rotational constants: A =     25.12555  B =     13.37733  C =      8.72955 [cm^-1]
  Rotational constants: A = 753245.06586  B = 401042.16407  C = 261705.25278 [MHz]
  Nuclear repulsion =    8.801465529972067

  Charge       = 0
  Multiplicity = 1
  Electrons    = 10
  Nalpha       = 5
  Nbeta        = 5

  ==> Algorithm <==

  SCF Algorithm Type is DIRECT.
  DIIS enabled.
  MOM disabled.
  Fractional occupation disabled.
  Guess Type is CORE.
  Energy threshold   = 1.00e-06
  Density threshold  = 1.00e-06
  Integral threshold = 0.00e+00

  ==> Primary Basis <==

  -AO BASIS SET INFORMATION:
    Name                   = STO-3G
    Blend                  = STO-3G
    Total number of shells = 5
    Number of primitives   = 15
    Number of AO           = 7
    Number of SO           = 7
    Maximum AM             = 1
    Spherical Harmonics    = TRUE

  -Contraction Scheme:
    Atom   Type   All Primitives // Shells:
   ------ ------ --------------------------
       1     O     6s 3p // 2s 1p 
       2     H     3s // 1s 
       3     H     3s // 1s 

  ==> DFT Potential <==

   => PW86PBE Composite Functional <= 

    PW86PBE GGA Exchange-Correlation Functional

    J. P. Perdew and W. Yue, Phys. Rev. B 33:8800(R), 1986.

    Points   =           5000
    Deriv    =              1
    GGA      =           TRUE
    Meta     =          FALSE

    X_LRC        =          FALSE
    X_Hybrid     =          FALSE
    X_Alpha      =   0.000000E+00
    X_Omega      =   0.000000E+00
    C_LRC        =          FALSE
    C_Hybrid     =          FALSE
    C_Alpha      =   0.000000E+00
    C_Omega      =   0.000000E+00

   => Exchange Functionals <=

    1.0000  PW86_X

   => Correlation Functionals <=

    1.0000   PBE_C

   => PW86_X Functional <=

    Perdew-Wang 1986 (PW86) GGA Exchange

    J. P. Perdew and W. Yue, Phys. Rev. B 33:8800(R), 1986.

    GGA   =           TRUE
    Meta  =          FALSE
    LRC   =          FALSE
    Alpha =   1.000000E+00
    Omega =   0.000000E+00

   => PBE_C Functional <=

    PBE Correlation

    J.P. Perdew, K. Burke., and M. Ernzerhof, Phys. Rev. Lett., 77, 3865-3868, 1996

    GGA   =           TRUE
    Meta  =          FALSE
    LRC   =          FALSE
    Alpha =   1.000000E+00
    Omega =   0.000000E+00

   => Molecular Quadrature <=

    Radial Scheme    =       TREUTLER
    Pruning Scheme   =           FLAT
    Nuclear Scheme   =       TREUTLER

    BS radius alpha  =              1
    Pruning alpha    =              1
    Radial Points    =             99
    Spherical Points =            302
    Total Points     =          86165
    Total Blocks     =             87
    Max Points       =           4867
    Max Functions    =              7

   => Loading Basis Set <=

    Name: (STO-3G AUX)
    Role: JKFIT
    Keyword: DF_BASIS_SCF
    atoms 1   entry O          line   322 file /home/psilocaluser/gits/hrw-direct/objdir4/stage/usr/local/psi4/share/psi4/basis/def2-svp-jkfit.gbs 
    atoms 2-3 entry H          line    22 file /home/psilocaluser/gits/hrw-direct/objdir4/stage/usr/local/psi4/share/psi4/basis/def2-svp-jkfit.gbs 

  ==> Pre-Iterations <==

   -------------------------------------------------------
    Irrep   Nso     Nmo     Nalpha   Nbeta   Ndocc  Nsocc
   -------------------------------------------------------
     A1         4       4       0       0       0       0
     A2         0       0       0       0       0       0
     B1         1       1       0       0       0       0
     B2         2       2       0       0       0       0
   -------------------------------------------------------
    Total       7       7       5       5       5       0
   -------------------------------------------------------

  Starting with a DF guess...

  ==> Integral Setup <==

  ==> DFJK: Density-Fitted J/K Matrices <==

    J tasked:                  Yes
    K tasked:                   No
    wK tasked:                  No
    OpenMP threads:              1
    Integrals threads:           1
    Memory (MB):               375
    Algorithm:                Core
    Integral Cache:           NONE
    Schwarz Cutoff:          1E-12
    Fitting Condition:       1E-12

   => Auxiliary Basis Set <=

  -AO BASIS SET INFORMATION:
    Name                   = (STO-3G AUX)
    Blend                  = DEF2-SVP-JKFIT
    Total number of shells = 37
    Number of primitives   = 49
    Number of AO           = 133
    Number of SO           = 113
    Maximum AM             = 4
    Spherical Harmonics    = TRUE

  -Contraction Scheme:
    Atom   Type   All Primitives // Shells:
   ------ ------ --------------------------
       1     O     14s 10p 6d 2f 1g // 10s 8p 4d 2f 1g 
       2     H     4s 2p 2d // 2s 2p 2d 
       3     H     4s 2p 2d // 2s 2p 2d 

  Minimum eigenvalue in the overlap matrix is 3.7028400642E-01.
  Using Symmetric Orthogonalization.

  SCF Guess: Core (One-Electron) Hamiltonian.

  ==> Iterations <==

                           Total Energy        Delta E     RMS |[F,P]|

   @DF-RKS iter   1:   -73.59482719143676   -7.35948e+01   2.10626e-01 
   @DF-RKS iter   2:   -74.48897610870415   -8.94149e-01   2.01838e-01 DIIS
   @DF-RKS iter   3:   -75.34930216219821   -8.60326e-01   7.02048e-03 DIIS
   @DF-RKS iter   4:   -75.35028803309683   -9.85871e-04   1.50168e-03 DIIS
   @DF-RKS iter   5:   -75.35031784942038   -2.98163e-05   4.79503e-04 DIIS
   @DF-RKS iter   6:   -75.35032099137453   -3.14195e-06   1.04993e-04 DIIS
   @DF-RKS iter   7:   -75.35032114780351   -1.56429e-07   1.09582e-05 DIIS
   @DF-RKS iter   8:   -75.35032114952452   -1.72101e-09   7.32582e-10 DIIS

  DF guess converged.

  ==> Integral Setup <==

  ==> DirectJK: Integral-Direct J/K Matrices <==

    J tasked:                  Yes
    K tasked:                   No
    wK tasked:                  No
    Integrals threads:           1
    Schwarz Cutoff:          1E-12

   @RKS iter   9:   -75.34987977045412    4.41379e-04   1.38742e-05 DIIS
   @RKS iter  10:   -75.34987977018409    2.70035e-10   1.16041e-05 DIIS
   @RKS iter  11:   -75.34987977203100   -1.84691e-09   2.22844e-06 DIIS
   @RKS iter  12:   -75.34987977210041   -6.94058e-11   2.34487e-08 DIIS

  ==> Post-Iterations <==

    Orbital Energies (a.u.)
    -----------------------

    Doubly Occupied:                                                      

       1A1   -18.487307     2A1    -0.826521     1B2    -0.375989  
       3A1    -0.170236     1B1    -0.066857  

    Virtual:                                                              

       4A1     0.268783     2B2     0.372460  

    Final Occupation by Irrep:
             A1    A2    B1    B2 
    DOCC [     3,    0,    1,    1 ]

  Energy converged.

  @RKS Final Energy:   -75.34987977210041

   => Energetics <=

    Nuclear Repulsion Energy =              8.8014655299720665
    One-Electron Energy =                -121.6456014962419516
    Two-Electron Energy =                  46.9424247517679873
    DFT Exchange-Correlation Energy =      -9.4481685575985033
    Empirical Dispersion Energy =           0.0000000000000000
    PCM Polarization Energy =               0.0000000000000000
    EFP Energy =                            0.0000000000000000
    Total Energy =                        -75.3498797721004081



Properties will be evaluated at   0.000000,   0.000000,   0.000000 Bohr

Properties computed using the SCF density matrix

  Nuclear Dipole Moment: (a.u.)
     X:     0.0000      Y:     0.0000      Z:     1.0191

  Electronic Dipole Moment: (a.u.)
     X:     0.0000      Y:     0.0000      Z:    -0.4027

  Dipole Moment: (a.u.)
     X:     0.0000      Y:     0.0000      Z:     0.6164     Total:     0.6164

  Dipole Moment: (Debye)
     X:     0.0000      Y:     0.0000      Z:     1.5667     Total:     1.5667


*** tstop() called on psinet at Mon May 15 15:36:27 2017
Module time:
	user time   =       3.81 seconds =       0.06 minutes
	system time =       0.01 seconds =       0.00 minutes
	total time  =          4 seconds =       0.07 minutes
Total time:
	user time   =      19.89 seconds =       0.33 minutes
	system time =       0.14 seconds =       0.00 minutes
	total time  =         20 seconds =       0.33 minutes
	RKS  0 1 PW86PBE Energy...........................................PASSED

*** tstart() called on psinet
*** at Mon May 15 15:36:27 2017

   => Loading Basis Set <=

    Name: STO-3G
    Role: ORBITAL
    Keyword: BASIS
    atoms 1   entry O          line    80 file /home/psilocaluser/gits/hrw-direct/objdir4/stage/usr/local/psi4/share/psi4/basis/sto-3g.gbs 
    atoms 2-3 entry H          line    18 file /home/psilocaluser/gits/hrw-direct/objdir4/stage/usr/local/psi4/share/psi4/basis/sto-3g.gbs 


         ---------------------------------------------------------
                                   SCF
            by Justin Turney, Rob Parrish, and Andy Simmonett
                              UKS Reference
                        1 Threads,    500 MiB Core
         ---------------------------------------------------------

  ==> Geometry <==

    Molecular point group: c2v
    Full point group: C2v

    Geometry (in Angstrom), charge = 0, multiplicity = 1:

       Center              X                  Y                   Z               Mass       
    ------------   -----------------  -----------------  -----------------  -----------------
           O          0.000000000000     0.000000000000    -0.068516219310    15.994914619560
           H          0.000000000000    -0.790689573744     0.543701060724     1.007825032070
           H          0.000000000000     0.790689573744     0.543701060724     1.007825032070

  Running in c2v symmetry.

  Rotational constants: A =     25.12555  B =     13.37733  C =      8.72955 [cm^-1]
  Rotational constants: A = 753245.06586  B = 401042.16407  C = 261705.25278 [MHz]
  Nuclear repulsion =    8.801465529972067

  Charge       = 0
  Multiplicity = 1
  Electrons    = 10
  Nalpha       = 5
  Nbeta        = 5

  ==> Algorithm <==

  SCF Algorithm Type is DIRECT.
  DIIS enabled.
  MOM disabled.
  Fractional occupation disabled.
  Guess Type is CORE.
  Energy threshold   = 1.00e-06
  Density threshold  = 1.00e-06
  Integral threshold = 0.00e+00

  ==> Primary Basis <==

  -AO BASIS SET INFORMATION:
    Name                   = STO-3G
    Blend                  = STO-3G
    Total number of shells = 5
    Number of primitives   = 15
    Number of AO           = 7
    Number of SO           = 7
    Maximum AM             = 1
    Spherical Harmonics    = TRUE

  -Contraction Scheme:
    Atom   Type   All Primitives // Shells:
   ------ ------ --------------------------
       1     O     6s 3p // 2s 1p 
       2     H     3s // 1s 
       3     H     3s // 1s 

  ==> DFT Potential <==

   => B88_X Composite Functional <= 

    Becke88 GGA Exchange

    A.D. Becke, Phys. Rev. A, 38(6):3098-3100, 1988

    Points   =           5000
    Deriv    =              1
    GGA      =           TRUE
    Meta     =          FALSE

    X_LRC        =          FALSE
    X_Hybrid     =          FALSE
    X_Alpha      =   0.000000E+00
    X_Omega      =   0.000000E+00
    C_LRC        =          FALSE
    C_Hybrid     =          FALSE
    C_Alpha      =   0.000000E+00
    C_Omega      =   0.000000E+00

   => Exchange Functionals <=

    1.0000   B88_X

   => Correlation Functionals <=


   => B88_X Functional <=

    Becke88 GGA Exchange

    A.D. Becke, Phys. Rev. A, 38(6):3098-3100, 1988

    GGA   =           TRUE
    Meta  =          FALSE
    LRC   =          FALSE
    Alpha =   1.000000E+00
    Omega =   0.000000E+00

   => Molecular Quadrature <=

    Radial Scheme    =       TREUTLER
    Pruning Scheme   =           FLAT
    Nuclear Scheme   =       TREUTLER

    BS radius alpha  =              1
    Pruning alpha    =              1
    Radial Points    =             99
    Spherical Points =            302
    Total Points     =          86165
    Total Blocks     =             87
    Max Points       =           4867
    Max Functions    =              7

   => Loading Basis Set <=

    Name: (STO-3G AUX)
    Role: JKFIT
    Keyword: DF_BASIS_SCF
    atoms 1   entry O          line   322 file /home/psilocaluser/gits/hrw-direct/objdir4/stage/usr/local/psi4/share/psi4/basis/def2-svp-jkfit.gbs 
    atoms 2-3 entry H          line    22 file /home/psilocaluser/gits/hrw-direct/objdir4/stage/usr/local/psi4/share/psi4/basis/def2-svp-jkfit.gbs 

  ==> Pre-Iterations <==

   -------------------------------------------------------
    Irrep   Nso     Nmo     Nalpha   Nbeta   Ndocc  Nsocc
   -------------------------------------------------------
     A1         4       4       0       0       0       0
     A2         0       0       0       0       0       0
     B1         1       1       0       0       0       0
     B2         2       2       0       0       0       0
   -------------------------------------------------------
    Total       7       7       5       5       5       0
   -------------------------------------------------------

  Starting with a DF guess...

  ==> Integral Setup <==

  ==> DFJK: Density-Fitted J/K Matrices <==

    J tasked:                  Yes
    K tasked:                   No
    wK tasked:                  No
    OpenMP threads:              1
    Integrals threads:           1
    Memory (MB):               375
    Algorithm:                Core
    Integral Cache:           NONE
    Schwarz Cutoff:          1E-12
    Fitting Condition:       1E-12

   => Auxiliary Basis Set <=

  -AO BASIS SET INFORMATION:
    Name                   = (STO-3G AUX)
    Blend                  = DEF2-SVP-JKFIT
    Total number of shells = 37
    Number of primitives   = 49
    Number of AO           = 133
    Number of SO           = 113
    Maximum AM             = 4
    Spherical Harmonics    = TRUE

  -Contraction Scheme:
    Atom   Type   All Primitives // Shells:
   ------ ------ --------------------------
       1     O     14s 10p 6d 2f 1g // 10s 8p 4d 2f 1g 
       2     H     4s 2p 2d // 2s 2p 2d 
       3     H     4s 2p 2d // 2s 2p 2d 

  Minimum eigenvalue in the overlap matrix is 3.7028400642E-01.
  Using Symmetric Orthogonalization.

  SCF Guess: Core (One-Electron) Hamiltonian.

  ==> Iterations <==

                           Total Energy        Delta E     RMS |[F,P]|

   @DF-UKS iter   1:   -73.16623837359288   -7.31662e+01   2.10255e-01 
   @DF-UKS iter   2:   -74.08274943074838   -9.16511e-01   2.00526e-01 DIIS
   @DF-UKS iter   3:   -74.94870150635774   -8.65952e-01   7.49901e-03 DIIS
   @DF-UKS iter   4:   -74.94977771143462   -1.07621e-03   1.64366e-03 DIIS
   @DF-UKS iter   5:   -74.94981345964689   -3.57482e-05   5.38279e-04 DIIS
   @DF-UKS iter   6:   -74.94981745313063   -3.99348e-06   1.12512e-04 DIIS
   @DF-UKS iter   7:   -74.94981763519748   -1.82067e-07   6.11093e-06 DIIS
   @DF-UKS iter   8:   -74.94981763573557   -5.38094e-10   1.85065e-10 DIIS

  DF guess converged.

  ==> Integral Setup <==

  ==> DirectJK: Integral-Direct J/K Matrices <==

    J tasked:                  Yes
    K tasked:                   No
    wK tasked:                  No
    Integrals threads:           1
    Schwarz Cutoff:          1E-12

   @UKS iter   9:   -74.94937516762349    4.42468e-04   1.41154e-05 DIIS
   @UKS iter  10:   -74.94937516729188    3.31610e-10   1.21026e-05 DIIS
   @UKS iter  11:   -74.94937516931751   -2.02563e-09   2.19600e-06 DIIS
   @UKS iter  12:   -74.94937516938487   -6.73595e-11   2.60387e-08 DIIS

  ==> Post-Iterations <==

   @Spin Contamination Metric:  -4.440892099E-15
   @S^2 Expected:                0.000000000E+00
   @S^2 Observed:               -4.440892099E-15
   @S   Expected:                0.000000000E+00
   @S   Observed:                0.000000000E+00

    Orbital Energies (a.u.)
    -----------------------

    Alpha Occupied:                                                       

       1A1   -18.450318     2A1    -0.782593     1B2    -0.334067  
       3A1    -0.129868     1B1    -0.029260  

    Alpha Virtual:                                                        

       4A1     0.304317     2B2     0.410059  

    Beta Occupied:                                                        

       1A1   -18.450318     2A1    -0.782593     1B2    -0.334067  
       3A1    -0.129868     1B1    -0.029260  

    Beta Virtual:                                                         

       4A1     0.304317     2B2     0.410059  

    Final Occupation by Irrep:
             A1    A2    B1    B2 
    DOCC [     3,    0,    1,    1 ]
    SOCC [     0,    0,    0,    0 ]

  Energy converged.

  @UKS Final Energy:   -74.94937516938487

   => Energetics <=

    Nuclear Repulsion Energy =              8.8014655299720665
    One-Electron Energy =                -121.5672347029667719
    Two-Electron Energy =                  46.8564140047538089
    DFT Exchange-Correlation Energy =      -9.0400200011439527
    Empirical Dispersion Energy =           0.0000000000000000
    PCM Polarization Energy =               0.0000000000000000
    EFP Energy =                            0.0000000000000000
    Total Energy =                        -74.9493751693848509


  UHF NO Occupations:
  HONO-2 :    3 A1 2.0000000
  HONO-1 :    1 B1 2.0000000
  HONO-0 :    1 B2 2.0000000
  LUNO+0 :    4 A1 0.0000000
  LUNO+1 :    2 B2 0.0000000



Properties will be evaluated at   0.000000,   0.000000,   0.000000 Bohr

Properties computed using the SCF density matrix

  Nuclear Dipole Moment: (a.u.)
     X:     0.0000      Y:     0.0000      Z:     1.0191

  Electronic Dipole Moment: (a.u.)
     X:     0.0000      Y:     0.0000      Z:    -0.4303

  Dipole Moment: (a.u.)
     X:     0.0000      Y:     0.0000      Z:     0.5888     Total:     0.5888

  Dipole Moment: (Debye)
     X:     0.0000      Y:     0.0000      Z:     1.4965     Total:     1.4965


*** tstop() called on psinet at Mon May 15 15:36:29 2017
Module time:
	user time   =       1.65 seconds =       0.03 minutes
	system time =       0.03 seconds =       0.00 minutes
	total time  =          2 seconds =       0.03 minutes
Total time:
	user time   =      21.55 seconds =       0.36 minutes
	system time =       0.17 seconds =       0.00 minutes
	total time  =         22 seconds =       0.37 minutes
	UKS  0 1    B88 Energy............................................PASSED

*** tstart() called on psinet
*** at Mon May 15 15:36:29 2017

   => Loading Basis Set <=

    Name: STO-3G
    Role: ORBITAL
    Keyword: BASIS
    atoms 1   entry O          line    80 file /home/psilocaluser/gits/hrw-direct/objdir4/stage/usr/local/psi4/share/psi4/basis/sto-3g.gbs 
    atoms 2-3 entry H          line    18 file /home/psilocaluser/gits/hrw-direct/objdir4/stage/usr/local/psi4/share/psi4/basis/sto-3g.gbs 


         ---------------------------------------------------------
                                   SCF
            by Justin Turney, Rob Parrish, and Andy Simmonett
                              UKS Reference
                        1 Threads,    500 MiB Core
         ---------------------------------------------------------

  ==> Geometry <==

    Molecular point group: c2v
    Full point group: C2v

    Geometry (in Angstrom), charge = 0, multiplicity = 1:

       Center              X                  Y                   Z               Mass       
    ------------   -----------------  -----------------  -----------------  -----------------
           O          0.000000000000     0.000000000000    -0.068516219310    15.994914619560
           H          0.000000000000    -0.790689573744     0.543701060724     1.007825032070
           H          0.000000000000     0.790689573744     0.543701060724     1.007825032070

  Running in c2v symmetry.

  Rotational constants: A =     25.12555  B =     13.37733  C =      8.72955 [cm^-1]
  Rotational constants: A = 753245.06586  B = 401042.16407  C = 261705.25278 [MHz]
  Nuclear repulsion =    8.801465529972067

  Charge       = 0
  Multiplicity = 1
  Electrons    = 10
  Nalpha       = 5
  Nbeta        = 5

  ==> Algorithm <==

  SCF Algorithm Type is DIRECT.
  DIIS enabled.
  MOM disabled.
  Fractional occupation disabled.
  Guess Type is CORE.
  Energy threshold   = 1.00e-06
  Density threshold  = 1.00e-06
  Integral threshold = 0.00e+00

  ==> Primary Basis <==

  -AO BASIS SET INFORMATION:
    Name                   = STO-3G
    Blend                  = STO-3G
    Total number of shells = 5
    Number of primitives   = 15
    Number of AO           = 7
    Number of SO           = 7
    Maximum AM             = 1
    Spherical Harmonics    = TRUE

  -Contraction Scheme:
    Atom   Type   All Primitives // Shells:
   ------ ------ --------------------------
       1     O     6s 3p // 2s 1p 
       2     H     3s // 1s 
       3     H     3s // 1s 

  ==> DFT Potential <==

   => B3LYP Composite Functional <= 

    B3LYP Hybrid-GGA Exchange-Correlation Functional (VWN1-RPA)

    P.J. Stephens et. al., J. Phys. Chem., 98, 11623-11627, 1994

    Points   =           5000
    Deriv    =              1
    GGA      =           TRUE
    Meta     =          FALSE

    X_LRC        =          FALSE
    X_Hybrid     =           TRUE
    X_Alpha      =   2.000000E-01
    X_Omega      =   0.000000E+00
    C_LRC        =          FALSE
    C_Hybrid     =          FALSE
    C_Alpha      =   0.000000E+00
    C_Omega      =   0.000000E+00

   => Exchange Functionals <=

    0.8000    B3_X
    0.2000      HF 

   => Correlation Functionals <=

    0.1900 VWN3RPA_C
    0.8100   LYP_C

   => B3_X Functional <=

    Becke88 GGA Exchange (B3LYP weighting)

    P.J. Stephens et. al., J. Phys. Chem., 98, 11623-11627, 1994

    GGA   =           TRUE
    Meta  =          FALSE
    LRC   =          FALSE
    Alpha =   1.000000E+00
    Omega =   0.000000E+00

   => VWN3RPA_C Functional <=

    VWN3 LSDA Correlation, RPA Parameters, VWN1 Spin Polarization

    S.H. Vosko, L. Wilk, and M. Nusair, Can. J. Phys., 58, 1200-1211, 1980

    GGA   =          FALSE
    Meta  =          FALSE
    LRC   =          FALSE
    Alpha =   1.900000E-01
    Omega =   0.000000E+00

   => LYP_C Functional <=

    LYP Correlation

    B. Miehlich et. al., Chem. Phys. Lett., 157(3), 200-206 (1989)

    GGA   =           TRUE
    Meta  =          FALSE
    LRC   =          FALSE
    Alpha =   8.100000E-01
    Omega =   0.000000E+00

   => Molecular Quadrature <=

    Radial Scheme    =       TREUTLER
    Pruning Scheme   =           FLAT
    Nuclear Scheme   =       TREUTLER

    BS radius alpha  =              1
    Pruning alpha    =              1
    Radial Points    =             99
    Spherical Points =            302
    Total Points     =          86165
    Total Blocks     =             87
    Max Points       =           4867
    Max Functions    =              7

   => Loading Basis Set <=

    Name: (STO-3G AUX)
    Role: JKFIT
    Keyword: DF_BASIS_SCF
    atoms 1   entry O          line   322 file /home/psilocaluser/gits/hrw-direct/objdir4/stage/usr/local/psi4/share/psi4/basis/def2-svp-jkfit.gbs 
    atoms 2-3 entry H          line    22 file /home/psilocaluser/gits/hrw-direct/objdir4/stage/usr/local/psi4/share/psi4/basis/def2-svp-jkfit.gbs 

  ==> Pre-Iterations <==

   -------------------------------------------------------
    Irrep   Nso     Nmo     Nalpha   Nbeta   Ndocc  Nsocc
   -------------------------------------------------------
     A1         4       4       0       0       0       0
     A2         0       0       0       0       0       0
     B1         1       1       0       0       0       0
     B2         2       2       0       0       0       0
   -------------------------------------------------------
    Total       7       7       5       5       5       0
   -------------------------------------------------------

  Starting with a DF guess...

  ==> Integral Setup <==

  ==> DFJK: Density-Fitted J/K Matrices <==

    J tasked:                  Yes
    K tasked:                  Yes
    wK tasked:                  No
    OpenMP threads:              1
    Integrals threads:           1
    Memory (MB):               375
    Algorithm:                Core
    Integral Cache:           NONE
    Schwarz Cutoff:          1E-12
    Fitting Condition:       1E-12

   => Auxiliary Basis Set <=

  -AO BASIS SET INFORMATION:
    Name                   = (STO-3G AUX)
    Blend                  = DEF2-SVP-JKFIT
    Total number of shells = 37
    Number of primitives   = 49
    Number of AO           = 133
    Number of SO           = 113
    Maximum AM             = 4
    Spherical Harmonics    = TRUE

  -Contraction Scheme:
    Atom   Type   All Primitives // Shells:
   ------ ------ --------------------------
       1     O     14s 10p 6d 2f 1g // 10s 8p 4d 2f 1g 
       2     H     4s 2p 2d // 2s 2p 2d 
       3     H     4s 2p 2d // 2s 2p 2d 

  Minimum eigenvalue in the overlap matrix is 3.7028400642E-01.
  Using Symmetric Orthogonalization.

  SCF Guess: Core (One-Electron) Hamiltonian.

  ==> Iterations <==

                           Total Energy        Delta E     RMS |[F,P]|

   @DF-UKS iter   1:   -73.57703879767206   -7.35770e+01   2.11936e-01 
   @DF-UKS iter   2:   -74.52448221969453   -9.47443e-01   1.95247e-01 DIIS
   @DF-UKS iter   3:   -75.31722533326851   -7.92743e-01   1.37558e-02 DIIS
   @DF-UKS iter   4:   -75.31987693839709   -2.65161e-03   3.71084e-03 DIIS
   @DF-UKS iter   5:   -75.32007269339425   -1.95755e-04   9.11437e-04 DIIS
   @DF-UKS iter   6:   -75.32008362955079   -1.09362e-05   2.90836e-04 DIIS
   @DF-UKS iter   7:   -75.32008485595804   -1.22641e-06   9.36027e-06 DIIS
[...]
    ------------   -----------------  -----------------  -----------------  -----------------
           O          0.000000000000     0.000000000000    -0.068516219310    15.994914619560
           H          0.000000000000    -0.790689573744     0.543701060724     1.007825032070
           H          0.000000000000     0.790689573744     0.543701060724     1.007825032070

  Running in c2v symmetry.

  Rotational constants: A =     25.12555  B =     13.37733  C =      8.72955 [cm^-1]
  Rotational constants: A = 753245.06586  B = 401042.16407  C = 261705.25278 [MHz]
  Nuclear repulsion =    8.801465529972067

  Charge       = -1
  Multiplicity = 2
  Electrons    = 11
  Nalpha       = 6
  Nbeta        = 5

  ==> Algorithm <==

  SCF Algorithm Type is DIRECT.
  DIIS enabled.
  MOM disabled.
  Fractional occupation disabled.
  Guess Type is CORE.
  Energy threshold   = 1.00e-06
  Density threshold  = 1.00e-06
  Integral threshold = 0.00e+00

  ==> Primary Basis <==

  -AO BASIS SET INFORMATION:
    Name                   = STO-3G
    Blend                  = STO-3G
    Total number of shells = 5
    Number of primitives   = 15
    Number of AO           = 7
    Number of SO           = 7
    Maximum AM             = 1
    Spherical Harmonics    = TRUE

  -Contraction Scheme:
    Atom   Type   All Primitives // Shells:
   ------ ------ --------------------------
       1     O     6s 3p // 2s 1p 
       2     H     3s // 1s 
       3     H     3s // 1s 

  ==> DFT Potential <==

   => B86BPBE Composite Functional <= 

    B86BPBE GGA Exchange-Correlation Functional

    A. D. Becke, J. Chem. Phys. 85:7184, 1986.

    Points   =           5000
    Deriv    =              1
    GGA      =           TRUE
    Meta     =          FALSE

    X_LRC        =          FALSE
    X_Hybrid     =          FALSE
    X_Alpha      =   0.000000E+00
    X_Omega      =   0.000000E+00
    C_LRC        =          FALSE
    C_Hybrid     =          FALSE
    C_Alpha      =   0.000000E+00
    C_Omega      =   0.000000E+00

   => Exchange Functionals <=

    1.0000  B86B_X

   => Correlation Functionals <=

    1.0000   PBE_C

   => B86B_X Functional <=

    Becke86B GGA Exchange

    A. D. Becke, J. Chem. Phys. 85:7184, 1986.

    GGA   =           TRUE
    Meta  =          FALSE
    LRC   =          FALSE
    Alpha =   1.000000E+00
    Omega =   0.000000E+00

   => PBE_C Functional <=

    PBE Correlation

    J.P. Perdew, K. Burke., and M. Ernzerhof, Phys. Rev. Lett., 77, 3865-3868, 1996

    GGA   =           TRUE
    Meta  =          FALSE
    LRC   =          FALSE
    Alpha =   1.000000E+00
    Omega =   0.000000E+00

   => Molecular Quadrature <=

    Radial Scheme    =       TREUTLER
    Pruning Scheme   =           FLAT
    Nuclear Scheme   =       TREUTLER

    BS radius alpha  =              1
    Pruning alpha    =              1
    Radial Points    =             99
    Spherical Points =            302
    Total Points     =          86165
    Total Blocks     =             87
    Max Points       =           4867
    Max Functions    =              7

   => Loading Basis Set <=

    Name: (STO-3G AUX)
    Role: JKFIT
    Keyword: DF_BASIS_SCF
    atoms 1   entry O          line   322 file /home/psilocaluser/gits/hrw-direct/objdir4/stage/usr/local/psi4/share/psi4/basis/def2-svp-jkfit.gbs 
    atoms 2-3 entry H          line    22 file /home/psilocaluser/gits/hrw-direct/objdir4/stage/usr/local/psi4/share/psi4/basis/def2-svp-jkfit.gbs 

  ==> Pre-Iterations <==

   -------------------------------------------------------
    Irrep   Nso     Nmo     Nalpha   Nbeta   Ndocc  Nsocc
   -------------------------------------------------------
     A1         4       4       0       0       0       0
     A2         0       0       0       0       0       0
     B1         1       1       0       0       0       0
     B2         2       2       0       0       0       0
   -------------------------------------------------------
    Total       7       7       6       5       5       1
   -------------------------------------------------------

  Starting with a DF guess...

  ==> Integral Setup <==

  ==> DFJK: Density-Fitted J/K Matrices <==

    J tasked:                  Yes
    K tasked:                   No
    wK tasked:                  No
    OpenMP threads:              1
    Integrals threads:           1
    Memory (MB):               375
    Algorithm:                Core
    Integral Cache:           NONE
    Schwarz Cutoff:          1E-12
    Fitting Condition:       1E-12

   => Auxiliary Basis Set <=

  -AO BASIS SET INFORMATION:
    Name                   = (STO-3G AUX)
    Blend                  = DEF2-SVP-JKFIT
    Total number of shells = 37
    Number of primitives   = 49
    Number of AO           = 133
    Number of SO           = 113
    Maximum AM             = 4
    Spherical Harmonics    = TRUE

  -Contraction Scheme:
    Atom   Type   All Primitives // Shells:
   ------ ------ --------------------------
       1     O     14s 10p 6d 2f 1g // 10s 8p 4d 2f 1g 
       2     H     4s 2p 2d // 2s 2p 2d 
       3     H     4s 2p 2d // 2s 2p 2d 

  Minimum eigenvalue in the overlap matrix is 3.7028400642E-01.
  Using Symmetric Orthogonalization.

  SCF Guess: Core (One-Electron) Hamiltonian.

  ==> Iterations <==

                           Total Energy        Delta E     RMS |[F,P]|

    Occupation by irrep:
             A1    A2    B1    B2 
    DOCC [     3,    0,    1,    1 ]
    SOCC [     1,    0,    0,    0 ]

   @DF-UKS iter   1:   -73.30074106548686   -7.33007e+01   1.80890e-01 
   @DF-UKS iter   2:   -74.40150896214271   -1.10077e+00   1.32991e-01 DIIS
   @DF-UKS iter   3:   -74.79016172493783   -3.88653e-01   4.44962e-03 DIIS
   @DF-UKS iter   4:   -74.79081243001860   -6.50705e-04   6.72456e-04 DIIS
   @DF-UKS iter   5:   -74.79083044539954   -1.80154e-05   3.10514e-04 DIIS
   @DF-UKS iter   6:   -74.79083207567122   -1.63027e-06   2.11101e-05 DIIS
   @DF-UKS iter   7:   -74.79083208299731   -7.32609e-09   1.15609e-06 DIIS
   @DF-UKS iter   8:   -74.79083208301930   -2.19842e-11   1.36239e-08 DIIS

  DF guess converged.

  ==> Integral Setup <==

  ==> DirectJK: Integral-Direct J/K Matrices <==

    J tasked:                  Yes
    K tasked:                   No
    wK tasked:                  No
    Integrals threads:           1
    Schwarz Cutoff:          1E-12

   @UKS iter   9:   -74.79028809604333    5.43987e-04   2.75243e-05 DIIS
   @UKS iter  10:   -74.79028809951566   -3.47234e-09   2.30705e-05 DIIS
   @UKS iter  11:   -74.79028810793227   -8.41661e-09   2.90542e-07 DIIS

  ==> Post-Iterations <==

   @Spin Contamination Metric:   7.380265584E-04
   @S^2 Expected:                7.500000000E-01
   @S^2 Observed:                7.507380266E-01
   @S   Expected:                5.000000000E-01
   @S   Observed:                5.000000000E-01

    Orbital Energies (a.u.)
    -----------------------

    Alpha Occupied:                                                       

       1A1   -17.797568     2A1    -0.300250     1B2     0.124965  
       3A1     0.296539     1B1     0.440769     4A1     0.754439  

    Alpha Virtual:                                                        

       2B2     0.859026  

    Beta Occupied:                                                        

       1A1   -17.783626     2A1    -0.264044     1B2     0.153886  
       3A1     0.326660     1B1     0.460311  

    Beta Virtual:                                                         

       4A1     0.840017     2B2     0.899375  

    Final Occupation by Irrep:
             A1    A2    B1    B2 
    DOCC [     3,    0,    1,    1 ]
    SOCC [     1,    0,    0,    0 ]

  Energy converged.

  @UKS Final Energy:   -74.79028810793227

   => Energetics <=

    Nuclear Repulsion Energy =              8.8014655299720665
    One-Electron Energy =                -126.4453528699160643
    Two-Electron Energy =                  52.8551530008006480
    DFT Exchange-Correlation Energy =     -10.0015537687889271
    Empirical Dispersion Energy =           0.0000000000000000
    PCM Polarization Energy =               0.0000000000000000
    EFP Energy =                            0.0000000000000000
    Total Energy =                        -74.7902881079322839


  UHF NO Occupations:
  HONO-2 :    3 A1 2.0000000
  HONO-1 :    1 B2 1.9996309
  HONO-0 :    4 A1 1.0000000
  LUNO+0 :    2 B2 0.0003691



Properties will be evaluated at   0.000000,   0.000000,   0.000000 Bohr

Properties computed using the SCF density matrix

  Nuclear Dipole Moment: (a.u.)
     X:     0.0000      Y:     0.0000      Z:     1.0191

  Electronic Dipole Moment: (a.u.)
     X:     0.0000      Y:     0.0000      Z:    -1.3773

  Dipole Moment: (a.u.)
     X:     0.0000      Y:     0.0000      Z:    -0.3582     Total:     0.3582

  Dipole Moment: (Debye)
     X:     0.0000      Y:     0.0000      Z:    -0.9104     Total:     0.9104


*** tstop() called on psinet at Mon May 15 15:37:31 2017
Module time:
	user time   =       4.18 seconds =       0.07 minutes
	system time =       0.02 seconds =       0.00 minutes
	total time  =          4 seconds =       0.07 minutes
Total time:
	user time   =      83.31 seconds =       1.39 minutes
	system time =       0.45 seconds =       0.01 minutes
	total time  =         84 seconds =       1.40 minutes
	UKS -1 2 B86BPBE Energy...........................................PASSED

*** tstart() called on psinet
*** at Mon May 15 15:37:31 2017

   => Loading Basis Set <=

    Name: STO-3G
    Role: ORBITAL
    Keyword: BASIS
    atoms 1   entry O          line    80 file /home/psilocaluser/gits/hrw-direct/objdir4/stage/usr/local/psi4/share/psi4/basis/sto-3g.gbs 
    atoms 2-3 entry H          line    18 file /home/psilocaluser/gits/hrw-direct/objdir4/stage/usr/local/psi4/share/psi4/basis/sto-3g.gbs 


         ---------------------------------------------------------
                                   SCF
            by Justin Turney, Rob Parrish, and Andy Simmonett
                              UKS Reference
                        1 Threads,    500 MiB Core
         ---------------------------------------------------------

  ==> Geometry <==

    Molecular point group: c2v
    Full point group: C2v

    Geometry (in Angstrom), charge = -1, multiplicity = 2:

       Center              X                  Y                   Z               Mass       
    ------------   -----------------  -----------------  -----------------  -----------------
           O          0.000000000000     0.000000000000    -0.068516219310    15.994914619560
           H          0.000000000000    -0.790689573744     0.543701060724     1.007825032070
           H          0.000000000000     0.790689573744     0.543701060724     1.007825032070

  Running in c2v symmetry.

  Rotational constants: A =     25.12555  B =     13.37733  C =      8.72955 [cm^-1]
  Rotational constants: A = 753245.06586  B = 401042.16407  C = 261705.25278 [MHz]
  Nuclear repulsion =    8.801465529972067

  Charge       = -1
  Multiplicity = 2
  Electrons    = 11
  Nalpha       = 6
  Nbeta        = 5

  ==> Algorithm <==

  SCF Algorithm Type is DIRECT.
  DIIS enabled.
  MOM disabled.
  Fractional occupation disabled.
  Guess Type is CORE.
  Energy threshold   = 1.00e-06
  Density threshold  = 1.00e-06
  Integral threshold = 0.00e+00

  ==> Primary Basis <==

  -AO BASIS SET INFORMATION:
    Name                   = STO-3G
    Blend                  = STO-3G
    Total number of shells = 5
    Number of primitives   = 15
    Number of AO           = 7
    Number of SO           = 7
    Maximum AM             = 1
    Spherical Harmonics    = TRUE

  -Contraction Scheme:
    Atom   Type   All Primitives // Shells:
   ------ ------ --------------------------
       1     O     6s 3p // 2s 1p 
       2     H     3s // 1s 
       3     H     3s // 1s 

  ==> DFT Potential <==

   => PW86PBE Composite Functional <= 

    PW86PBE GGA Exchange-Correlation Functional

    J. P. Perdew and W. Yue, Phys. Rev. B 33:8800(R), 1986.

    Points   =           5000
    Deriv    =              1
    GGA      =           TRUE
    Meta     =          FALSE

    X_LRC        =          FALSE
    X_Hybrid     =          FALSE
    X_Alpha      =   0.000000E+00
    X_Omega      =   0.000000E+00
    C_LRC        =          FALSE
    C_Hybrid     =          FALSE
    C_Alpha      =   0.000000E+00
    C_Omega      =   0.000000E+00

   => Exchange Functionals <=

    1.0000  PW86_X

   => Correlation Functionals <=

    1.0000   PBE_C

   => PW86_X Functional <=

    Perdew-Wang 1986 (PW86) GGA Exchange

    J. P. Perdew and W. Yue, Phys. Rev. B 33:8800(R), 1986.

    GGA   =           TRUE
    Meta  =          FALSE
    LRC   =          FALSE
    Alpha =   1.000000E+00
    Omega =   0.000000E+00

   => PBE_C Functional <=

    PBE Correlation

    J.P. Perdew, K. Burke., and M. Ernzerhof, Phys. Rev. Lett., 77, 3865-3868, 1996

    GGA   =           TRUE
    Meta  =          FALSE
    LRC   =          FALSE
    Alpha =   1.000000E+00
    Omega =   0.000000E+00

   => Molecular Quadrature <=

    Radial Scheme    =       TREUTLER
    Pruning Scheme   =           FLAT
    Nuclear Scheme   =       TREUTLER

    BS radius alpha  =              1
    Pruning alpha    =              1
    Radial Points    =             99
    Spherical Points =            302
    Total Points     =          86165
    Total Blocks     =             87
    Max Points       =           4867
    Max Functions    =              7

   => Loading Basis Set <=

    Name: (STO-3G AUX)
    Role: JKFIT
    Keyword: DF_BASIS_SCF
    atoms 1   entry O          line   322 file /home/psilocaluser/gits/hrw-direct/objdir4/stage/usr/local/psi4/share/psi4/basis/def2-svp-jkfit.gbs 
    atoms 2-3 entry H          line    22 file /home/psilocaluser/gits/hrw-direct/objdir4/stage/usr/local/psi4/share/psi4/basis/def2-svp-jkfit.gbs 

  ==> Pre-Iterations <==

   -------------------------------------------------------
    Irrep   Nso     Nmo     Nalpha   Nbeta   Ndocc  Nsocc
   -------------------------------------------------------
     A1         4       4       0       0       0       0
     A2         0       0       0       0       0       0
     B1         1       1       0       0       0       0
     B2         2       2       0       0       0       0
   -------------------------------------------------------
    Total       7       7       6       5       5       1
   -------------------------------------------------------

  Starting with a DF guess...

  ==> Integral Setup <==

  ==> DFJK: Density-Fitted J/K Matrices <==

    J tasked:                  Yes
    K tasked:                   No
    wK tasked:                  No
    OpenMP threads:              1
    Integrals threads:           1
    Memory (MB):               375
    Algorithm:                Core
    Integral Cache:           NONE
    Schwarz Cutoff:          1E-12
    Fitting Condition:       1E-12

   => Auxiliary Basis Set <=

  -AO BASIS SET INFORMATION:
    Name                   = (STO-3G AUX)
    Blend                  = DEF2-SVP-JKFIT
    Total number of shells = 37
    Number of primitives   = 49
    Number of AO           = 133
    Number of SO           = 113
    Maximum AM             = 4
    Spherical Harmonics    = TRUE

  -Contraction Scheme:
    Atom   Type   All Primitives // Shells:
   ------ ------ --------------------------
       1     O     14s 10p 6d 2f 1g // 10s 8p 4d 2f 1g 
       2     H     4s 2p 2d // 2s 2p 2d 
       3     H     4s 2p 2d // 2s 2p 2d 

  Minimum eigenvalue in the overlap matrix is 3.7028400642E-01.
  Using Symmetric Orthogonalization.

  SCF Guess: Core (One-Electron) Hamiltonian.

  ==> Iterations <==

                           Total Energy        Delta E     RMS |[F,P]|

    Occupation by irrep:
             A1    A2    B1    B2 
    DOCC [     3,    0,    1,    1 ]
    SOCC [     1,    0,    0,    0 ]

   @DF-UKS iter   1:   -73.35202126311118   -7.33520e+01   1.80681e-01 
   @DF-UKS iter   2:   -74.46044497038173   -1.10842e+00   1.31809e-01 DIIS
   @DF-UKS iter   3:   -74.84435136471330   -3.83906e-01   4.29052e-03 DIIS
   @DF-UKS iter   4:   -74.84505526567435   -7.03901e-04   7.45938e-04 DIIS
   @DF-UKS iter   5:   -74.84508006752083   -2.48018e-05   3.40576e-04 DIIS
   @DF-UKS iter   6:   -74.84508203061027   -1.96309e-06   2.16419e-05 DIIS
   @DF-UKS iter   7:   -74.84508203837306   -7.76279e-09   1.22388e-06 DIIS
   @DF-UKS iter   8:   -74.84508203839790   -2.48406e-11   9.73445e-09 DIIS

  DF guess converged.

  ==> Integral Setup <==

  ==> DirectJK: Integral-Direct J/K Matrices <==

    J tasked:                  Yes
    K tasked:                   No
    wK tasked:                  No
    Integrals threads:           1
    Schwarz Cutoff:          1E-12

   @UKS iter   9:   -74.84453753870972    5.44500e-04   2.76234e-05 DIIS
   @UKS iter  10:   -74.84453754217618   -3.46647e-09   2.31951e-05 DIIS
   @UKS iter  11:   -74.84453755071377   -8.53758e-09   2.89354e-07 DIIS

  ==> Post-Iterations <==

   @Spin Contamination Metric:   7.246448060E-04
   @S^2 Expected:                7.500000000E-01
   @S^2 Observed:                7.507246448E-01
   @S   Expected:                5.000000000E-01
   @S   Observed:                5.000000000E-01

    Orbital Energies (a.u.)
    -----------------------

    Alpha Occupied:                                                       

       1A1   -17.814860     2A1    -0.299601     1B2     0.126188  
       3A1     0.296585     1B1     0.441142     4A1     0.752440  

    Alpha Virtual:                                                        

       2B2     0.857121  

    Beta Occupied:                                                        

       1A1   -17.801497     2A1    -0.264048     1B2     0.153410  
       3A1     0.325777     1B1     0.460161  

    Beta Virtual:                                                         

       4A1     0.838392     2B2     0.897518  

    Final Occupation by Irrep:
             A1    A2    B1    B2 
    DOCC [     3,    0,    1,    1 ]
    SOCC [     1,    0,    0,    0 ]

  Energy converged.

  @UKS Final Energy:   -74.84453755071377

   => Energetics <=

    Nuclear Repulsion Energy =              8.8014655299720665
    One-Electron Energy =                -126.4326927208028621
    Two-Electron Energy =                  52.8414130611043689
    DFT Exchange-Correlation Energy =     -10.0547234209873295
    Empirical Dispersion Energy =           0.0000000000000000
    PCM Polarization Energy =               0.0000000000000000
    EFP Energy =                            0.0000000000000000
    Total Energy =                        -74.8445375507137669


  UHF NO Occupations:
  HONO-2 :    1 B1 2.0000000
  HONO-1 :    1 B2 1.9996376
  HONO-0 :    4 A1 1.0000000
  LUNO+0 :    2 B2 0.0003624



Properties will be evaluated at   0.000000,   0.000000,   0.000000 Bohr

Properties computed using the SCF density matrix

  Nuclear Dipole Moment: (a.u.)
     X:     0.0000      Y:     0.0000      Z:     1.0191

  Electronic Dipole Moment: (a.u.)
     X:     0.0000      Y:     0.0000      Z:    -1.3818

  Dipole Moment: (a.u.)
     X:     0.0000      Y:     0.0000      Z:    -0.3627     Total:     0.3627

  Dipole Moment: (Debye)
     X:     0.0000      Y:     0.0000      Z:    -0.9220     Total:     0.9220


*** tstop() called on psinet at Mon May 15 15:37:35 2017
Module time:
	user time   =       4.18 seconds =       0.07 minutes
	system time =       0.02 seconds =       0.00 minutes
	total time  =          4 seconds =       0.07 minutes
Total time:
	user time   =      87.50 seconds =       1.46 minutes
	system time =       0.47 seconds =       0.01 minutes
	total time  =         88 seconds =       1.47 minutes
	UKS -1 2 PW86PBE Energy...........................................PASSED

*** Psi4 exiting successfully. Buy a developer a beer!
