
    -----------------------------------------------------------------------
          Psi4: An Open-Source Ab Initio Electronic Structure Package
                               Psi4 undefined 

                         Git: Rev {exp_vol} 3e7263c dirty


    D. G. A. Smith, L. A. Burns, A. C. Simmonett, R. M. Parrish,
    M. C. Schieber, R. Galvelis, P. Kraus, H. Kruse, R. Di Remigio,
    A. Alenaizan, A. M. James, S. Lehtola, J. P. Misiewicz, M. Scheurer,
    R. A. Shaw, J. B. Schriber, Y. Xie, Z. L. Glick, D. A. Sirianni,
    J. S. O'Brien, J. M. Waldrop, A. Kumar, E. G. Hohenstein,
    B. P. Pritchard, B. R. Brooks, H. F. Schaefer III, A. Yu. Sokolov,
    K. Patkowski, A. E. DePrince III, U. Bozkaya, R. A. King,
    F. A. Evangelista, J. M. Turney, T. D. Crawford, C. D. Sherrill,
    J. Chem. Phys. 152(18) 184108 (2020). https://doi.org/10.1063/5.0006002

                            Additional Code Authors
    E. T. Seidl, C. L. Janssen, E. F. Valeev, M. L. Leininger,
    J. F. Gonthier, R. M. Richard, H. R. McAlexander, M. Saitow, X. Wang,
    P. Verma, and M. H. Lechner

             Previous Authors, Complete List of Code Contributors,
                       and Citations for Specific Modules
    https://github.com/psi4/psi4/blob/master/codemeta.json
    https://github.com/psi4/psi4/graphs/contributors
    http://psicode.org/psi4manual/master/introduction.html#citing-psifour

    -----------------------------------------------------------------------


    Psi4 started on: Monday, 25 January 2021 06:31PM

    Process ID: 238241
    Host:       ds5
    PSIDATADIR: /theoryfs2/ds/jiang/p4dev/psi4/objdir-dev/stage/share/psi4
    Memory:     500.0 MiB
    Threads:    1
    
  ==> Input File <==

--------------------------------------------------------------------------
#! MBIS calculation on NaCl
#Charges generated from e_convergence 9, d_convergence 8

charges_ref = psi4.Matrix.from_list([ #TEST
 [ 0.96523585],   #TEST
 [-0.96523183]])  #TEST

dipoles_ref = psi4.Matrix.from_list([ #TEST
 [-2.23411999e-14, -2.20439206e-15, -9.80619005e-03],   #TEST
 [-1.75989793e-14, -2.48615076e-14,  6.42357434e-01]])  #TEST

quadrupoles_ref = psi4.Matrix.from_list([ #TEST
 [-2.34992472e+00,  7.61625032e-15,  1.11488363e-14, -2.34992472e+00,
   1.52174839e-14, -2.28980795e+00],      #TEST
 [-1.18919799e+01, -8.95107296e-15,  4.38636176e-14, -1.18919799e+01,
  -1.25080726e-15, -1.20798224e+01]])     #TEST

octupoles_ref = psi4.Matrix.from_list([ #TEST
 [-7.08856182e-13,  9.00611501e-14, -2.55766638e-02, -8.21613343e-14,
   4.11929052e-15, -8.64722183e-14, -2.92947446e-15, -2.55766638e-02,
   2.96871792e-14, -5.92204894e-02],    #TEST
 [-1.02278453e-13, -3.95370047e-14,  2.25695766e+00, -2.19172973e-14,
   5.53616140e-14, -1.58857644e-13, -3.37545507e-13,  2.25695766e+00,
   5.64299708e-14,  4.56953404e+00]])   #TEST

# Reference Atomic Volumes From Horton
# Na 10.98578655626551
# Cl 93.71387402878563

avols_ref = psi4.Matrix.from_list([  #TEST
 [10.98566322],    #TEST
 [93.71382434]])   #TEST

# Reference Valence Widths From Horton
# Na 1.1345834723888377
# Cl 0.5682903211811192

vwidths_ref = psi4.Matrix.from_list([  #TEST
 [1.13464706],     #TEST
 [0.56829083]])    #TEST

molecule mol {
  0 1
  Na 0.00 0.00 0.00
  Cl 0.00 0.00 2.36
  symmetry c1
  no_reorient
  no_com
}

set {
  scf_type df
  d_convergence 8
  e_convergence 9
  mbis_radial_points 99
  mbis_spherical_points 350
  max_radial_moment 4
}

e, wfn = energy('hf/cc-pvdz', return_wfn=True)
oeprop(wfn, 'MBIS_CHARGES', title='NaCl SCF')

#NOTE: wfn.array_variable gives you flattened atomic multipole arrays; for expanded arrays, use wfn.variable
charges = wfn.array_variable('MBIS CHARGES')
dipoles = wfn.array_variable('MBIS DIPOLES')
quadrupoles = wfn.array_variable('MBIS QUADRUPOLES')
octupoles = wfn.array_variable('MBIS OCTUPOLES')
avols = wfn.array_variable('MBIS RADIAL MOMENTS <R^3>')
vwidths = wfn.array_variable('MBIS VALENCE WIDTHS')


compare_matrices(charges_ref, charges, 5, "MBIS Charges")             #TEST
compare_matrices(dipoles_ref, dipoles, 5, "MBIS Dipoles")             #TEST
compare_matrices(quadrupoles_ref, quadrupoles, 5, "MBIS Quadrupoles") #TEST
compare_matrices(octupoles_ref, octupoles, 5, "MBIS Octupoles")       #TEST
compare_matrices(avols_ref, avols, 5, "MBIS Radial Moments <r^3>")    #TEST
compare_matrices(vwidths_ref, vwidths, 5, "MBIS Valence Widths")      #TEST
--------------------------------------------------------------------------

Scratch directory: /scratch/jiang/

Scratch directory: /scratch/jiang/

*** tstart() called on ds5
*** at Mon Jan 25 18:31:53 2021

   => Loading Basis Set <=

    Name: CC-PVDZ
    Role: ORBITAL
    Keyword: BASIS
    atoms 1 entry NA         line   288 file /theoryfs2/ds/jiang/p4dev/psi4/objdir-dev/stage/share/psi4/basis/cc-pvdz.gbs 
    atoms 2 entry CL         line   658 file /theoryfs2/ds/jiang/p4dev/psi4/objdir-dev/stage/share/psi4/basis/cc-pvdz.gbs 


         ---------------------------------------------------------
                                   SCF
               by Justin Turney, Rob Parrish, Andy Simmonett
                          and Daniel G. A. Smith
                              RHF Reference
                        1 Threads,    500 MiB Core
         ---------------------------------------------------------

  ==> Geometry <==

    Molecular point group: c1
    Full point group: C_inf_v

    Geometry (in Angstrom), charge = 0, multiplicity = 1:

       Center              X                  Y                   Z               Mass       
    ------------   -----------------  -----------------  -----------------  -----------------
         NA           0.000000000000     0.000000000000     0.000000000000    22.989769282000
         CL           0.000000000000     0.000000000000     2.360000000000    34.968852682000

  Running in c1 symmetry.

  Rotational constants: A = ************  B =      0.08655  C =      0.08655 [cm^-1]
  Rotational constants: A = ************  B =   2594.84732  C =   2594.84732 [MHz]
  Nuclear repulsion =   41.930567116648305

  Charge       = 0
  Multiplicity = 1
  Electrons    = 28
  Nalpha       = 14
  Nbeta        = 14

  ==> Algorithm <==

  SCF Algorithm Type is DF.
  DIIS enabled.
  MOM disabled.
  Fractional occupation disabled.
  Guess Type is SAD.
  Energy threshold   = 1.00e-09
  Density threshold  = 1.00e-08
  Integral threshold = 1.00e-12

  ==> Primary Basis <==

  Basis Set: CC-PVDZ
    Blend: CC-PVDZ
    Number of shells: 16
    Number of basis function: 36
    Number of Cartesian functions: 38
    Spherical Harmonics?: true
    Max angular momentum: 2

   => Loading Basis Set <=

    Name: (CC-PVDZ AUX)
    Role: JKFIT
    Keyword: DF_BASIS_SCF
    atoms 1 entry NA         line   498 file /theoryfs2/ds/jiang/p4dev/psi4/objdir-dev/stage/share/psi4/basis/def2-universal-jkfit.gbs 
    atoms 2 entry CL         line   667 file /theoryfs2/ds/jiang/p4dev/psi4/objdir-dev/stage/share/psi4/basis/cc-pvdz-jkfit.gbs 

  ==> Integral Setup <==

  DFHelper Memory: AOs need 0.003 GiB; user supplied 0.366 GiB. Using in-core AOs.

  ==> MemDFJK: Density-Fitted J/K Matrices <==

    J tasked:                   Yes
    K tasked:                   Yes
    wK tasked:                   No
    OpenMP threads:               1
    Memory [MiB]:               375
    Algorithm:                 Core
    Schwarz Cutoff:           1E-12
    Mask sparsity (%):       0.0000
    Fitting Condition:        1E-10

   => Auxiliary Basis Set <=

  Basis Set: (CC-PVDZ AUX)
    Blend: CC-PVDZ-JKFIT + DEF2-UNIVERSAL-JKFIT
    Number of shells: 70
    Number of basis function: 224
    Number of Cartesian functions: 267
    Spherical Harmonics?: true
    Max angular momentum: 4

  Minimum eigenvalue in the overlap matrix is 1.0327031572E-02.
  Reciprocal condition number of the overlap matrix is 3.7657931940E-03.
    Using symmetric orthogonalization.

  ==> Pre-Iterations <==

  SCF Guess: Superposition of Atomic Densities via on-the-fly atomic UHF (no occupation information).

   -------------------------
    Irrep   Nso     Nmo    
   -------------------------
     A         36      36 
   -------------------------
    Total      36      36
   -------------------------

  ==> Iterations <==

                           Total Energy        Delta E     RMS |[F,P]|

   @DF-RHF iter SAD:  -620.94148883010166   -6.20941e+02   0.00000e+00 
   @DF-RHF iter   1:  -621.38771176641535   -4.46223e-01   6.97696e-03 DIIS
   @DF-RHF iter   2:  -621.42850815194822   -4.07964e-02   2.82756e-03 DIIS
   @DF-RHF iter   3:  -621.43354006965978   -5.03192e-03   2.04236e-04 DIIS
   @DF-RHF iter   4:  -621.43361675137930   -7.66817e-05   5.31379e-05 DIIS
   @DF-RHF iter   5:  -621.43362372643367   -6.97505e-06   9.60511e-06 DIIS
   @DF-RHF iter   6:  -621.43362400375372   -2.77320e-07   3.19411e-06 DIIS
   @DF-RHF iter   7:  -621.43362404931941   -4.55657e-08   5.24071e-07 DIIS
   @DF-RHF iter   8:  -621.43362405026141   -9.42009e-10   7.94199e-08 DIIS
   @DF-RHF iter   9:  -621.43362405027688   -1.54614e-11   1.13427e-08 DIIS
   @DF-RHF iter  10:  -621.43362405027779   -9.09495e-13   1.33383e-09 DIIS
  Energy and wave function converged.


  ==> Post-Iterations <==

    Orbital Energies [Eh]
    ---------------------

    Doubly Occupied:                                                      

       1A   -104.698637     2A    -40.505194     3A    -10.423282  
       4A     -7.889706     5A     -7.888905     6A     -7.888905  
       7A     -2.827009     8A     -1.549220     9A     -1.549210  
      10A     -1.549210    11A     -0.937466    12A     -0.364644  
      13A     -0.348287    14A     -0.348287  

    Virtual:                                                              

      15A     -0.016752    16A      0.035654    17A      0.035654  
      18A      0.067079    19A      0.111400    20A      0.146052  
      21A      0.146052    22A      0.204707    23A      0.244898  
      24A      0.244898    25A      0.290988    26A      0.290988  
      27A      0.378292    28A      0.925512    29A      0.925512  
      30A      0.933579    31A      1.094051    32A      1.111512  
      33A      1.111512    34A      1.152404    35A      1.152404  
      36A      1.376553  

    Final Occupation by Irrep:
              A 
    DOCC [    14 ]

  @DF-RHF Final Energy:  -621.43362405027779

   => Energetics <=

    Nuclear Repulsion Energy =             41.9305671166483052
    One-Electron Energy =                -949.1924605667109063
    Two-Electron Energy =                 285.8282693997848583
    Total Energy =                       -621.4336240502777855

Computation Completed


Properties will be evaluated at   0.000000,   0.000000,   0.000000 [a0]

Properties computed using the SCF density matrix

  Nuclear Dipole Moment: [e a0]
     X:     0.0000      Y:     0.0000      Z:    75.8158

  Electronic Dipole Moment: [e a0]
     X:    -0.0000      Y:    -0.0000      Z:   -79.4880

  Dipole Moment: [e a0]
     X:    -0.0000      Y:    -0.0000      Z:    -3.6722     Total:     3.6722

  Dipole Moment: [D]
     X:    -0.0000      Y:    -0.0000      Z:    -9.3337     Total:     9.3337


*** tstop() called on ds5 at Mon Jan 25 18:31:53 2021
Module time:
	user time   =       0.49 seconds =       0.01 minutes
	system time =       0.03 seconds =       0.00 minutes
	total time  =          0 seconds =       0.00 minutes
Total time:
	user time   =       0.49 seconds =       0.01 minutes
	system time =       0.03 seconds =       0.00 minutes
	total time  =          0 seconds =       0.00 minutes


Properties will be evaluated at   0.000000,   0.000000,   0.000000 [a0]

Properties computed using the NaCl SCF density matrix

  ==> Computing MBIS Charges <==

  Electron Count from Grid (Expected Number): 28.00000 (28.00000)
  Difference: -0.00000

  MBIS Charges: (a.u.)
   Center  Symbol  Z      Pop.       Charge
      1      NA   11   10.034764    0.965236
      2      CL   17   17.965232   -0.965232

  MBIS Dipoles: [e a0]
   Center  Symbol  Z        X           Y           Z
      1      NA   11   -0.000000   -0.000000   -0.009806
      2      CL   17   -0.000000   -0.000000    0.642357

  MBIS Quadrupoles: [e a0^2]
   Center  Symbol  Z      XX        XY        XZ        YY        YZ        ZZ
      1      NA   11   -2.3499    0.0000    0.0000   -2.3499    0.0000   -2.2898
      2      CL   17   -11.8920   -0.0000    0.0000   -11.8920    0.0000   -12.0798

  MBIS Octupoles: [e a0^3]
   Center  Symbol  Z      XXX       XXY       XXZ       XYY       XYZ       XZZ       YYY       YYZ       YZZ       ZZZ
      1      NA   11   -0.0000    0.0000   -0.0256   -0.0000    0.0000   -0.0000   -0.0000   -0.0256    0.0000   -0.0592
      2      CL   17   -0.0000   -0.0000    2.2570   -0.0000   -0.0000   -0.0000   -0.0000    2.2570   -0.0000    4.5695

  MBIS Radial Moments: [a0^2]
   Center  Symbol  Z     Rad Mo
      1      NA   11    6.989657
      2      CL   17   35.863782

  MBIS Radial Moments: [a0^3]
   Center  Symbol  Z     Rad Mo
      1      NA   11   10.985663
      2      CL   17   93.713824

  MBIS Radial Moments: [a0^4]
   Center  Symbol  Z     Rad Mo
      1      NA   11   33.141116
      2      CL   17   296.832754

  MBIS Valence Widths: [a0]
   Center  Symbol  Z     Width
      1      NA   11    1.134647
      2      CL   17    0.568291
    MBIS Charges..........................................................................PASSED
    MBIS Dipoles..........................................................................PASSED
    MBIS Quadrupoles......................................................................PASSED
    MBIS Octupoles........................................................................PASSED
    MBIS Radial Moments <r^3>.............................................................PASSED
    MBIS Valence Widths...................................................................PASSED

    Psi4 stopped on: Monday, 25 January 2021 06:31PM
    Psi4 wall time for execution: 0:00:03.80

*** Psi4 exiting successfully. Buy a developer a beer!
