
    -----------------------------------------------------------------------
          Psi4: An Open-Source Ab Initio Electronic Structure Package
                               Psi4 1.2rc2.dev50 

                         Git: Rev {nbody} a314cf2 dirty


    R. M. Parrish, L. A. Burns, D. G. A. Smith, A. C. Simmonett,
    A. E. DePrince III, E. G. Hohenstein, U. Bozkaya, A. Yu. Sokolov,
    R. Di Remigio, R. M. Richard, J. F. Gonthier, A. M. James,
    H. R. McAlexander, A. Kumar, M. Saitow, X. Wang, B. P. Pritchard,
    P. Verma, H. F. Schaefer III, K. Patkowski, R. A. King, E. F. Valeev,
    F. A. Evangelista, J. M. Turney, T. D. Crawford, and C. D. Sherrill,
    J. Chem. Theory Comput. 13(7) pp 3185--3197 (2017).
    (doi: 10.1021/acs.jctc.7b00174)

    -----------------------------------------------------------------------


    Psi4 started on: Thursday, 30 August 2018 04:56PM

    Process ID: 9487
    Host:       ds1.sherrill.chemistry.gatech.edu
    PSIDATADIR: /theoryfs2/ds/alenaizan/Gits/psi4/install/share/psi4
    Memory:     500.0 MiB
    Threads:    6
    
  ==> Input File <==

--------------------------------------------------------------------------
#! Multilevel computation of water trimer energy (geometry from J. Chem. Theory Comput. 11, 2126-2136 (2015))

molecule h2o_trimer {
O      -2.76373224  -1.24377706  -0.15444566 
H      -1.12357791  -2.06227970  -0.05243799 
H      -3.80792362  -2.08705525   1.06090407 
--
O       2.46924614  -1.75437739  -0.17092884 
H       3.76368260  -2.21425403   1.00846104 
H       2.30598330   0.07098445  -0.03942473 
--
O       0.29127930   3.00875625   0.20308515 
H      -1.21253048   1.95820900   0.10303324 
H       0.10002049   4.24958115  -1.10222079 
units bohr
}


set cc_type df

# Compute 1-body contribution with ccsd(t) and 2-body contribution with mp2
levels = {1: 'ccsd(t)/aug-cc-pvtz', 2: 'mp2/aug-cc-pvdz'}
e, wfn = energy('', molecule=h2o_trimer, bsse_type=['nocp', 'cp', 'vmfc'], return_total_data=True, return_wfn=True, levels=levels)
clean()
comparison_dict = {'nocp': -229.095333693240, 'cp': -229.090649507945, 'vmfc': -229.090542127602} #TEST
for b, v in comparison_dict.items():                                                              #TEST
    compare_values(v, wfn.get_variable('2'+b), 6, b + '-corrected multi-level energy')            #TEST

# Compute 1-body contribution with ccsd(t) and estimate all higher order contributions with scf
levels = {1: 'ccsd(t)/aug-cc-pvtz', 'supersystem': 'scf/cc-pvdz'}
e, wfn = energy('', molecule=h2o_trimer, bsse_type='nocp', return_total_data=True, return_wfn=True, levels=levels)
clean()
comparison_dict = {'1': -229.072352805163, '3': -229.100618464996}                                #TEST
for n, v in comparison_dict.items():                                                              #TEST  
    compare_values(v, wfn.get_variable(n+'nocp'), 6, 'Supersystem multi-level energy')            #TEST

# Compute electrostatically embedded  many-body expansion energy.with Mulliken charges
e, wfn = energy('mp2/aug-cc-pvdz', molecule=h2o_trimer, bsse_type='vmfc', return_total_data=True, return_wfn=True,
                max_nbody=2, charge_method='scf/6-31g', charge_type='MULLIKEN_CHARGES')
clean()
comparison_dict = {'1': -228.853984715330, '2': -228.877850309122}                                #TEST
for n, v in comparison_dict.items():                                                              #TEST
    compare_values(v, wfn.get_variable(n), 6, 'Electrostatically embedded many-body expansion')   #TEST

# Compute electrostatically embedded  many-body expansion energy.with TIP3P charges
tip3p_charges = [-0.834, 0.417, 0.417]
embedding_charges = {i: [j for j in tip3p_charges] for i in range(1, 4)}
e, wfn = energy('mp2/aug-cc-pvdz', molecule=h2o_trimer, bsse_type='vmfc', return_total_data=True, return_wfn=True,
                max_nbody=2, embedding_charges=embedding_charges)
clean()
comparison_dict = {'1': -228.857319084829, '2': -228.881454412752}                                #TEST
for n, v in comparison_dict.items():                                                              #TEST
    compare_values(v, wfn.get_variable(n), 6, 'Electrostatically embedded many-body expansion')   #TEST
--------------------------------------------------------------------------


   ===> N-Body Interaction Abacus <===
        BSSE Treatment:                     ['nocp', 'cp', 'vmfc']
        Number of 1-body computations:     12
        Number of 2-body computations:     6

   ==> N-Body: Now computing 1-body complexes <==


       N-Body: Computing complex (1/12) with fragments (3,) in the basis of fragments (1, 2, 3).

    SCF Algorithm Type (re)set to DF.

*** tstart() called on ds1.sherrill.chemistry.gatech.edu
*** at Thu Aug 30 16:56:10 2018

   => Loading Basis Set <=

    Name: AUG-CC-PVDZ
    Role: ORBITAL
    Keyword: BASIS
    atoms 1, 4, 7       entry O          line   250 file /theoryfs2/ds/alenaizan/Gits/psi4/install/share/psi4/basis/aug-cc-pvdz.gbs 
    atoms 2-3, 5-6, 8-9 entry H          line    36 file /theoryfs2/ds/alenaizan/Gits/psi4/install/share/psi4/basis/aug-cc-pvdz.gbs 

    There are an even number of electrons - assuming singlet.
    Specify the multiplicity in the molecule input block.


         ---------------------------------------------------------
                                   SCF
            by Justin Turney, Rob Parrish, Andy Simmonett
                             and Daniel Smith
                              RHF Reference
                        6 Threads,    500 MiB Core
         ---------------------------------------------------------

  ==> Geometry <==

    Molecular point group: c1
    Full point group: C1

    Geometry (in Bohr), charge = 0, multiplicity = 1:

       Center              X                  Y                   Z               Mass       
    ------------   -----------------  -----------------  -----------------  -----------------
           O(Gh)     -2.763261453986    -1.245333495201    -0.136492539259    15.994914619560
           H(Gh)     -1.123107123986    -2.063836135201    -0.034484869259     1.007825032070
           H(Gh)     -3.807452833986    -2.088611685201     1.078857190741     1.007825032070
           O(Gh)      2.469716926014    -1.755933825201    -0.152975719259    15.994914619560
           H(Gh)      3.764153386014    -2.215810465201     1.026414160741     1.007825032070
           H(Gh)      2.306454086014     0.069428014799    -0.021471609259     1.007825032070
           O          0.291750086014     3.007199814799     0.221038270741    15.994914619560
           H         -1.212059693986     1.956652564799     0.120986360741     1.007825032070
           H          0.100491276014     4.248024714799    -1.084267669259     1.007825032070

  Running in c1 symmetry.

  Rotational constants: A =      0.23213  B =      0.22920  C =      0.11739 [cm^-1]
  Rotational constants: A =   6958.95982  B =   6871.15159  C =   3519.17461 [MHz]
  Nuclear repulsion =    9.116312738955250

  Charge       = 0
  Multiplicity = 1
  Electrons    = 10
  Nalpha       = 5
  Nbeta        = 5

  ==> Algorithm <==

  SCF Algorithm Type is DF.
  DIIS enabled.
  MOM disabled.
  Fractional occupation disabled.
  Guess Type is SAD.
  Energy threshold   = 1.00e-08
  Density threshold  = 1.00e-08
  Integral threshold = 0.00e+00

  ==> Primary Basis <==

  Basis Set: AUG-CC-PVDZ
    Blend: AUG-CC-PVDZ
    Number of shells: 57
    Number of basis function: 123
    Number of Cartesian functions: 129
    Spherical Harmonics?: true
    Max angular momentum: 2

   => Loading Basis Set <=

    Name: (AUG-CC-PVDZ AUX)
    Role: JKFIT
    Keyword: DF_BASIS_SCF
    atoms 1, 4, 7       entry O          line   270 file /theoryfs2/ds/alenaizan/Gits/psi4/install/share/psi4/basis/aug-cc-pvdz-jkfit.gbs 
    atoms 2-3, 5-6, 8-9 entry H          line    70 file /theoryfs2/ds/alenaizan/Gits/psi4/install/share/psi4/basis/aug-cc-pvdz-jkfit.gbs 

  ==> Pre-Iterations <==

   -------------------------------------------------------
    Irrep   Nso     Nmo     Nalpha   Nbeta   Ndocc  Nsocc
   -------------------------------------------------------
     A        123     123       0       0       0       0
   -------------------------------------------------------
    Total     123     123       5       5       5       0
   -------------------------------------------------------

  ==> Integral Setup <==

  ==> MemDFJK: Density-Fitted J/K Matrices <==

    J tasked:                   Yes
    K tasked:                   Yes
    wK tasked:                   No
    OpenMP threads:               6
    Memory (MB):                375
    Algorithm:                 Core
    Schwarz Cutoff:           1E-12
    Mask sparsity (%):       0.0000
    Fitting Condition:        1E-12

   => Auxiliary Basis Set <=

  Basis Set: (AUG-CC-PVDZ AUX)
    Blend: AUG-CC-PVDZ-JKFIT
    Number of shells: 156
    Number of basis function: 450
    Number of Cartesian functions: 513
    Spherical Harmonics?: true
    Max angular momentum: 3

  Minimum eigenvalue in the overlap matrix is 1.3108249075E-03.
  Using Symmetric Orthogonalization.

  SCF Guess: Superposition of Atomic Densities via on-the-fly atomic UHF.

  ==> Iterations <==

                           Total Energy        Delta E     RMS |[F,P]|

   @DF-RHF iter   0:   -76.03393159900808   -7.60339e+01   3.33532e-02 
   @DF-RHF iter   1:   -75.99964796637281    3.42836e-02   5.86795e-03 
   @DF-RHF iter   2:   -76.03023034201634   -3.05824e-02   3.23094e-03 DIIS
   @DF-RHF iter   3:   -76.04023964095342   -1.00093e-02   6.14389e-04 DIIS
   @DF-RHF iter   4:   -76.04105673115585   -8.17090e-04   1.75846e-04 DIIS
   @DF-RHF iter   5:   -76.04117890174992   -1.22171e-04   4.22564e-05 DIIS
   @DF-RHF iter   6:   -76.04118687526697   -7.97352e-06   7.51857e-06 DIIS
   @DF-RHF iter   7:   -76.04118710050386   -2.25237e-07   1.38568e-06 DIIS
   @DF-RHF iter   8:   -76.04118710844979   -7.94593e-09   2.37896e-07 DIIS
   @DF-RHF iter   9:   -76.04118710865318   -2.03386e-10   4.32562e-08 DIIS
   @DF-RHF iter  10:   -76.04118710865782   -4.64695e-12   7.20823e-09 DIIS

  ==> Post-Iterations <==

    Orbital Energies [Eh]
    ---------------------

    Doubly Occupied:                                                      

       1A    -20.578313     2A     -1.351740     3A     -0.716448  
       4A     -0.582002     5A     -0.508365  

    Virtual:                                                              

       6A      0.026421     7A      0.049310     8A      0.053328  
       9A      0.070942    10A      0.082468    11A      0.090464  
      12A      0.138401    13A      0.149358    14A      0.169390  
      15A      0.186899    16A      0.191586    17A      0.209290  
      18A      0.223008    19A      0.228163    20A      0.242389  
      21A      0.264456    22A      0.274740    23A      0.302476  
      24A      0.344199    25A      0.364962    26A      0.387554  
      27A      0.411277    28A      0.421724    29A      0.450807  
      30A      0.462012    31A      0.475149    32A      0.476093  
      33A      0.492615    34A      0.506936    35A      0.512562  
      36A      0.521736    37A      0.539199    38A      0.555039  
      39A      0.596538    40A      0.619785    41A      0.632358  
      42A      0.646064    43A      0.678439    44A      0.688197  
      45A      0.693070    46A      0.776480    47A      0.792069  
      48A      0.858050    49A      0.941183    50A      1.001161  
      51A      1.023987    52A      1.105637    53A      1.125621  
      54A      1.145436    55A      1.161970    56A      1.186126  
      57A      1.200414    58A      1.225662    59A      1.254548  
      60A      1.261060    61A      1.302484    62A      1.337754  
      63A      1.358812    64A      1.385193    65A      1.403802  
      66A      1.417528    67A      1.438692    68A      1.464728  
      69A      1.500854    70A      1.554774    71A      1.590684  
      72A      1.615842    73A      1.688066    74A      1.831873  
      75A      2.028223    76A      2.110895    77A      2.182467  
      78A      2.218286    79A      2.255121    80A      2.322371  
      81A      2.360130    82A      2.403005    83A      2.474446  
      84A      2.489562    85A      2.533738    86A      2.540817  
      87A      2.576489    88A      2.663942    89A      2.727604  
      90A      2.771662    91A      2.810466    92A      2.888439  
      93A      2.969541    94A      3.090987    95A      3.497536  
      96A      3.618449    97A      3.735060    98A      3.783189  
      99A      3.838602   100A      3.940246   101A      4.024601  
     102A      4.088314   103A      4.100903   104A      4.176940  
     105A      4.382499   106A      4.953707   107A      4.983477  
     108A      5.001930   109A      5.029781   110A      5.052239  
     111A      5.092825   112A      5.218566   113A      5.275959  
     114A      5.455303   115A      5.527822   116A      5.868724  
     117A      6.009780   118A      6.591850   119A      6.715900  
     120A      7.088682   121A      7.109547   122A     33.544027  
     123A     33.594206  

    Final Occupation by Irrep:
              A 
    DOCC [     5 ]

  Energy converged.

  @DF-RHF Final Energy:   -76.04118710865782

   => Energetics <=

    Nuclear Repulsion Energy =              9.1163127389552496
    One-Electron Energy =                -122.8412652369337650
    Two-Electron Energy =                  37.6837653893206976
    Total Energy =                        -76.0411871086578230



Properties will be evaluated at   0.000000,   0.000000,   0.000000 [a0]

Properties computed using the SCF density matrix

  Nuclear Dipole Moment: [e a0]
     X:     1.2224      Y:    30.2623      Z:     0.8050

  Electronic Dipole Moment: [e a0]
     X:    -1.8194      Y:   -30.1951      Z:    -1.3026

  Dipole Moment: [e a0]
     X:    -0.5970      Y:     0.0672      Z:    -0.4976     Total:     0.7800

  Dipole Moment: [D]
     X:    -1.5173      Y:     0.1707      Z:    -1.2647     Total:     1.9827


*** tstop() called on ds1.sherrill.chemistry.gatech.edu at Thu Aug 30 16:56:11 2018
Module time:
	user time   =       4.92 seconds =       0.08 minutes
	system time =       0.14 seconds =       0.00 minutes
	total time  =          1 seconds =       0.02 minutes
Total time:
	user time   =       4.92 seconds =       0.08 minutes
	system time =       0.14 seconds =       0.00 minutes
	total time  =          1 seconds =       0.02 minutes

*** tstart() called on ds1.sherrill.chemistry.gatech.edu
*** at Thu Aug 30 16:56:11 2018


  //>>>>>>>>>>>>>>>>>>>>>>>>>>>>>>>>>>>//
  //               DFMP2               //
  //<<<<<<<<<<<<<<<<<<<<<<<<<<<<<<<<<<<//

   => Loading Basis Set <=

    Name: (AUG-CC-PVDZ AUX)
    Role: RIFIT
    Keyword: DF_BASIS_MP2
    atoms 1, 4, 7       entry O          line   204 file /theoryfs2/ds/alenaizan/Gits/psi4/install/share/psi4/basis/aug-cc-pvdz-ri.gbs 
    atoms 2-3, 5-6, 8-9 entry H          line    30 file /theoryfs2/ds/alenaizan/Gits/psi4/install/share/psi4/basis/aug-cc-pvdz-ri.gbs 

	 --------------------------------------------------------
	                          DF-MP2                         
	      2nd-Order Density-Fitted Moller-Plesset Theory     
	              RMP2 Wavefunction,   6 Threads             
	                                                         
	        Rob Parrish, Justin Turney, Andy Simmonett,      
	           Ed Hohenstein, and C. David Sherrill          
	 --------------------------------------------------------

   => Auxiliary Basis Set <=

  Basis Set: (AUG-CC-PVDZ AUX)
    Blend: AUG-CC-PVDZ-RI
    Number of shells: 120
    Number of basis function: 354
    Number of Cartesian functions: 408
    Spherical Harmonics?: true
    Max angular momentum: 3

	 --------------------------------------------------------
	                 NBF =   123, NAUX =   354
	 --------------------------------------------------------
	   CLASS    FOCC     OCC    AOCC    AVIR     VIR    FVIR
	   PAIRS       0       5       5     118     118       0
	 --------------------------------------------------------

	-----------------------------------------------------------
	 ==================> DF-MP2 Energies <==================== 
	-----------------------------------------------------------
	 Reference Energy          =     -76.0411871086578230 [Eh]
	 Singles Energy            =      -0.0000000000000117 [Eh]
	 Same-Spin Energy          =      -0.0570624649633769 [Eh]
	 Opposite-Spin Energy      =      -0.1664277914798948 [Eh]
	 Correlation Energy        =      -0.2234902564432834 [Eh]
	 Total Energy              =     -76.2646773651011074 [Eh]
	-----------------------------------------------------------
	 ================> DF-SCS-MP2 Energies <================== 
	-----------------------------------------------------------
	 SCS Same-Spin Scale       =       0.3333333333333333 [-]
	 SCS Opposite-Spin Scale   =       1.2000000000000000 [-]
	 SCS Same-Spin Energy      =      -0.0190208216544590 [Eh]
	 SCS Opposite-Spin Energy  =      -0.1997133497758737 [Eh]
	 SCS Correlation Energy    =      -0.2187341714303444 [Eh]
	 SCS Total Energy          =     -76.2599212800881645 [Eh]
	-----------------------------------------------------------


*** tstop() called on ds1.sherrill.chemistry.gatech.edu at Thu Aug 30 16:56:12 2018
Module time:
	user time   =       1.77 seconds =       0.03 minutes
	system time =       0.05 seconds =       0.00 minutes
	total time  =          1 seconds =       0.02 minutes
Total time:
	user time   =       6.70 seconds =       0.11 minutes
	system time =       0.19 seconds =       0.00 minutes
	total time  =          2 seconds =       0.03 minutes

       N-Body: Complex Energy (fragments = (3,), basis = (1, 2, 3):   -76.26467736510111)

       N-Body: Computing complex (2/12) with fragments (2,) in the basis of fragments (1, 2).

    SCF Algorithm Type (re)set to DF.

*** tstart() called on ds1.sherrill.chemistry.gatech.edu
*** at Thu Aug 30 16:56:12 2018

   => Loading Basis Set <=

    Name: AUG-CC-PVDZ
    Role: ORBITAL
    Keyword: BASIS
    atoms 1, 4     entry O          line   250 file /theoryfs2/ds/alenaizan/Gits/psi4/install/share/psi4/basis/aug-cc-pvdz.gbs 
    atoms 2-3, 5-6 entry H          line    36 file /theoryfs2/ds/alenaizan/Gits/psi4/install/share/psi4/basis/aug-cc-pvdz.gbs 

    There are an even number of electrons - assuming singlet.
    Specify the multiplicity in the molecule input block.


         ---------------------------------------------------------
                                   SCF
            by Justin Turney, Rob Parrish, Andy Simmonett
                             and Daniel Smith
                              RHF Reference
                        6 Threads,    500 MiB Core
         ---------------------------------------------------------

  ==> Geometry <==

    Molecular point group: c1
    Full point group: C1

    Geometry (in Bohr), charge = 0, multiplicity = 1:

       Center              X                  Y                   Z               Mass       
    ------------   -----------------  -----------------  -----------------  -----------------
           O(Gh)     -2.763261453986    -1.245333495201    -0.136492539259    15.994914619560
           H(Gh)     -1.123107123986    -2.063836135201    -0.034484869259     1.007825032070
           H(Gh)     -3.807452833986    -2.088611685201     1.078857190741     1.007825032070
           O          2.469716926014    -1.755933825201    -0.152975719259    15.994914619560
           H          3.764153386014    -2.215810465201     1.026414160741     1.007825032070
           H          2.306454086014     0.069428014799    -0.021471609259     1.007825032070

  Running in c1 symmetry.

  Rotational constants: A =      0.67048  B =      0.23249  C =      0.17548 [cm^-1]
  Rotational constants: A =  20100.34686  B =   6969.84238  C =   5260.79778 [MHz]
  Nuclear repulsion =    9.116778471315827

  Charge       = 0
  Multiplicity = 1
  Electrons    = 10
  Nalpha       = 5
  Nbeta        = 5

  ==> Algorithm <==

  SCF Algorithm Type is DF.
  DIIS enabled.
  MOM disabled.
  Fractional occupation disabled.
  Guess Type is SAD.
  Energy threshold   = 1.00e-08
  Density threshold  = 1.00e-08
  Integral threshold = 0.00e+00

  ==> Primary Basis <==

  Basis Set: AUG-CC-PVDZ
    Blend: AUG-CC-PVDZ
    Number of shells: 38
    Number of basis function: 82
    Number of Cartesian functions: 86
    Spherical Harmonics?: true
    Max angular momentum: 2

   => Loading Basis Set <=

    Name: (AUG-CC-PVDZ AUX)
    Role: JKFIT
    Keyword: DF_BASIS_SCF
    atoms 1, 4     entry O          line   270 file /theoryfs2/ds/alenaizan/Gits/psi4/install/share/psi4/basis/aug-cc-pvdz-jkfit.gbs 
    atoms 2-3, 5-6 entry H          line    70 file /theoryfs2/ds/alenaizan/Gits/psi4/install/share/psi4/basis/aug-cc-pvdz-jkfit.gbs 

  ==> Pre-Iterations <==

   -------------------------------------------------------
    Irrep   Nso     Nmo     Nalpha   Nbeta   Ndocc  Nsocc
   -------------------------------------------------------
     A         82      82       0       0       0       0
   -------------------------------------------------------
    Total      82      82       5       5       5       0
   -------------------------------------------------------

  ==> Integral Setup <==

  ==> MemDFJK: Density-Fitted J/K Matrices <==

    J tasked:                   Yes
    K tasked:                   Yes
    wK tasked:                   No
    OpenMP threads:               6
    Memory (MB):                375
    Algorithm:                 Core
    Schwarz Cutoff:           1E-12
    Mask sparsity (%):       0.0000
    Fitting Condition:        1E-12

   => Auxiliary Basis Set <=

  Basis Set: (AUG-CC-PVDZ AUX)
    Blend: AUG-CC-PVDZ-JKFIT
    Number of shells: 104
    Number of basis function: 300
    Number of Cartesian functions: 342
    Spherical Harmonics?: true
    Max angular momentum: 3

  Minimum eigenvalue in the overlap matrix is 1.7185328329E-03.
  Using Symmetric Orthogonalization.

  SCF Guess: Superposition of Atomic Densities via on-the-fly atomic UHF.

  ==> Iterations <==

                           Total Energy        Delta E     RMS |[F,P]|

   @DF-RHF iter   0:   -75.93260320598833   -7.59326e+01   4.94442e-02 
   @DF-RHF iter   1:   -76.01285995275668   -8.02567e-02   7.44430e-03 
   @DF-RHF iter   2:   -76.03352964703011   -2.06697e-02   4.09065e-03 DIIS
   @DF-RHF iter   3:   -76.04054527765460   -7.01563e-03   6.99970e-04 DIIS
   @DF-RHF iter   4:   -76.04100509961106   -4.59822e-04   2.12791e-04 DIIS
   @DF-RHF iter   5:   -76.04108779872378   -8.26991e-05   5.87835e-05 DIIS
   @DF-RHF iter   6:   -76.04109486817569   -7.06945e-06   8.85474e-06 DIIS
   @DF-RHF iter   7:   -76.04109500712302   -1.38947e-07   1.34022e-06 DIIS
   @DF-RHF iter   8:   -76.04109501018161   -3.05859e-09   2.98453e-07 DIIS
   @DF-RHF iter   9:   -76.04109501033444   -1.52838e-10   8.15240e-08 DIIS
   @DF-RHF iter  10:   -76.04109501034554   -1.10987e-11   1.52954e-08 DIIS
   @DF-RHF iter  11:   -76.04109501034603   -4.83169e-13   3.60358e-09 DIIS

  ==> Post-Iterations <==

    Orbital Energies [Eh]
    ---------------------

    Doubly Occupied:                                                      

       1A    -20.578208     2A     -1.351711     3A     -0.716905  
       4A     -0.581726     5A     -0.508326  

    Virtual:                                                              

       6A      0.031378     7A      0.052239     8A      0.059414  
       9A      0.085960    10A      0.157516    11A      0.163062  
      12A      0.181306    13A      0.195304    14A      0.209453  
      15A      0.228700    16A      0.250707    17A      0.277320  
      18A      0.312350    19A      0.343543    20A      0.392092  
      21A      0.414419    22A      0.428767    23A      0.455729  
      24A      0.462882    25A      0.481206    26A      0.509283  
      27A      0.540178    28A      0.563968    29A      0.590794  
      30A      0.615167    31A      0.669616    32A      0.673605  
      33A      0.775905    34A      0.839531    35A      0.922245  
      36A      0.943580    37A      0.966181    38A      1.113186  
      39A      1.160213    40A      1.176136    41A      1.202230  
      42A      1.241098    43A      1.283716    44A      1.322837  
      45A      1.364323    46A      1.376189    47A      1.441243  
      48A      1.489681    49A      1.558057    50A      1.603030  
      51A      1.815267    52A      2.008407    53A      2.099943  
      54A      2.145336    55A      2.190079    56A      2.322117  
      57A      2.368735    58A      2.444756    59A      2.466729  
      60A      2.557277    61A      2.626049    62A      2.699868  
      63A      2.772850    64A      2.858367    65A      3.044932  
      66A      3.476923    67A      3.708118    68A      3.740201  
      69A      3.831325    70A      3.958445    71A      4.053962  
      72A      4.063870    73A      4.351303    74A      4.914939  
      75A      4.943543    76A      5.010922    77A      5.202117  
      78A      5.472708    79A      5.693287    80A      6.614048  
      81A      7.095002    82A     33.576411  

    Final Occupation by Irrep:
              A 
    DOCC [     5 ]

  Energy converged.

  @DF-RHF Final Energy:   -76.04109501034603

   => Energetics <=

    Nuclear Repulsion Energy =              9.1167784713158273
    One-Electron Energy =                -122.8419955441484603
    Two-Electron Energy =                  37.6841220624866082
    Total Energy =                        -76.0410950103460266



Properties will be evaluated at   0.000000,   0.000000,   0.000000 [a0]

Properties computed using the SCF density matrix

  Nuclear Dipole Moment: [e a0]
     X:    25.8283      Y:   -16.1939      Z:    -0.2189

  Electronic Dipole Moment: [e a0]
     X:   -25.4287      Y:    16.6747      Z:     0.6825

  Dipole Moment: [e a0]
     X:     0.3997      Y:     0.4808      Z:     0.4636     Total:     0.7784

  Dipole Moment: [D]
     X:     1.0158      Y:     1.2221      Z:     1.1784     Total:     1.9784


*** tstop() called on ds1.sherrill.chemistry.gatech.edu at Thu Aug 30 16:56:13 2018
Module time:
	user time   =       4.57 seconds =       0.08 minutes
	system time =       0.12 seconds =       0.00 minutes
	total time  =          1 seconds =       0.02 minutes
Total time:
	user time   =      11.30 seconds =       0.19 minutes
	system time =       0.31 seconds =       0.01 minutes
	total time  =          3 seconds =       0.05 minutes

*** tstart() called on ds1.sherrill.chemistry.gatech.edu
*** at Thu Aug 30 16:56:13 2018


  //>>>>>>>>>>>>>>>>>>>>>>>>>>>>>>>>>>>//
  //               DFMP2               //
  //<<<<<<<<<<<<<<<<<<<<<<<<<<<<<<<<<<<//

   => Loading Basis Set <=

    Name: (AUG-CC-PVDZ AUX)
    Role: RIFIT
    Keyword: DF_BASIS_MP2
    atoms 1, 4     entry O          line   204 file /theoryfs2/ds/alenaizan/Gits/psi4/install/share/psi4/basis/aug-cc-pvdz-ri.gbs 
    atoms 2-3, 5-6 entry H          line    30 file /theoryfs2/ds/alenaizan/Gits/psi4/install/share/psi4/basis/aug-cc-pvdz-ri.gbs 

	 --------------------------------------------------------
	                          DF-MP2                         
	      2nd-Order Density-Fitted Moller-Plesset Theory     
	              RMP2 Wavefunction,   6 Threads             
	                                                         
	        Rob Parrish, Justin Turney, Andy Simmonett,      
	           Ed Hohenstein, and C. David Sherrill          
	 --------------------------------------------------------

   => Auxiliary Basis Set <=

  Basis Set: (AUG-CC-PVDZ AUX)
    Blend: AUG-CC-PVDZ-RI
    Number of shells: 80
    Number of basis function: 236
    Number of Cartesian functions: 272
    Spherical Harmonics?: true
    Max angular momentum: 3

	 --------------------------------------------------------
	                 NBF =    82, NAUX =   236
	 --------------------------------------------------------
	   CLASS    FOCC     OCC    AOCC    AVIR     VIR    FVIR
	   PAIRS       0       5       5      77      77       0
	 --------------------------------------------------------

	-----------------------------------------------------------
	 ==================> DF-MP2 Energies <==================== 
	-----------------------------------------------------------
	 Reference Energy          =     -76.0410950103460266 [Eh]
	 Singles Energy            =      -0.0000000000000044 [Eh]
	 Same-Spin Energy          =      -0.0569918562069035 [Eh]
	 Opposite-Spin Energy      =      -0.1661437945340362 [Eh]
	 Correlation Energy        =      -0.2231356507409441 [Eh]
	 Total Energy              =     -76.2642306610869696 [Eh]
	-----------------------------------------------------------
	 ================> DF-SCS-MP2 Energies <================== 
	-----------------------------------------------------------
	 SCS Same-Spin Scale       =       0.3333333333333333 [-]
	 SCS Opposite-Spin Scale   =       1.2000000000000000 [-]
	 SCS Same-Spin Energy      =      -0.0189972854023012 [Eh]
	 SCS Opposite-Spin Energy  =      -0.1993725534408434 [Eh]
	 SCS Correlation Energy    =      -0.2183698388431490 [Eh]
	 SCS Total Energy          =     -76.2594648491891718 [Eh]
	-----------------------------------------------------------


*** tstop() called on ds1.sherrill.chemistry.gatech.edu at Thu Aug 30 16:56:13 2018
Module time:
	user time   =       1.29 seconds =       0.02 minutes
	system time =       0.04 seconds =       0.00 minutes
	total time  =          0 seconds =       0.00 minutes
Total time:
	user time   =      12.59 seconds =       0.21 minutes
	system time =       0.35 seconds =       0.01 minutes
	total time  =          3 seconds =       0.05 minutes

       N-Body: Complex Energy (fragments = (2,), basis = (1, 2):   -76.26423066108697)

       N-Body: Computing complex (3/12) with fragments (3,) in the basis of fragments (2, 3).

    SCF Algorithm Type (re)set to DF.

*** tstart() called on ds1.sherrill.chemistry.gatech.edu
*** at Thu Aug 30 16:56:13 2018

   => Loading Basis Set <=

    Name: AUG-CC-PVDZ
    Role: ORBITAL
    Keyword: BASIS
    atoms 1, 4     entry O          line   250 file /theoryfs2/ds/alenaizan/Gits/psi4/install/share/psi4/basis/aug-cc-pvdz.gbs 
    atoms 2-3, 5-6 entry H          line    36 file /theoryfs2/ds/alenaizan/Gits/psi4/install/share/psi4/basis/aug-cc-pvdz.gbs 

    There are an even number of electrons - assuming singlet.
    Specify the multiplicity in the molecule input block.


         ---------------------------------------------------------
                                   SCF
            by Justin Turney, Rob Parrish, Andy Simmonett
                             and Daniel Smith
                              RHF Reference
                        6 Threads,    500 MiB Core
         ---------------------------------------------------------

  ==> Geometry <==

    Molecular point group: c1
    Full point group: C1

    Geometry (in Bohr), charge = 0, multiplicity = 1:

       Center              X                  Y                   Z               Mass       
    ------------   -----------------  -----------------  -----------------  -----------------
           O(Gh)      2.469716926014    -1.755933825201    -0.152975719259    15.994914619560
           H(Gh)      3.764153386014    -2.215810465201     1.026414160741     1.007825032070
           H(Gh)      2.306454086014     0.069428014799    -0.021471609259     1.007825032070
           O          0.291750086014     3.007199814799     0.221038270741    15.994914619560
           H         -1.212059693986     1.956652564799     0.120986360741     1.007825032070
           H          0.100491276014     4.248024714799    -1.084267669259     1.007825032070

  Running in c1 symmetry.

  Rotational constants: A =      0.66182  B =      0.23463  C =      0.17636 [cm^-1]
  Rotational constants: A =  19840.76255  B =   7034.17541  C =   5287.25055 [MHz]
  Nuclear repulsion =    9.116312738955250

  Charge       = 0
  Multiplicity = 1
  Electrons    = 10
  Nalpha       = 5
  Nbeta        = 5

  ==> Algorithm <==

  SCF Algorithm Type is DF.
  DIIS enabled.
  MOM disabled.
  Fractional occupation disabled.
  Guess Type is SAD.
  Energy threshold   = 1.00e-08
  Density threshold  = 1.00e-08
  Integral threshold = 0.00e+00

  ==> Primary Basis <==

  Basis Set: AUG-CC-PVDZ
    Blend: AUG-CC-PVDZ
    Number of shells: 38
    Number of basis function: 82
    Number of Cartesian functions: 86
    Spherical Harmonics?: true
    Max angular momentum: 2

   => Loading Basis Set <=

    Name: (AUG-CC-PVDZ AUX)
    Role: JKFIT
    Keyword: DF_BASIS_SCF
    atoms 1, 4     entry O          line   270 file /theoryfs2/ds/alenaizan/Gits/psi4/install/share/psi4/basis/aug-cc-pvdz-jkfit.gbs 
    atoms 2-3, 5-6 entry H          line    70 file /theoryfs2/ds/alenaizan/Gits/psi4/install/share/psi4/basis/aug-cc-pvdz-jkfit.gbs 

  ==> Pre-Iterations <==

   -------------------------------------------------------
    Irrep   Nso     Nmo     Nalpha   Nbeta   Ndocc  Nsocc
   -------------------------------------------------------
     A         82      82       0       0       0       0
   -------------------------------------------------------
    Total      82      82       5       5       5       0
   -------------------------------------------------------

  ==> Integral Setup <==

  ==> MemDFJK: Density-Fitted J/K Matrices <==

    J tasked:                   Yes
    K tasked:                   Yes
    wK tasked:                   No
    OpenMP threads:               6
    Memory (MB):                375
    Algorithm:                 Core
    Schwarz Cutoff:           1E-12
    Mask sparsity (%):       0.0000
    Fitting Condition:        1E-12

   => Auxiliary Basis Set <=

  Basis Set: (AUG-CC-PVDZ AUX)
    Blend: AUG-CC-PVDZ-JKFIT
    Number of shells: 104
    Number of basis function: 300
    Number of Cartesian functions: 342
    Spherical Harmonics?: true
    Max angular momentum: 3

  Minimum eigenvalue in the overlap matrix is 1.6688955244E-03.
  Using Symmetric Orthogonalization.

  SCF Guess: Superposition of Atomic Densities via on-the-fly atomic UHF.

  ==> Iterations <==

                           Total Energy        Delta E     RMS |[F,P]|

   @DF-RHF iter   0:   -76.03393173869134   -7.60339e+01   5.00233e-02 
   @DF-RHF iter   1:   -75.99957202829899    3.43597e-02   8.79919e-03 
   @DF-RHF iter   2:   -76.03014896787190   -3.05769e-02   4.84122e-03 DIIS
   @DF-RHF iter   3:   -76.04015600236190   -1.00070e-02   9.22003e-04 DIIS
   @DF-RHF iter   4:   -76.04097369098770   -8.17689e-04   2.69850e-04 DIIS
   @DF-RHF iter   5:   -76.04109574526925   -1.22054e-04   6.56530e-05 DIIS
   @DF-RHF iter   6:   -76.04110369198388   -7.94671e-06   1.16952e-05 DIIS
   @DF-RHF iter   7:   -76.04110391683712   -2.24853e-07   2.07459e-06 DIIS
   @DF-RHF iter   8:   -76.04110392474965   -7.91253e-09   3.69147e-07 DIIS
   @DF-RHF iter   9:   -76.04110392495156   -2.01908e-10   6.72295e-08 DIIS
   @DF-RHF iter  10:   -76.04110392495646   -4.90274e-12   1.08083e-08 DIIS
   @DF-RHF iter  11:   -76.04110392495666   -1.98952e-13   2.96108e-09 DIIS

  ==> Post-Iterations <==

    Orbital Energies [Eh]
    ---------------------

    Doubly Occupied:                                                      

       1A    -20.578344     2A     -1.351770     3A     -0.716459  
       4A     -0.582049     5A     -0.508410  

    Virtual:                                                              

       6A      0.032003     7A      0.052537     8A      0.059708  
       9A      0.087158    10A      0.147613    11A      0.169704  
      12A      0.176905    13A      0.191271    14A      0.217842  
      15A      0.231082    16A      0.247681    17A      0.280845  
      18A      0.304328    19A      0.341720    20A      0.386838  
      21A      0.403452    22A      0.434724    23A      0.462299  
      24A      0.464771    25A      0.488602    26A      0.518820  
      27A      0.537753    28A      0.544728    29A      0.592929  
      30A      0.652944    31A      0.660872    32A      0.672899  
      33A      0.774819    34A      0.839542    35A      0.915353  
      36A      0.944137    37A      0.981216    38A      1.122147  
      39A      1.150443    40A      1.176821    41A      1.196813  
      42A      1.232938    43A      1.287082    44A      1.328866  
      45A      1.368494    46A      1.392374    47A      1.432360  
      48A      1.503646    49A      1.533367    50A      1.602860  
      51A      1.795323    52A      2.004042    53A      2.114498  
      54A      2.167883    55A      2.202025    56A      2.329766  
      57A      2.373392    58A      2.435901    59A      2.475132  
      60A      2.546987    61A      2.623950    62A      2.722625  
      63A      2.756258    64A      2.868620    65A      3.059673  
      66A      3.476294    67A      3.708035    68A      3.745844  
      69A      3.821448    70A      3.961463    71A      4.042182  
      72A      4.088782    73A      4.340401    74A      4.914692  
      75A      4.941879    76A      5.011273    77A      5.209494  
      78A      5.474084    79A      5.700983    80A      6.620594  
      81A      7.098084    82A     33.576448  

    Final Occupation by Irrep:
              A 
    DOCC [     5 ]

  Energy converged.

  @DF-RHF Final Energy:   -76.04110392495666

   => Energetics <=

    Nuclear Repulsion Energy =              9.1163127389552496
    One-Electron Energy =                -122.8407679999826740
    Two-Electron Energy =                  37.6833513360707713
    Total Energy =                        -76.0411039249566585



Properties will be evaluated at   0.000000,   0.000000,   0.000000 [a0]

Properties computed using the SCF density matrix

  Nuclear Dipole Moment: [e a0]
     X:     1.2224      Y:    30.2623      Z:     0.8050

  Electronic Dipole Moment: [e a0]
     X:    -1.8188      Y:   -30.1949      Z:    -1.3028

  Dipole Moment: [e a0]
     X:    -0.5964      Y:     0.0674      Z:    -0.4977     Total:     0.7797

  Dipole Moment: [D]
     X:    -1.5159      Y:     0.1714      Z:    -1.2651     Total:     1.9819


*** tstop() called on ds1.sherrill.chemistry.gatech.edu at Thu Aug 30 16:56:14 2018
Module time:
	user time   =       4.54 seconds =       0.08 minutes
	system time =       0.09 seconds =       0.00 minutes
	total time  =          1 seconds =       0.02 minutes
Total time:
	user time   =      17.17 seconds =       0.29 minutes
	system time =       0.44 seconds =       0.01 minutes
	total time  =          4 seconds =       0.07 minutes

*** tstart() called on ds1.sherrill.chemistry.gatech.edu
*** at Thu Aug 30 16:56:14 2018


  //>>>>>>>>>>>>>>>>>>>>>>>>>>>>>>>>>>>//
  //               DFMP2               //
  //<<<<<<<<<<<<<<<<<<<<<<<<<<<<<<<<<<<//

   => Loading Basis Set <=

    Name: (AUG-CC-PVDZ AUX)
    Role: RIFIT
    Keyword: DF_BASIS_MP2
    atoms 1, 4     entry O          line   204 file /theoryfs2/ds/alenaizan/Gits/psi4/install/share/psi4/basis/aug-cc-pvdz-ri.gbs 
    atoms 2-3, 5-6 entry H          line    30 file /theoryfs2/ds/alenaizan/Gits/psi4/install/share/psi4/basis/aug-cc-pvdz-ri.gbs 

	 --------------------------------------------------------
	                          DF-MP2                         
	      2nd-Order Density-Fitted Moller-Plesset Theory     
	              RMP2 Wavefunction,   6 Threads             
	                                                         
	        Rob Parrish, Justin Turney, Andy Simmonett,      
	           Ed Hohenstein, and C. David Sherrill          
	 --------------------------------------------------------

   => Auxiliary Basis Set <=

  Basis Set: (AUG-CC-PVDZ AUX)
    Blend: AUG-CC-PVDZ-RI
    Number of shells: 80
    Number of basis function: 236
    Number of Cartesian functions: 272
    Spherical Harmonics?: true
    Max angular momentum: 3

	 --------------------------------------------------------
	                 NBF =    82, NAUX =   236
	 --------------------------------------------------------
	   CLASS    FOCC     OCC    AOCC    AVIR     VIR    FVIR
	   PAIRS       0       5       5      77      77       0
	 --------------------------------------------------------

	-----------------------------------------------------------
	 ==================> DF-MP2 Energies <==================== 
	-----------------------------------------------------------
	 Reference Energy          =     -76.0411039249566585 [Eh]
	 Singles Energy            =      -0.0000000000000021 [Eh]
	 Same-Spin Energy          =      -0.0570030467126740 [Eh]
	 Opposite-Spin Energy      =      -0.1661706346873550 [Eh]
	 Correlation Energy        =      -0.2231736814000311 [Eh]
	 Total Energy              =     -76.2642776063566856 [Eh]
	-----------------------------------------------------------
	 ================> DF-SCS-MP2 Energies <================== 
	-----------------------------------------------------------
	 SCS Same-Spin Scale       =       0.3333333333333333 [-]
	 SCS Opposite-Spin Scale   =       1.2000000000000000 [-]
	 SCS Same-Spin Energy      =      -0.0190010155708913 [Eh]
	 SCS Opposite-Spin Energy  =      -0.1994047616248260 [Eh]
	 SCS Correlation Energy    =      -0.2184057771957194 [Eh]
	 SCS Total Energy          =     -76.2595097021523713 [Eh]
	-----------------------------------------------------------


*** tstop() called on ds1.sherrill.chemistry.gatech.edu at Thu Aug 30 16:56:14 2018
Module time:
	user time   =       1.29 seconds =       0.02 minutes
	system time =       0.04 seconds =       0.00 minutes
	total time  =          0 seconds =       0.00 minutes
Total time:
	user time   =      18.46 seconds =       0.31 minutes
	system time =       0.48 seconds =       0.01 minutes
	total time  =          4 seconds =       0.07 minutes

       N-Body: Complex Energy (fragments = (3,), basis = (2, 3):   -76.26427760635669)

       N-Body: Computing complex (4/12) with fragments (2,) in the basis of fragments (2, 3).

    SCF Algorithm Type (re)set to DF.

*** tstart() called on ds1.sherrill.chemistry.gatech.edu
*** at Thu Aug 30 16:56:14 2018

   => Loading Basis Set <=

    Name: AUG-CC-PVDZ
    Role: ORBITAL
    Keyword: BASIS
    atoms 1, 4     entry O          line   250 file /theoryfs2/ds/alenaizan/Gits/psi4/install/share/psi4/basis/aug-cc-pvdz.gbs 
    atoms 2-3, 5-6 entry H          line    36 file /theoryfs2/ds/alenaizan/Gits/psi4/install/share/psi4/basis/aug-cc-pvdz.gbs 

    There are an even number of electrons - assuming singlet.
    Specify the multiplicity in the molecule input block.


         ---------------------------------------------------------
                                   SCF
            by Justin Turney, Rob Parrish, Andy Simmonett
                             and Daniel Smith
                              RHF Reference
                        6 Threads,    500 MiB Core
         ---------------------------------------------------------

  ==> Geometry <==

    Molecular point group: c1
    Full point group: C1

    Geometry (in Bohr), charge = 0, multiplicity = 1:

       Center              X                  Y                   Z               Mass       
    ------------   -----------------  -----------------  -----------------  -----------------
           O          2.469716926014    -1.755933825201    -0.152975719259    15.994914619560
           H          3.764153386014    -2.215810465201     1.026414160741     1.007825032070
           H          2.306454086014     0.069428014799    -0.021471609259     1.007825032070
           O(Gh)      0.291750086014     3.007199814799     0.221038270741    15.994914619560
           H(Gh)     -1.212059693986     1.956652564799     0.120986360741     1.007825032070
           H(Gh)      0.100491276014     4.248024714799    -1.084267669259     1.007825032070

  Running in c1 symmetry.

  Rotational constants: A =      0.66182  B =      0.23463  C =      0.17636 [cm^-1]
  Rotational constants: A =  19840.76255  B =   7034.17541  C =   5287.25055 [MHz]
  Nuclear repulsion =    9.116778471315827

  Charge       = 0
  Multiplicity = 1
  Electrons    = 10
  Nalpha       = 5
  Nbeta        = 5

  ==> Algorithm <==

  SCF Algorithm Type is DF.
  DIIS enabled.
  MOM disabled.
  Fractional occupation disabled.
  Guess Type is SAD.
  Energy threshold   = 1.00e-08
  Density threshold  = 1.00e-08
  Integral threshold = 0.00e+00

  ==> Primary Basis <==

  Basis Set: AUG-CC-PVDZ
    Blend: AUG-CC-PVDZ
    Number of shells: 38
    Number of basis function: 82
    Number of Cartesian functions: 86
    Spherical Harmonics?: true
    Max angular momentum: 2

   => Loading Basis Set <=

    Name: (AUG-CC-PVDZ AUX)
    Role: JKFIT
    Keyword: DF_BASIS_SCF
    atoms 1, 4     entry O          line   270 file /theoryfs2/ds/alenaizan/Gits/psi4/install/share/psi4/basis/aug-cc-pvdz-jkfit.gbs 
    atoms 2-3, 5-6 entry H          line    70 file /theoryfs2/ds/alenaizan/Gits/psi4/install/share/psi4/basis/aug-cc-pvdz-jkfit.gbs 

  ==> Pre-Iterations <==

   -------------------------------------------------------
    Irrep   Nso     Nmo     Nalpha   Nbeta   Ndocc  Nsocc
   -------------------------------------------------------
     A         82      82       0       0       0       0
   -------------------------------------------------------
    Total      82      82       5       5       5       0
   -------------------------------------------------------

  ==> Integral Setup <==

  ==> MemDFJK: Density-Fitted J/K Matrices <==

    J tasked:                   Yes
    K tasked:                   Yes
    wK tasked:                   No
    OpenMP threads:               6
    Memory (MB):                375
    Algorithm:                 Core
    Schwarz Cutoff:           1E-12
    Mask sparsity (%):       0.0000
    Fitting Condition:        1E-12

   => Auxiliary Basis Set <=

  Basis Set: (AUG-CC-PVDZ AUX)
    Blend: AUG-CC-PVDZ-JKFIT
    Number of shells: 104
    Number of basis function: 300
    Number of Cartesian functions: 342
    Spherical Harmonics?: true
    Max angular momentum: 3

  Minimum eigenvalue in the overlap matrix is 1.6688955244E-03.
  Using Symmetric Orthogonalization.

  SCF Guess: Superposition of Atomic Densities via on-the-fly atomic UHF.

  ==> Iterations <==

                           Total Energy        Delta E     RMS |[F,P]|

   @DF-RHF iter   0:   -75.93260304191983   -7.59326e+01   4.94294e-02 
   @DF-RHF iter   1:   -76.01265055295620   -8.00475e-02   7.44220e-03 
   @DF-RHF iter   2:   -76.03330869260699   -2.06581e-02   4.08345e-03 DIIS
   @DF-RHF iter   3:   -76.04032028848448   -7.01160e-03   6.75897e-04 DIIS
   @DF-RHF iter   4:   -76.04078029744115   -4.60009e-04   2.12517e-04 DIIS
   @DF-RHF iter   5:   -76.04086282569328   -8.25283e-05   5.86301e-05 DIIS
   @DF-RHF iter   6:   -76.04086986343458   -7.03774e-06   8.51143e-06 DIIS
   @DF-RHF iter   7:   -76.04087000164677   -1.38212e-07   1.33424e-06 DIIS
   @DF-RHF iter   8:   -76.04087000466752   -3.02076e-09   3.09810e-07 DIIS
   @DF-RHF iter   9:   -76.04087000482028   -1.52752e-10   7.86976e-08 DIIS
   @DF-RHF iter  10:   -76.04087000483159   -1.13118e-11   1.52755e-08 DIIS
   @DF-RHF iter  11:   -76.04087000483182   -2.27374e-13   3.59597e-09 DIIS

  ==> Post-Iterations <==

    Orbital Energies [Eh]
    ---------------------

    Doubly Occupied:                                                      

       1A    -20.578023     2A     -1.351813     3A     -0.717074  
       4A     -0.581854     5A     -0.508410  

    Virtual:                                                              

       6A      0.028078     7A      0.049934     8A      0.064666  
       9A      0.084359    10A      0.133043    11A      0.149828  
      12A      0.193047    13A      0.197126    14A      0.208446  
      15A      0.225907    16A      0.243010    17A      0.285234  
      18A      0.332279    19A      0.359768    20A      0.370654  
      21A      0.394157    22A      0.412435    23A      0.430781  
      24A      0.440809    25A      0.471657    26A      0.499659  
      27A      0.508664    28A      0.532614    29A      0.594516  
      30A      0.612827    31A      0.652927    32A      0.668353  
      33A      0.759234    34A      0.842515    35A      0.923588  
      36A      0.969565    37A      1.095971    38A      1.113103  
      39A      1.134932    40A      1.152316    41A      1.166770  
      42A      1.198547    43A      1.272283    44A      1.294749  
      45A      1.326046    46A      1.369300    47A      1.433195  
      48A      1.447978    49A      1.519250    50A      1.604356  
      51A      1.693580    52A      2.014745    53A      2.032674  
      54A      2.113797    55A      2.169111    56A      2.283351  
      57A      2.392526    58A      2.455639    59A      2.529823  
      60A      2.533427    61A      2.563465    62A      2.693449  
      63A      2.751237    64A      2.869184    65A      2.990737  
      66A      3.446105    67A      3.687566    68A      3.709607  
      69A      3.739516    70A      3.930384    71A      4.058568  
      72A      4.094815    73A      4.346344    74A      4.936655  
      75A      4.983192    76A      5.028423    77A      5.111196  
      78A      5.408100    79A      5.919879    80A      6.582378  
      81A      7.008442    82A     33.536067  

    Final Occupation by Irrep:
              A 
    DOCC [     5 ]

  Energy converged.

  @DF-RHF Final Energy:   -76.04087000483182

   => Energetics <=

    Nuclear Repulsion Energy =              9.1167784713158273
    One-Electron Energy =                -122.8409502987845059
    Two-Electron Energy =                  37.6833018226368637
    Total Energy =                        -76.0408700048318167



Properties will be evaluated at   0.000000,   0.000000,   0.000000 [a0]

Properties computed using the SCF density matrix

  Nuclear Dipole Moment: [e a0]
     X:    25.8283      Y:   -16.1939      Z:    -0.2189

  Electronic Dipole Moment: [e a0]
     X:   -25.4259      Y:    16.6764      Z:     0.6849

  Dipole Moment: [e a0]
     X:     0.4024      Y:     0.4825      Z:     0.4661     Total:     0.7823

  Dipole Moment: [D]
     X:     1.0228      Y:     1.2265      Z:     1.1846     Total:     1.9884


*** tstop() called on ds1.sherrill.chemistry.gatech.edu at Thu Aug 30 16:56:15 2018
Module time:
	user time   =       4.52 seconds =       0.08 minutes
	system time =       0.12 seconds =       0.00 minutes
	total time  =          1 seconds =       0.02 minutes
Total time:
	user time   =      23.02 seconds =       0.38 minutes
	system time =       0.60 seconds =       0.01 minutes
	total time  =          5 seconds =       0.08 minutes

*** tstart() called on ds1.sherrill.chemistry.gatech.edu
*** at Thu Aug 30 16:56:15 2018


  //>>>>>>>>>>>>>>>>>>>>>>>>>>>>>>>>>>>//
  //               DFMP2               //
  //<<<<<<<<<<<<<<<<<<<<<<<<<<<<<<<<<<<//

   => Loading Basis Set <=

    Name: (AUG-CC-PVDZ AUX)
    Role: RIFIT
    Keyword: DF_BASIS_MP2
    atoms 1, 4     entry O          line   204 file /theoryfs2/ds/alenaizan/Gits/psi4/install/share/psi4/basis/aug-cc-pvdz-ri.gbs 
    atoms 2-3, 5-6 entry H          line    30 file /theoryfs2/ds/alenaizan/Gits/psi4/install/share/psi4/basis/aug-cc-pvdz-ri.gbs 

	 --------------------------------------------------------
	                          DF-MP2                         
	      2nd-Order Density-Fitted Moller-Plesset Theory     
	              RMP2 Wavefunction,   6 Threads             
	                                                         
	        Rob Parrish, Justin Turney, Andy Simmonett,      
	           Ed Hohenstein, and C. David Sherrill          
	 --------------------------------------------------------

   => Auxiliary Basis Set <=

  Basis Set: (AUG-CC-PVDZ AUX)
    Blend: AUG-CC-PVDZ-RI
    Number of shells: 80
    Number of basis function: 236
    Number of Cartesian functions: 272
    Spherical Harmonics?: true
    Max angular momentum: 3

	 --------------------------------------------------------
	                 NBF =    82, NAUX =   236
	 --------------------------------------------------------
	   CLASS    FOCC     OCC    AOCC    AVIR     VIR    FVIR
	   PAIRS       0       5       5      77      77       0
	 --------------------------------------------------------

	-----------------------------------------------------------
	 ==================> DF-MP2 Energies <==================== 
	-----------------------------------------------------------
	 Reference Energy          =     -76.0408700048318167 [Eh]
	 Singles Energy            =      -0.0000000000000043 [Eh]
	 Same-Spin Energy          =      -0.0569422235453221 [Eh]
	 Opposite-Spin Energy      =      -0.1658981563841365 [Eh]
	 Correlation Energy        =      -0.2228403799294629 [Eh]
	 Total Energy              =     -76.2637103847612821 [Eh]
	-----------------------------------------------------------
	 ================> DF-SCS-MP2 Energies <================== 
	-----------------------------------------------------------
	 SCS Same-Spin Scale       =       0.3333333333333333 [-]
	 SCS Opposite-Spin Scale   =       1.2000000000000000 [-]
	 SCS Same-Spin Energy      =      -0.0189807411817740 [Eh]
	 SCS Opposite-Spin Energy  =      -0.1990777876609638 [Eh]
	 SCS Correlation Energy    =      -0.2180585288427422 [Eh]
	 SCS Total Energy          =     -76.2589285336745633 [Eh]
	-----------------------------------------------------------


*** tstop() called on ds1.sherrill.chemistry.gatech.edu at Thu Aug 30 16:56:15 2018
Module time:
	user time   =       1.32 seconds =       0.02 minutes
	system time =       0.01 seconds =       0.00 minutes
	total time  =          0 seconds =       0.00 minutes
Total time:
	user time   =      24.34 seconds =       0.41 minutes
	system time =       0.61 seconds =       0.01 minutes
	total time  =          5 seconds =       0.08 minutes

       N-Body: Complex Energy (fragments = (2,), basis = (2, 3):   -76.26371038476128)

       N-Body: Computing complex (5/12) with fragments (2,) in the basis of fragments (1, 2, 3).

    SCF Algorithm Type (re)set to DF.

*** tstart() called on ds1.sherrill.chemistry.gatech.edu
*** at Thu Aug 30 16:56:15 2018

   => Loading Basis Set <=

    Name: AUG-CC-PVDZ
    Role: ORBITAL
    Keyword: BASIS
    atoms 1, 4, 7       entry O          line   250 file /theoryfs2/ds/alenaizan/Gits/psi4/install/share/psi4/basis/aug-cc-pvdz.gbs 
    atoms 2-3, 5-6, 8-9 entry H          line    36 file /theoryfs2/ds/alenaizan/Gits/psi4/install/share/psi4/basis/aug-cc-pvdz.gbs 

    There are an even number of electrons - assuming singlet.
    Specify the multiplicity in the molecule input block.


         ---------------------------------------------------------
                                   SCF
            by Justin Turney, Rob Parrish, Andy Simmonett
                             and Daniel Smith
                              RHF Reference
                        6 Threads,    500 MiB Core
         ---------------------------------------------------------

  ==> Geometry <==

    Molecular point group: c1
    Full point group: C1

    Geometry (in Bohr), charge = 0, multiplicity = 1:

       Center              X                  Y                   Z               Mass       
    ------------   -----------------  -----------------  -----------------  -----------------
           O(Gh)     -2.763261453986    -1.245333495201    -0.136492539259    15.994914619560
           H(Gh)     -1.123107123986    -2.063836135201    -0.034484869259     1.007825032070
           H(Gh)     -3.807452833986    -2.088611685201     1.078857190741     1.007825032070
           O          2.469716926014    -1.755933825201    -0.152975719259    15.994914619560
           H          3.764153386014    -2.215810465201     1.026414160741     1.007825032070
           H          2.306454086014     0.069428014799    -0.021471609259     1.007825032070
           O(Gh)      0.291750086014     3.007199814799     0.221038270741    15.994914619560
           H(Gh)     -1.212059693986     1.956652564799     0.120986360741     1.007825032070
           H(Gh)      0.100491276014     4.248024714799    -1.084267669259     1.007825032070

  Running in c1 symmetry.

  Rotational constants: A =      0.23213  B =      0.22920  C =      0.11739 [cm^-1]
  Rotational constants: A =   6958.95982  B =   6871.15159  C =   3519.17461 [MHz]
  Nuclear repulsion =    9.116778471315827

  Charge       = 0
  Multiplicity = 1
  Electrons    = 10
  Nalpha       = 5
  Nbeta        = 5

  ==> Algorithm <==

  SCF Algorithm Type is DF.
  DIIS enabled.
  MOM disabled.
  Fractional occupation disabled.
  Guess Type is SAD.
  Energy threshold   = 1.00e-08
  Density threshold  = 1.00e-08
  Integral threshold = 0.00e+00

  ==> Primary Basis <==

  Basis Set: AUG-CC-PVDZ
    Blend: AUG-CC-PVDZ
    Number of shells: 57
    Number of basis function: 123
    Number of Cartesian functions: 129
    Spherical Harmonics?: true
    Max angular momentum: 2

   => Loading Basis Set <=

    Name: (AUG-CC-PVDZ AUX)
    Role: JKFIT
    Keyword: DF_BASIS_SCF
    atoms 1, 4, 7       entry O          line   270 file /theoryfs2/ds/alenaizan/Gits/psi4/install/share/psi4/basis/aug-cc-pvdz-jkfit.gbs 
    atoms 2-3, 5-6, 8-9 entry H          line    70 file /theoryfs2/ds/alenaizan/Gits/psi4/install/share/psi4/basis/aug-cc-pvdz-jkfit.gbs 

  ==> Pre-Iterations <==

   -------------------------------------------------------
    Irrep   Nso     Nmo     Nalpha   Nbeta   Ndocc  Nsocc
   -------------------------------------------------------
     A        123     123       0       0       0       0
   -------------------------------------------------------
    Total     123     123       5       5       5       0
   -------------------------------------------------------

  ==> Integral Setup <==

  ==> MemDFJK: Density-Fitted J/K Matrices <==

    J tasked:                   Yes
    K tasked:                   Yes
    wK tasked:                   No
    OpenMP threads:               6
    Memory (MB):                375
    Algorithm:                 Core
    Schwarz Cutoff:           1E-12
    Mask sparsity (%):       0.0000
    Fitting Condition:        1E-12

   => Auxiliary Basis Set <=

  Basis Set: (AUG-CC-PVDZ AUX)
    Blend: AUG-CC-PVDZ-JKFIT
    Number of shells: 156
    Number of basis function: 450
    Number of Cartesian functions: 513
    Spherical Harmonics?: true
    Max angular momentum: 3

  Minimum eigenvalue in the overlap matrix is 1.3108249075E-03.
  Using Symmetric Orthogonalization.

  SCF Guess: Superposition of Atomic Densities via on-the-fly atomic UHF.

  ==> Iterations <==

                           Total Energy        Delta E     RMS |[F,P]|

   @DF-RHF iter   0:   -75.93260308175797   -7.59326e+01   3.29666e-02 
   @DF-RHF iter   1:   -76.01292558751014   -8.03225e-02   4.96445e-03 
   @DF-RHF iter   2:   -76.03360310894277   -2.06775e-02   2.73013e-03 DIIS
   @DF-RHF iter   3:   -76.04062077246860   -7.01766e-03   4.49537e-04 DIIS
   @DF-RHF iter   4:   -76.04108054757167   -4.59775e-04   1.41948e-04 DIIS
   @DF-RHF iter   5:   -76.04116333378286   -8.27862e-05   3.78194e-05 DIIS
   @DF-RHF iter   6:   -76.04117042598315   -7.09220e-06   5.69286e-06 DIIS
   @DF-RHF iter   7:   -76.04117056526341   -1.39280e-07   8.63585e-07 DIIS
   @DF-RHF iter   8:   -76.04117056833751   -3.07409e-09   1.99407e-07 DIIS
   @DF-RHF iter   9:   -76.04117056849107   -1.53562e-10   5.26202e-08 DIIS
   @DF-RHF iter  10:   -76.04117056850259   -1.15250e-11   1.02302e-08 DIIS
   @DF-RHF iter  11:   -76.04117056850282   -2.27374e-13   2.41353e-09 DIIS

  ==> Post-Iterations <==

    Orbital Energies [Eh]
    ---------------------

    Doubly Occupied:                                                      

       1A    -20.578169     2A     -1.351685     3A     -0.716892  
       4A     -0.581683     5A     -0.508289  

    Virtual:                                                              

       6A      0.026130     7A      0.049346     8A      0.052589  
       9A      0.075480    10A      0.080653    11A      0.090411  
      12A      0.136014    13A      0.148811    14A      0.175907  
      15A      0.183515    16A      0.191487    17A      0.215680  
      18A      0.222889    19A      0.230594    20A      0.237878  
      21A      0.259095    22A      0.272149    23A      0.307153  
      24A      0.342622    25A      0.369357    26A      0.400942  
      27A      0.405445    28A      0.424672    29A      0.439141  
      30A      0.452261    31A      0.465030    32A      0.476392  
      33A      0.494532    34A      0.505819    35A      0.515263  
      36A      0.517504    37A      0.554112    38A      0.567439  
      39A      0.591925    40A      0.608341    41A      0.628756  
      42A      0.648114    43A      0.675584    44A      0.699193  
      45A      0.739657    46A      0.760747    47A      0.793208  
      48A      0.864755    49A      0.915854    50A      0.983021  
      51A      1.013620    52A      1.113037    53A      1.121137  
      54A      1.151313    55A      1.160132    56A      1.190365  
      57A      1.195257    58A      1.220610    59A      1.250094  
      60A      1.281558    61A      1.306669    62A      1.340961  
      63A      1.355928    64A      1.369110    65A      1.409790  
      66A      1.426687    67A      1.449794    68A      1.453030  
      69A      1.511910    70A      1.544380    71A      1.590326  
      72A      1.622615    73A      1.680171    74A      1.856179  
      75A      2.032432    76A      2.126666    77A      2.153206  
      78A      2.198227    79A      2.230110    80A      2.340765  
      81A      2.360654    82A      2.408355    83A      2.478786  
      84A      2.492668    85A      2.541865    86A      2.565746  
      87A      2.584148    88A      2.675122    89A      2.727547  
      90A      2.759811    91A      2.805067    92A      2.851847  
      93A      2.982231    94A      3.073504    95A      3.503980  
      96A      3.584656    97A      3.737603    98A      3.775615  
      99A      3.848490   100A      3.951256   101A      4.002045  
     102A      4.114386   103A      4.141627   104A      4.148583  
     105A      4.386864   106A      4.953939   107A      4.975495  
     108A      5.009979   109A      5.033319   110A      5.049475  
     111A      5.089014   112A      5.183284   113A      5.270237  
     114A      5.455659   115A      5.530188   116A      5.909178  
     117A      6.029210   118A      6.582267   119A      6.719928  
     120A      7.093608   121A      7.112875   122A     33.544512  
     123A     33.591162  

    Final Occupation by Irrep:
              A 
    DOCC [     5 ]

  Energy converged.

  @DF-RHF Final Energy:   -76.04117056850282

   => Energetics <=

    Nuclear Repulsion Energy =              9.1167784713158273
    One-Electron Energy =                -122.8424640738875127
    Two-Electron Energy =                  37.6845150340688804
    Total Energy =                        -76.0411705685028068



Properties will be evaluated at   0.000000,   0.000000,   0.000000 [a0]

Properties computed using the SCF density matrix

  Nuclear Dipole Moment: [e a0]
     X:    25.8283      Y:   -16.1939      Z:    -0.2189

  Electronic Dipole Moment: [e a0]
     X:   -25.4288      Y:    16.6751      Z:     0.6826

  Dipole Moment: [e a0]
     X:     0.3995      Y:     0.4813      Z:     0.4638     Total:     0.7787

  Dipole Moment: [D]
     X:     1.0155      Y:     1.2233      Z:     1.1788     Total:     1.9792


*** tstop() called on ds1.sherrill.chemistry.gatech.edu at Thu Aug 30 16:56:16 2018
Module time:
	user time   =       5.60 seconds =       0.09 minutes
	system time =       0.14 seconds =       0.00 minutes
	total time  =          1 seconds =       0.02 minutes
Total time:
	user time   =      29.98 seconds =       0.50 minutes
	system time =       0.75 seconds =       0.01 minutes
	total time  =          6 seconds =       0.10 minutes

*** tstart() called on ds1.sherrill.chemistry.gatech.edu
*** at Thu Aug 30 16:56:16 2018


  //>>>>>>>>>>>>>>>>>>>>>>>>>>>>>>>>>>>//
  //               DFMP2               //
  //<<<<<<<<<<<<<<<<<<<<<<<<<<<<<<<<<<<//

   => Loading Basis Set <=

    Name: (AUG-CC-PVDZ AUX)
    Role: RIFIT
    Keyword: DF_BASIS_MP2
    atoms 1, 4, 7       entry O          line   204 file /theoryfs2/ds/alenaizan/Gits/psi4/install/share/psi4/basis/aug-cc-pvdz-ri.gbs 
    atoms 2-3, 5-6, 8-9 entry H          line    30 file /theoryfs2/ds/alenaizan/Gits/psi4/install/share/psi4/basis/aug-cc-pvdz-ri.gbs 

	 --------------------------------------------------------
	                          DF-MP2                         
	      2nd-Order Density-Fitted Moller-Plesset Theory     
	              RMP2 Wavefunction,   6 Threads             
	                                                         
	        Rob Parrish, Justin Turney, Andy Simmonett,      
	           Ed Hohenstein, and C. David Sherrill          
	 --------------------------------------------------------

   => Auxiliary Basis Set <=

  Basis Set: (AUG-CC-PVDZ AUX)
    Blend: AUG-CC-PVDZ-RI
    Number of shells: 120
    Number of basis function: 354
    Number of Cartesian functions: 408
    Spherical Harmonics?: true
    Max angular momentum: 3

	 --------------------------------------------------------
	                 NBF =   123, NAUX =   354
	 --------------------------------------------------------
	   CLASS    FOCC     OCC    AOCC    AVIR     VIR    FVIR
	   PAIRS       0       5       5     118     118       0
	 --------------------------------------------------------

	-----------------------------------------------------------
	 ==================> DF-MP2 Energies <==================== 
	-----------------------------------------------------------
	 Reference Energy          =     -76.0411705685028210 [Eh]
	 Singles Energy            =      -0.0000000000000044 [Eh]
	 Same-Spin Energy          =      -0.0570512864111663 [Eh]
	 Opposite-Spin Energy      =      -0.1663993640765370 [Eh]
	 Correlation Energy        =      -0.2234506504877077 [Eh]
	 Total Energy              =     -76.2646212189905270 [Eh]
	-----------------------------------------------------------
	 ================> DF-SCS-MP2 Energies <================== 
	-----------------------------------------------------------
	 SCS Same-Spin Scale       =       0.3333333333333333 [-]
	 SCS Opposite-Spin Scale   =       1.2000000000000000 [-]
	 SCS Same-Spin Energy      =      -0.0190170954703888 [Eh]
	 SCS Opposite-Spin Energy  =      -0.1996792368918444 [Eh]
	 SCS Correlation Energy    =      -0.2186963323622376 [Eh]
	 SCS Total Energy          =     -76.2598669008650631 [Eh]
	-----------------------------------------------------------


*** tstop() called on ds1.sherrill.chemistry.gatech.edu at Thu Aug 30 16:56:17 2018
Module time:
	user time   =       1.78 seconds =       0.03 minutes
	system time =       0.04 seconds =       0.00 minutes
	total time  =          1 seconds =       0.02 minutes
Total time:
	user time   =      31.76 seconds =       0.53 minutes
	system time =       0.79 seconds =       0.01 minutes
	total time  =          7 seconds =       0.12 minutes

       N-Body: Complex Energy (fragments = (2,), basis = (1, 2, 3):   -76.26462121899053)

       N-Body: Computing complex (6/12) with fragments (1,) in the basis of fragments (1,).

    SCF Algorithm Type (re)set to DF.

*** tstart() called on ds1.sherrill.chemistry.gatech.edu
*** at Thu Aug 30 16:56:17 2018

   => Loading Basis Set <=

    Name: AUG-CC-PVDZ
    Role: ORBITAL
    Keyword: BASIS
    atoms 1   entry O          line   250 file /theoryfs2/ds/alenaizan/Gits/psi4/install/share/psi4/basis/aug-cc-pvdz.gbs 
    atoms 2-3 entry H          line    36 file /theoryfs2/ds/alenaizan/Gits/psi4/install/share/psi4/basis/aug-cc-pvdz.gbs 

    There are an even number of electrons - assuming singlet.
    Specify the multiplicity in the molecule input block.


         ---------------------------------------------------------
                                   SCF
            by Justin Turney, Rob Parrish, Andy Simmonett
                             and Daniel Smith
                              RHF Reference
                        6 Threads,    500 MiB Core
         ---------------------------------------------------------

  ==> Geometry <==

    Molecular point group: c1
    Full point group: C1

    Geometry (in Bohr), charge = 0, multiplicity = 1:

       Center              X                  Y                   Z               Mass       
    ------------   -----------------  -----------------  -----------------  -----------------
           O         -2.763261453986    -1.245333495201    -0.136492539259    15.994914619560
           H         -1.123107123986    -2.063836135201    -0.034484869259     1.007825032070
           H         -3.807452833986    -2.088611685201     1.078857190741     1.007825032070

  Running in c1 symmetry.

  Rotational constants: A =     17.22658  B =      0.35254  C =      0.35060 [cm^-1]
  Rotational constants: A = 516439.84608  B =  10569.00630  C =  10510.60524 [MHz]
  Nuclear repulsion =    9.119928278805013

  Charge       = 0
  Multiplicity = 1
  Electrons    = 10
  Nalpha       = 5
  Nbeta        = 5

  ==> Algorithm <==

  SCF Algorithm Type is DF.
  DIIS enabled.
  MOM disabled.
  Fractional occupation disabled.
  Guess Type is SAD.
  Energy threshold   = 1.00e-08
  Density threshold  = 1.00e-08
  Integral threshold = 0.00e+00

  ==> Primary Basis <==

  Basis Set: AUG-CC-PVDZ
    Blend: AUG-CC-PVDZ
    Number of shells: 19
    Number of basis function: 41
    Number of Cartesian functions: 43
    Spherical Harmonics?: true
    Max angular momentum: 2

   => Loading Basis Set <=

    Name: (AUG-CC-PVDZ AUX)
    Role: JKFIT
    Keyword: DF_BASIS_SCF
    atoms 1   entry O          line   270 file /theoryfs2/ds/alenaizan/Gits/psi4/install/share/psi4/basis/aug-cc-pvdz-jkfit.gbs 
    atoms 2-3 entry H          line    70 file /theoryfs2/ds/alenaizan/Gits/psi4/install/share/psi4/basis/aug-cc-pvdz-jkfit.gbs 

  ==> Pre-Iterations <==

   -------------------------------------------------------
    Irrep   Nso     Nmo     Nalpha   Nbeta   Ndocc  Nsocc
   -------------------------------------------------------
     A         41      41       0       0       0       0
   -------------------------------------------------------
    Total      41      41       5       5       5       0
   -------------------------------------------------------

  ==> Integral Setup <==

  ==> MemDFJK: Density-Fitted J/K Matrices <==

    J tasked:                   Yes
    K tasked:                   Yes
    wK tasked:                   No
    OpenMP threads:               6
    Memory (MB):                375
    Algorithm:                 Core
    Schwarz Cutoff:           1E-12
    Mask sparsity (%):       0.0000
    Fitting Condition:        1E-12

   => Auxiliary Basis Set <=

  Basis Set: (AUG-CC-PVDZ AUX)
    Blend: AUG-CC-PVDZ-JKFIT
    Number of shells: 52
    Number of basis function: 150
    Number of Cartesian functions: 171
    Spherical Harmonics?: true
    Max angular momentum: 3

  Minimum eigenvalue in the overlap matrix is 2.7901195106E-03.
  Using Symmetric Orthogonalization.

  SCF Guess: Superposition of Atomic Densities via on-the-fly atomic UHF.

  ==> Iterations <==

                           Total Energy        Delta E     RMS |[F,P]|

   @DF-RHF iter   0:   -75.97249546309544   -7.59725e+01   8.76623e-02 
   @DF-RHF iter   1:   -76.00787585842997   -3.53804e-02   1.58958e-02 
   @DF-RHF iter   2:   -76.03213365887144   -2.42578e-02   8.13295e-03 DIIS
   @DF-RHF iter   3:   -76.04011837515719   -7.98472e-03   1.51989e-03 DIIS
   @DF-RHF iter   4:   -76.04068483159983   -5.66456e-04   4.67253e-04 DIIS
   @DF-RHF iter   5:   -76.04078109438154   -9.62628e-05   1.20311e-04 DIIS
   @DF-RHF iter   6:   -76.04078893400059   -7.83962e-06   1.95573e-05 DIIS
   @DF-RHF iter   7:   -76.04078911926450   -1.85264e-07   3.22688e-06 DIIS
   @DF-RHF iter   8:   -76.04078912409489   -4.83038e-09   6.34087e-07 DIIS
   @DF-RHF iter   9:   -76.04078912435597   -2.61082e-10   1.96017e-07 DIIS
   @DF-RHF iter  10:   -76.04078912437276   -1.67972e-11   3.22701e-08 DIIS
   @DF-RHF iter  11:   -76.04078912437318   -4.12115e-13   7.29382e-09 DIIS

  ==> Post-Iterations <==

    Orbital Energies [Eh]
    ---------------------

    Doubly Occupied:                                                      

       1A    -20.577986     2A     -1.351952     3A     -0.717405  
       4A     -0.581870     5A     -0.508468  

    Virtual:                                                              

       6A      0.035421     7A      0.057821     8A      0.174321  
       9A      0.196924    10A      0.221888    11A      0.231355  
      12A      0.289327    13A      0.328725    14A      0.384573  
      15A      0.405313    16A      0.434479    17A      0.536984  
      18A      0.646663    19A      0.657749    20A      0.811352  
      21A      0.923638    22A      1.100620    23A      1.113963  
      24A      1.148337    25A      1.311351    26A      1.466321  
      27A      1.482375    28A      1.580715    29A      1.995356  
      30A      2.011082    31A      2.101244    32A      2.377835  
      33A      2.465094    34A      2.610979    35A      2.716190  
      36A      2.954746    37A      3.672205    38A      3.688007  
      39A      3.702372    40A      4.025283    41A      4.290382  

    Final Occupation by Irrep:
              A 
    DOCC [     5 ]

  Energy converged.

  @DF-RHF Final Energy:   -76.04078912437318

   => Energetics <=

    Nuclear Repulsion Energy =              9.1199282788050127
    One-Electron Energy =                -122.8460731418720258
    Two-Electron Energy =                  37.6853557386938434
    Total Energy =                        -76.0407891243731768



Properties will be evaluated at   0.000000,   0.000000,   0.000000 [a0]

Properties computed using the SCF density matrix

  Nuclear Dipole Moment: [e a0]
     X:   -27.0367      Y:   -14.1151      Z:    -0.0476

  Electronic Dipole Moment: [e a0]
     X:    27.2458      Y:    13.5257      Z:     0.5157

  Dipole Moment: [e a0]
     X:     0.2092      Y:    -0.5894      Z:     0.4681     Total:     0.7812

  Dipole Moment: [D]
     X:     0.5317      Y:    -1.4980      Z:     1.1898     Total:     1.9856


*** tstop() called on ds1.sherrill.chemistry.gatech.edu at Thu Aug 30 16:56:17 2018
Module time:
	user time   =       3.05 seconds =       0.05 minutes
	system time =       0.08 seconds =       0.00 minutes
	total time  =          0 seconds =       0.00 minutes
Total time:
	user time   =      34.85 seconds =       0.58 minutes
	system time =       0.87 seconds =       0.01 minutes
	total time  =          7 seconds =       0.12 minutes

*** tstart() called on ds1.sherrill.chemistry.gatech.edu
*** at Thu Aug 30 16:56:17 2018


  //>>>>>>>>>>>>>>>>>>>>>>>>>>>>>>>>>>>//
  //               DFMP2               //
  //<<<<<<<<<<<<<<<<<<<<<<<<<<<<<<<<<<<//

   => Loading Basis Set <=

    Name: (AUG-CC-PVDZ AUX)
    Role: RIFIT
    Keyword: DF_BASIS_MP2
    atoms 1   entry O          line   204 file /theoryfs2/ds/alenaizan/Gits/psi4/install/share/psi4/basis/aug-cc-pvdz-ri.gbs 
    atoms 2-3 entry H          line    30 file /theoryfs2/ds/alenaizan/Gits/psi4/install/share/psi4/basis/aug-cc-pvdz-ri.gbs 

	 --------------------------------------------------------
	                          DF-MP2                         
	      2nd-Order Density-Fitted Moller-Plesset Theory     
	              RMP2 Wavefunction,   6 Threads             
	                                                         
	        Rob Parrish, Justin Turney, Andy Simmonett,      
	           Ed Hohenstein, and C. David Sherrill          
	 --------------------------------------------------------

   => Auxiliary Basis Set <=

  Basis Set: (AUG-CC-PVDZ AUX)
    Blend: AUG-CC-PVDZ-RI
    Number of shells: 40
    Number of basis function: 118
    Number of Cartesian functions: 136
    Spherical Harmonics?: true
    Max angular momentum: 3

	 --------------------------------------------------------
	                 NBF =    41, NAUX =   118
	 --------------------------------------------------------
	   CLASS    FOCC     OCC    AOCC    AVIR     VIR    FVIR
	   PAIRS       0       5       5      36      36       0
	 --------------------------------------------------------

	-----------------------------------------------------------
	 ==================> DF-MP2 Energies <==================== 
	-----------------------------------------------------------
	 Reference Energy          =     -76.0407891243731768 [Eh]
	 Singles Energy            =      -0.0000000000000055 [Eh]
	 Same-Spin Energy          =      -0.0568554236971813 [Eh]
	 Opposite-Spin Energy      =      -0.1655398851602821 [Eh]
	 Correlation Energy        =      -0.2223953088574690 [Eh]
	 Total Energy              =     -76.2631844332306486 [Eh]
	-----------------------------------------------------------
	 ================> DF-SCS-MP2 Energies <================== 
	-----------------------------------------------------------
	 SCS Same-Spin Scale       =       0.3333333333333333 [-]
	 SCS Opposite-Spin Scale   =       1.2000000000000000 [-]
	 SCS Same-Spin Energy      =      -0.0189518078990604 [Eh]
	 SCS Opposite-Spin Energy  =      -0.1986478621923385 [Eh]
	 SCS Correlation Energy    =      -0.2175996700914045 [Eh]
	 SCS Total Energy          =     -76.2583887944645795 [Eh]
	-----------------------------------------------------------


*** tstop() called on ds1.sherrill.chemistry.gatech.edu at Thu Aug 30 16:56:17 2018
Module time:
	user time   =       1.01 seconds =       0.02 minutes
	system time =       0.02 seconds =       0.00 minutes
	total time  =          0 seconds =       0.00 minutes
Total time:
	user time   =      35.86 seconds =       0.60 minutes
	system time =       0.89 seconds =       0.01 minutes
	total time  =          7 seconds =       0.12 minutes

       N-Body: Complex Energy (fragments = (1,), basis = (1,):   -76.26318443323065)

       N-Body: Computing complex (7/12) with fragments (3,) in the basis of fragments (3,).

    SCF Algorithm Type (re)set to DF.

*** tstart() called on ds1.sherrill.chemistry.gatech.edu
*** at Thu Aug 30 16:56:17 2018

   => Loading Basis Set <=

    Name: AUG-CC-PVDZ
    Role: ORBITAL
    Keyword: BASIS
    atoms 1   entry O          line   250 file /theoryfs2/ds/alenaizan/Gits/psi4/install/share/psi4/basis/aug-cc-pvdz.gbs 
    atoms 2-3 entry H          line    36 file /theoryfs2/ds/alenaizan/Gits/psi4/install/share/psi4/basis/aug-cc-pvdz.gbs 

    There are an even number of electrons - assuming singlet.
    Specify the multiplicity in the molecule input block.


         ---------------------------------------------------------
                                   SCF
            by Justin Turney, Rob Parrish, Andy Simmonett
                             and Daniel Smith
                              RHF Reference
                        6 Threads,    500 MiB Core
         ---------------------------------------------------------

  ==> Geometry <==

    Molecular point group: c1
    Full point group: C1

    Geometry (in Bohr), charge = 0, multiplicity = 1:

       Center              X                  Y                   Z               Mass       
    ------------   -----------------  -----------------  -----------------  -----------------
[...]
       4A     -1.341964     5A     -0.729122     6A     -0.704482  
       7A     -0.598724     8A     -0.571765     9A     -0.512723  
      10A     -0.502893  

    Virtual:                                                              

      11A      0.037366    12A      0.051141    13A      0.069250  
      14A      0.091808    15A      0.167290    16A      0.189552  
      17A      0.201488    18A      0.218740    19A      0.228416  
      20A      0.239121    21A      0.276822    22A      0.289291  
      23A      0.319213    24A      0.337789    25A      0.350826  
      26A      0.381807    27A      0.423572    28A      0.438925  
      29A      0.446185    30A      0.503874    31A      0.533296  
      32A      0.561128    33A      0.587150    34A      0.626748  
      35A      0.662396    36A      0.681175    37A      0.714282  
      38A      0.767603    39A      0.854410    40A      0.886192  
      41A      0.975343    42A      0.994324    43A      1.105609  
      44A      1.121113    45A      1.136340    46A      1.190325  
      47A      1.199071    48A      1.263095    49A      1.348520  
      50A      1.387401    51A      1.455961    52A      1.482782  
      53A      1.576938    54A      1.613045    55A      1.680832  
      56A      1.846719    57A      2.011393    58A      2.016333  
      59A      2.079586    60A      2.129781    61A      2.167232  
      62A      2.259820    63A      2.379623    64A      2.465355  
      65A      2.491140    66A      2.569889    67A      2.635405  
      68A      2.735121    69A      2.759063    70A      2.842721  
      71A      2.994502    72A      3.089932    73A      3.688152  
      74A      3.697961    75A      3.703121    76A      3.719607  
      77A      3.743144    78A      3.853320    79A      4.063739  
      80A      4.112764    81A      4.329376    82A      4.371927  

    Final Occupation by Irrep:
              A 
    DOCC [    10 ]

  Energy converged.

  @DF-RHF Final Energy:  -152.11092308209672

   => Energetics <=

    Nuclear Repulsion Energy =             37.4257857447601552
    One-Electron Energy =                -284.1380358948258049
    Two-Electron Energy =                  94.6013270679689242
    Total Energy =                       -152.1109230820967184



Properties will be evaluated at   0.000000,   0.000000,   0.000000 [a0]

Properties computed using the SCF density matrix

  Nuclear Dipole Moment: [e a0]
     X:    27.0508      Y:    14.0684      Z:     0.5862

  Electronic Dipole Moment: [e a0]
     X:   -27.3547      Y:   -13.3263      Z:    -0.6502

  Dipole Moment: [e a0]
     X:    -0.3039      Y:     0.7421      Z:    -0.0641     Total:     0.8045

  Dipole Moment: [D]
     X:    -0.7724      Y:     1.8862      Z:    -0.1628     Total:     2.0447


*** tstop() called on ds1.sherrill.chemistry.gatech.edu at Thu Aug 30 16:57:21 2018
Module time:
	user time   =       3.58 seconds =       0.06 minutes
	system time =       0.11 seconds =       0.00 minutes
	total time  =          1 seconds =       0.02 minutes
Total time:
	user time   =     363.29 seconds =       6.05 minutes
	system time =      10.93 seconds =       0.18 minutes
	total time  =         71 seconds =       1.18 minutes

*** tstart() called on ds1.sherrill.chemistry.gatech.edu
*** at Thu Aug 30 16:57:21 2018


  //>>>>>>>>>>>>>>>>>>>>>>>>>>>>>>>>>>>//
  //               DFMP2               //
  //<<<<<<<<<<<<<<<<<<<<<<<<<<<<<<<<<<<//

   => Loading Basis Set <=

    Name: (AUG-CC-PVDZ AUX)
    Role: RIFIT
    Keyword: DF_BASIS_MP2
    atoms 1, 4     entry O          line   204 file /theoryfs2/ds/alenaizan/Gits/psi4/install/share/psi4/basis/aug-cc-pvdz-ri.gbs 
    atoms 2-3, 5-6 entry H          line    30 file /theoryfs2/ds/alenaizan/Gits/psi4/install/share/psi4/basis/aug-cc-pvdz-ri.gbs 

	 --------------------------------------------------------
	                          DF-MP2                         
	      2nd-Order Density-Fitted Moller-Plesset Theory     
	              RMP2 Wavefunction,   6 Threads             
	                                                         
	        Rob Parrish, Justin Turney, Andy Simmonett,      
	           Ed Hohenstein, and C. David Sherrill          
	 --------------------------------------------------------

   => Auxiliary Basis Set <=

  Basis Set: (AUG-CC-PVDZ AUX)
    Blend: AUG-CC-PVDZ-RI
    Number of shells: 80
    Number of basis function: 236
    Number of Cartesian functions: 272
    Spherical Harmonics?: true
    Max angular momentum: 3

	 --------------------------------------------------------
	                 NBF =    82, NAUX =   236
	 --------------------------------------------------------
	   CLASS    FOCC     OCC    AOCC    AVIR     VIR    FVIR
	   PAIRS       0      10      10      72      72       0
	 --------------------------------------------------------

	-----------------------------------------------------------
	 ==================> DF-MP2 Energies <==================== 
	-----------------------------------------------------------
	 Reference Energy          =    -152.1109230820967184 [Eh]
	 Singles Energy            =      -0.0000000000000018 [Eh]
	 Same-Spin Energy          =      -0.1152209705396720 [Eh]
	 Opposite-Spin Energy      =      -0.3317334449554720 [Eh]
	 Correlation Energy        =      -0.4469544154951459 [Eh]
	 Total Energy              =    -152.5578774975918748 [Eh]
	-----------------------------------------------------------
	 ================> DF-SCS-MP2 Energies <================== 
	-----------------------------------------------------------
	 SCS Same-Spin Scale       =       0.3333333333333333 [-]
	 SCS Opposite-Spin Scale   =       1.2000000000000000 [-]
	 SCS Same-Spin Energy      =      -0.0384069901798907 [Eh]
	 SCS Opposite-Spin Energy  =      -0.3980801339465663 [Eh]
	 SCS Correlation Energy    =      -0.4364871241264588 [Eh]
	 SCS Total Energy          =    -152.5474102062231907 [Eh]
	-----------------------------------------------------------


*** tstop() called on ds1.sherrill.chemistry.gatech.edu at Thu Aug 30 16:57:21 2018
Module time:
	user time   =       1.30 seconds =       0.02 minutes
	system time =       0.04 seconds =       0.00 minutes
	total time  =          0 seconds =       0.00 minutes
Total time:
	user time   =     364.60 seconds =       6.08 minutes
	system time =      10.97 seconds =       0.18 minutes
	total time  =         71 seconds =       1.18 minutes

       N-Body: Complex Energy (fragments = (2, 3), basis = (2, 3):  -152.55787749759187)

       N-Body: Computing complex (3/3) with fragments (1, 3) in the basis of fragments (1, 3).

    SCF Algorithm Type (re)set to DF.

*** tstart() called on ds1.sherrill.chemistry.gatech.edu
*** at Thu Aug 30 16:57:21 2018

   => Loading Basis Set <=

    Name: AUG-CC-PVDZ
    Role: ORBITAL
    Keyword: BASIS
    atoms 1, 4     entry O          line   250 file /theoryfs2/ds/alenaizan/Gits/psi4/install/share/psi4/basis/aug-cc-pvdz.gbs 
    atoms 2-3, 5-6 entry H          line    36 file /theoryfs2/ds/alenaizan/Gits/psi4/install/share/psi4/basis/aug-cc-pvdz.gbs 


         ---------------------------------------------------------
                                   SCF
            by Justin Turney, Rob Parrish, Andy Simmonett
                             and Daniel Smith
                              RHF Reference
                        6 Threads,    500 MiB Core
         ---------------------------------------------------------

  ==> Geometry <==

    Molecular point group: c1
    Full point group: C1

    Geometry (in Bohr), charge = 0, multiplicity = 1:

       Center              X                  Y                   Z               Mass       
    ------------   -----------------  -----------------  -----------------  -----------------
           O         -2.763261453986    -1.245333495201    -0.136492539259    15.994914619560
           H         -1.123107123986    -2.063836135201    -0.034484869259     1.007825032070
           H         -3.807452833986    -2.088611685201     1.078857190741     1.007825032070
           O          0.291750086014     3.007199814799     0.221038270741    15.994914619560
           H         -1.212059693986     1.956652564799     0.120986360741     1.007825032070
           H          0.100491276014     4.248024714799    -1.084267669259     1.007825032070

  Running in c1 symmetry.

  Rotational constants: A =      0.66279  B =      0.23433  C =      0.17639 [cm^-1]
  Rotational constants: A =  19869.84793  B =   7025.12196  C =   5288.12029 [MHz]
  Nuclear repulsion =   37.415382693305894

  Charge       = 0
  Multiplicity = 1
  Electrons    = 20
  Nalpha       = 10
  Nbeta        = 10

  ==> Algorithm <==

  SCF Algorithm Type is DF.
  DIIS enabled.
  MOM disabled.
  Fractional occupation disabled.
  Guess Type is SAD.
  Energy threshold   = 1.00e-08
  Density threshold  = 1.00e-08
  Integral threshold = 0.00e+00

  ==> Primary Basis <==

  Basis Set: AUG-CC-PVDZ
    Blend: AUG-CC-PVDZ
    Number of shells: 38
    Number of basis function: 82
    Number of Cartesian functions: 86
    Spherical Harmonics?: true
    Max angular momentum: 2

   => Loading Basis Set <=

    Name: (AUG-CC-PVDZ AUX)
    Role: JKFIT
    Keyword: DF_BASIS_SCF
    atoms 1, 4     entry O          line   270 file /theoryfs2/ds/alenaizan/Gits/psi4/install/share/psi4/basis/aug-cc-pvdz-jkfit.gbs 
    atoms 2-3, 5-6 entry H          line    70 file /theoryfs2/ds/alenaizan/Gits/psi4/install/share/psi4/basis/aug-cc-pvdz-jkfit.gbs 

  ==> Pre-Iterations <==

   -------------------------------------------------------
    Irrep   Nso     Nmo     Nalpha   Nbeta   Ndocc  Nsocc
   -------------------------------------------------------
     A         82      82       0       0       0       0
   -------------------------------------------------------
    Total      82      82      10      10      10       0
   -------------------------------------------------------

  ==> Integral Setup <==

  ==> MemDFJK: Density-Fitted J/K Matrices <==

    J tasked:                   Yes
    K tasked:                   Yes
    wK tasked:                   No
    OpenMP threads:               6
    Memory (MB):                375
    Algorithm:                 Core
    Schwarz Cutoff:           1E-12
    Mask sparsity (%):       0.0000
    Fitting Condition:        1E-12

   => Auxiliary Basis Set <=

  Basis Set: (AUG-CC-PVDZ AUX)
    Blend: AUG-CC-PVDZ-JKFIT
    Number of shells: 104
    Number of basis function: 300
    Number of Cartesian functions: 342
    Spherical Harmonics?: true
    Max angular momentum: 3

   => External Potential Field:  <= 

    > Charges [a.u.] < 

              Z          x          y          z
       -0.83400    2.46972   -1.75593   -0.15298
        0.41700    3.76415   -2.21581    1.02641
        0.41700    2.30645    0.06943   -0.02147

  Old nuclear repulsion        =   37.415382693305894
  Additional nuclear repulsion =    0.021506139274321
  Total nuclear repulsion      =   37.436888832580216

  Minimum eigenvalue in the overlap matrix is 1.6752092724E-03.
  Using Symmetric Orthogonalization.

  SCF Guess: Superposition of Atomic Densities via on-the-fly atomic UHF.

  ==> Iterations <==

                           Total Energy        Delta E     RMS |[F,P]|

   @DF-RHF iter   0:  -151.99782491008528   -1.51998e+02   7.14032e-02 
   @DF-RHF iter   1:  -152.04367575043503   -4.58508e-02   1.12129e-02 
   @DF-RHF iter   2:  -152.09526069898666   -5.15849e-02   5.83105e-03 DIIS
   @DF-RHF iter   3:  -152.10970919539309   -1.44485e-02   1.11563e-03 DIIS
   @DF-RHF iter   4:  -152.11092022207293   -1.21103e-03   3.24468e-04 DIIS
   @DF-RHF iter   5:  -152.11109764986529   -1.77428e-04   8.81935e-05 DIIS
   @DF-RHF iter   6:  -152.11111267508159   -1.50252e-05   2.62407e-05 DIIS
   @DF-RHF iter   7:  -152.11111329837070   -6.23289e-07   9.03247e-06 DIIS
   @DF-RHF iter   8:  -152.11111339452140   -9.61507e-08   1.64167e-06 DIIS
   @DF-RHF iter   9:  -152.11111339874540   -4.22401e-09   3.88667e-07 DIIS
   @DF-RHF iter  10:  -152.11111339897212   -2.26720e-10   7.07617e-08 DIIS
   @DF-RHF iter  11:  -152.11111339897943   -7.30438e-12   9.62717e-09 DIIS

  ==> Post-Iterations <==

    Orbital Energies [Eh]
    ---------------------

    Doubly Occupied:                                                      

       1A    -20.580289     2A    -20.566975     3A     -1.360736  
       4A     -1.342220     5A     -0.729813     6A     -0.704804  
       7A     -0.600196     8A     -0.571378     9A     -0.513962  
      10A     -0.503194  

    Virtual:                                                              

      11A      0.037072    12A      0.051570    13A      0.073641  
      14A      0.088296    15A      0.163205    16A      0.186243  
      17A      0.206151    18A      0.218414    19A      0.227656  
      20A      0.242619    21A      0.272436    22A      0.290094  
      23A      0.313968    24A      0.340370    25A      0.355108  
      26A      0.380474    27A      0.422825    28A      0.440602  
      29A      0.443001    30A      0.498450    31A      0.531829  
      32A      0.561651    33A      0.592247    34A      0.618642  
      35A      0.663210    36A      0.679302    37A      0.718224  
      38A      0.761814    39A      0.857597    40A      0.891905  
      41A      0.971164    42A      0.989100    43A      1.107526  
      44A      1.116181    45A      1.132090    46A      1.183075  
      47A      1.199084    48A      1.262846    49A      1.351934  
      50A      1.390768    51A      1.466736    52A      1.479520  
      53A      1.571353    54A      1.620577    55A      1.677585  
      56A      1.845067    57A      2.012963    58A      2.015467  
      59A      2.079752    60A      2.121850    61A      2.169351  
      62A      2.261826    63A      2.374429    64A      2.469241  
      65A      2.496503    66A      2.564268    67A      2.633198  
      68A      2.738231    69A      2.760525    70A      2.859865  
      71A      2.991390    72A      3.072804    73A      3.687989  
      74A      3.696055    75A      3.702327    76A      3.716245  
      77A      3.744776    78A      3.857600    79A      4.062768  
      80A      4.108470    81A      4.331572    82A      4.373011  

    Final Occupation by Irrep:
              A 
    DOCC [    10 ]

  Energy converged.

  @DF-RHF Final Energy:  -152.11111339897943

   => Energetics <=

    Nuclear Repulsion Energy =             37.4368888325802160
    One-Electron Energy =                -284.1488685299896702
    Two-Electron Energy =                  94.6008662984300059
    Total Energy =                       -152.1111133989794553



Properties will be evaluated at   0.000000,   0.000000,   0.000000 [a0]

Properties computed using the SCF density matrix

  Nuclear Dipole Moment: [e a0]
     X:   -25.8142      Y:    16.1472      Z:     0.7575

  Electronic Dipole Moment: [e a0]
     X:    25.3066      Y:   -16.8515      Z:    -0.8196

  Dipole Moment: [e a0]
     X:    -0.5077      Y:    -0.7044      Z:    -0.0622     Total:     0.8705

  Dipole Moment: [D]
     X:    -1.2904      Y:    -1.7903      Z:    -0.1580     Total:     2.2125


*** tstop() called on ds1.sherrill.chemistry.gatech.edu at Thu Aug 30 16:57:22 2018
Module time:
	user time   =       3.57 seconds =       0.06 minutes
	system time =       0.10 seconds =       0.00 minutes
	total time  =          1 seconds =       0.02 minutes
Total time:
	user time   =     368.21 seconds =       6.14 minutes
	system time =      11.07 seconds =       0.18 minutes
	total time  =         72 seconds =       1.20 minutes

*** tstart() called on ds1.sherrill.chemistry.gatech.edu
*** at Thu Aug 30 16:57:22 2018


  //>>>>>>>>>>>>>>>>>>>>>>>>>>>>>>>>>>>//
  //               DFMP2               //
  //<<<<<<<<<<<<<<<<<<<<<<<<<<<<<<<<<<<//

   => Loading Basis Set <=

    Name: (AUG-CC-PVDZ AUX)
    Role: RIFIT
    Keyword: DF_BASIS_MP2
    atoms 1, 4     entry O          line   204 file /theoryfs2/ds/alenaizan/Gits/psi4/install/share/psi4/basis/aug-cc-pvdz-ri.gbs 
    atoms 2-3, 5-6 entry H          line    30 file /theoryfs2/ds/alenaizan/Gits/psi4/install/share/psi4/basis/aug-cc-pvdz-ri.gbs 

	 --------------------------------------------------------
	                          DF-MP2                         
	      2nd-Order Density-Fitted Moller-Plesset Theory     
	              RMP2 Wavefunction,   6 Threads             
	                                                         
	        Rob Parrish, Justin Turney, Andy Simmonett,      
	           Ed Hohenstein, and C. David Sherrill          
	 --------------------------------------------------------

   => Auxiliary Basis Set <=

  Basis Set: (AUG-CC-PVDZ AUX)
    Blend: AUG-CC-PVDZ-RI
    Number of shells: 80
    Number of basis function: 236
    Number of Cartesian functions: 272
    Spherical Harmonics?: true
    Max angular momentum: 3

	 --------------------------------------------------------
	                 NBF =    82, NAUX =   236
	 --------------------------------------------------------
	   CLASS    FOCC     OCC    AOCC    AVIR     VIR    FVIR
	   PAIRS       0      10      10      72      72       0
	 --------------------------------------------------------

	-----------------------------------------------------------
	 ==================> DF-MP2 Energies <==================== 
	-----------------------------------------------------------
	 Reference Energy          =    -152.1111133989794268 [Eh]
	 Singles Energy            =      -0.0000000000000127 [Eh]
	 Same-Spin Energy          =      -0.1151997964713668 [Eh]
	 Opposite-Spin Energy      =      -0.3316983671155683 [Eh]
	 Correlation Energy        =      -0.4468981635869479 [Eh]
	 Total Energy              =    -152.5580115625663780 [Eh]
	-----------------------------------------------------------
	 ================> DF-SCS-MP2 Energies <================== 
	-----------------------------------------------------------
	 SCS Same-Spin Scale       =       0.3333333333333333 [-]
	 SCS Opposite-Spin Scale   =       1.2000000000000000 [-]
	 SCS Same-Spin Energy      =      -0.0383999321571223 [Eh]
	 SCS Opposite-Spin Energy  =      -0.3980380405386820 [Eh]
	 SCS Correlation Energy    =      -0.4364379726958170 [Eh]
	 SCS Total Energy          =    -152.5475513716752403 [Eh]
	-----------------------------------------------------------


*** tstop() called on ds1.sherrill.chemistry.gatech.edu at Thu Aug 30 16:57:22 2018
Module time:
	user time   =       1.29 seconds =       0.02 minutes
	system time =       0.05 seconds =       0.00 minutes
	total time  =          0 seconds =       0.00 minutes
Total time:
	user time   =     369.51 seconds =       6.16 minutes
	system time =      11.12 seconds =       0.19 minutes
	total time  =         72 seconds =       1.20 minutes

       N-Body: Complex Energy (fragments = (1, 3), basis = (1, 3):  -152.55801156256638)

   ==> N-Body: Valiron-Mayer Function Couterpoise (VMFC) energies <==

   n-Body     Total Energy [Eh]       I.E. [kcal/mol]      Delta [kcal/mol]
        1     -228.857319084829                   nan        0.000000000000
        2     -228.881454412752                   nan      -15.145147557694

   => Loading Basis Set <=

    Name: DEF2-SVP
    Role: ORBITAL
    Keyword: BASIS
    atoms 1, 4, 7       entry O          line   130 file /theoryfs2/ds/alenaizan/Gits/psi4/install/share/psi4/basis/def2-svp.gbs 
    atoms 2-3, 5-6, 8-9 entry H          line    15 file /theoryfs2/ds/alenaizan/Gits/psi4/install/share/psi4/basis/def2-svp.gbs 

	Electrostatically embedded many-body expansion....................PASSED
	Electrostatically embedded many-body expansion....................PASSED

    Psi4 stopped on: Thursday, 30 August 2018 04:57PM
    Psi4 wall time for execution: 0:01:12.05

*** Psi4 exiting successfully. Buy a developer a beer!
