    -----------------------------------------------------------------------
          PSI4: An Open-Source Ab Initio Electronic Structure Package
                              PSI 4.0.0-beta1 Driver

    J. M. Turney, A. C. Simmonett, R. M. Parrish, E. G. Hohenstein,
    F. Evangelista, J. T. Fermann, B. J. Mintz, L. A. Burns, J. J. Wilke,
    M. L. Abrams, N. J. Russ, M. L. Leininger, C. L. Janssen, E. T. Seidl,
    W. D. Allen, H. F. Schaefer, R. A. King, E. F. Valeev, C. D. Sherrill,
    and T. D. Crawford, WIREs Comput. Mol. Sci., (2011) (doi: 10.1002/wcms.93)

                         Additional Contributions by
    A. E. DePrince, M. Saitow, U. Bozkaya, A. Yu. Sokolov
    -----------------------------------------------------------------------


    Using LocalCommunicator (Number of processes = 1)

    Memory level set to 256.000 MB

  ==> Input File <==

--------------------------------------------------------------------------

memory 250 mb

molecule smo { #structure from Pederson et al., CPL
  C     0.210991841737     0.047663662717     0.483960886619
  C    -0.960965312103     0.688519555303    -0.115848688934
  C     1.558206749694     0.047460114159    -0.180267436891
  O    -0.815251456906    -0.734986972268    -0.138532905591
  H     0.223550547304    -0.045637654519     1.567373484970
  H    -1.759483315918     1.063259112311     0.516330435381
  H    -0.862256972568     1.177986074652    -1.079897880020
  H     2.088617117792    -0.883541600456     0.026321487274
  H     2.169362364888     0.872235726981     0.192209317060
  H     1.455347299576     0.149768052462    -1.260354487995
noreorient
}

set {
  property rotation
  omega [633, 355, nm]
  gauge both
  freeze_core true
  basis STO-3G
}

response('ccsd')
--------------------------------------------------------------------------

  Memory set to 250.000 MiB by Python script.

*** tstart() called on QuickSilver.local
*** at Mon Jan 23 15:09:15 2012

	There are an even number of electrons - assuming singlet.
	Specify the multiplicity with the MULTP option in the
	input if this is incorrect


         ---------------------------------------------------------
                                   SCF
            by Justin Turney, Rob Parrish, and Andy Simmonett
                              RHF Reference
                        1 Threads,    250 MiB Core
         ---------------------------------------------------------

  ==> Geometry <==

    Molecular point group: c1

    Geometry (in Angstrom), charge = 0, multiplicity = 1:

       Center              X                  Y                   Z       
    ------------   -----------------  -----------------  -----------------
           C          0.210991841737     0.047663662717     0.483960886619
           C         -0.960965312103     0.688519555303    -0.115848688934
           C          1.558206749694     0.047460114159    -0.180267436891
           O         -0.815251456906    -0.734986972268    -0.138532905591
           H          0.223550547304    -0.045637654519     1.567373484970
           H         -1.759483315918     1.063259112311     0.516330435381
           H         -0.862256972568     1.177986074652    -1.079897880020
           H          2.088617117792    -0.883541600456     0.026321487274
           H          2.169362364888     0.872235726981     0.192209317060
           H          1.455347299576     0.149768052462    -1.260354487995

    Number of unique atoms: 10

    Atoms equivalency:
       unique atom 0: 0 
       unique atom 1: 1 
       unique atom 2: 2 
       unique atom 3: 3 
       unique atom 4: 4 
       unique atom 5: 5 
       unique atom 6: 6 
       unique atom 7: 7 
       unique atom 8: 8 
       unique atom 9: 9 

  Running in c1 symmetry.

  Nuclear repulsion =  124.788534121263865

  Charge       = 0
  Multiplicity = 1
  Electrons    = 32
  Nalpha       = 16
  Nbeta        = 16

  ==> Algorithm <==

  SCF Algorithm Type is PK.
  DIIS enabled.
  MOM disabled.
  Fractional occupation disabled.
  Guess Type is CORE.
  Energy threshold   = 1.00e-08
  Density threshold  = 1.00e-08
  Integral threshold = 0.00e+00

  ==> Primary Basis: STO-3G <==

  Basis Set
    Number of shells: 18
    Number of basis function: 26
    Number of Cartesian functions: 26
    Spherical Harmonics?: true
    Max angular momentum: 1

  ==> Pre-Iterations <==

  Minimum eigenvalue in the overlap matrix is 2.0902507179E-01.
  Using Symmetric Orthogonalization.
  SCF Guess: Core (One-Electron) Hamiltonian.

  Initial RHF energy:  -143.29386230779903

   -------------------------------------------------------
    Irrep   Nso     Nmo     Nalpha   Nbeta   Ndocc  Nsocc
   -------------------------------------------------------
     A         26      26      16      16      16       0
   -------------------------------------------------------
    Total      26      26      16      16      16       0
   -------------------------------------------------------

  ==> Integral Setup <==

 MINTS: Wrapper to libmints.
   by Justin Turney

   Calculation information:
      Number of atoms:                  10
      Number of AO shells:              18
      Number of SO shells:              18
      Number of primitives:             54
      Number of atomic orbitals:        26
      Number of basis functions:        26

      Number of irreps:                  1
      Number of functions per irrep: [  26 ]

      Overlap, kinetic, potential, dipole, and quadrupole integrals
        stored in file 35.

      Computing two-electron integrals...done
      Computed 60720 non-zero two-electron integrals.
        Stored in file 33.

  ==> Iterations <==

                        Total Energy        Delta E     Density RMS

   @RHF iter   1:  -171.29770901863424   -2.80038e+01   0.00000e+00 
   @RHF iter   2:  -167.97481929054288    3.32289e+00   3.19252e-01 DIIS
   @RHF iter   3:  -188.49224725660724   -2.05174e+01   2.23450e-01 DIIS
   @RHF iter   4:  -189.07347626315686   -5.81229e-01   3.82030e-02 DIIS
   @RHF iter   5:  -189.19622702011327   -1.22751e-01   1.20165e-02 DIIS
   @RHF iter   6:  -189.40514050692843   -2.08913e-01   1.63129e-02 DIIS
   @RHF iter   7:  -189.49760626594724   -9.24658e-02   1.18651e-02 DIIS
   @RHF iter   8:  -189.51238733186437   -1.47811e-02   5.46871e-03 DIIS
   @RHF iter   9:  -189.51340789361109   -1.02056e-03   1.72110e-03 DIIS
   @RHF iter  10:  -189.51341601946513   -8.12585e-06   1.75947e-04 DIIS
   @RHF iter  11:  -189.51341715793717   -1.13847e-06   5.72232e-05 DIIS
   @RHF iter  12:  -189.51341723308769   -7.51505e-08   1.72902e-05 DIIS
   @RHF iter  13:  -189.51341723746032   -4.37262e-09   4.45934e-06 DIIS
   @RHF iter  14:  -189.51341723757696   -1.16643e-10   7.16716e-07 DIIS
   @RHF iter  15:  -189.51341723758048   -3.52429e-12   1.14739e-07 DIIS
   @RHF iter  16:  -189.51341723758043    5.68434e-14   2.57419e-08 DIIS

  ==> Post-Iterations <==

	Orbital Energies (a.u.)
	-----------------------

	Doubly Occupied:                                                      

	   1A    -20.280858     2A    -11.097188     3A    -11.087381  
	   4A    -11.052915     5A     -1.350987     6A     -0.970429  
	   7A     -0.859865     8A     -0.772265     9A     -0.652106  
	  10A     -0.586045    11A     -0.550913    12A     -0.519890  
	  13A     -0.483933    14A     -0.444905    15A     -0.370357  
	  16A     -0.356780  

	Virtual:                                                              

	  17A      0.452981    18A      0.575949    19A      0.620340  
	  20A      0.661293    21A      0.688922    22A      0.701322  
	  23A      0.731008    24A      0.743161    25A      0.833770  
	  26A      0.855193  

	Final Occupation by Irrep:
	          A 
	DOCC [    16 ]

  Energy converged.

  @RHF Final Energy:  -189.51341723758043

  ==> Properties <==
  Nuclear Dipole Moment: (a.u.)
     X:     3.1039      Y:     2.1846      Z:    -0.0363

  Electronic Dipole Moment: (a.u.)
     X:    -2.8119      Y:    -1.6853      Z:     0.1750

  Dipole Moment: (a.u.)
     X:     0.2920      Y:     0.4993      Z:     0.1387     Total:     0.5948

  Dipole Moment: (Debye)
     X:     0.7422      Y:     1.2690      Z:     0.3525     Total:     1.5118


  Saving occupied orbitals to File 180.

*** tstop() called on QuickSilver.local at Mon Jan 23 15:09:15 2012
Module time:
	user time   =       0.35 seconds =       0.01 minutes
	system time =       0.01 seconds =       0.00 minutes
	total time  =          0 seconds =       0.00 minutes
Total time:
	user time   =       0.35 seconds =       0.01 minutes
	system time =       0.01 seconds =       0.00 minutes
	total time  =          0 seconds =       0.00 minutes

*** tstart() called on QuickSilver.local
*** at Mon Jan 23 15:09:15 2012


	**************************************************
	* TRANSQT2: Program to transform integrals from  *
	*           the SO basis to the MO basis.        *
	*                                                *
	*            Daniel, David, & Justin             *
	**************************************************


	Input parameters:
	-----------------
	Wave function   =	CCSD
	Backtransform   =	No
	Print Level     =	1
	Print TEIs      =	No
	Reference wfn   =	RHF
	Derivative      =	Response
	Delete TEI File =	Yes
	Memory (Mbytes) =	250.0
	Cache Level     =	2
	Cache Type      =	LRU
	Chkpt Parameters:
	--------------------
	Number of irreps     = 1
	Number of SOs        = 26
	Number of MOs        = 26
	Number of active MOs = 22

	Label	# SOs	# FZDC	# DOCC	# SOCC	# VIRT	# FZVR
	-----	-----	------	------	------	------	------
	 A	   26	    4	    12	    0	    10	    0

	Nuclear Rep. energy (chkpt) =    124.78853412126387
	SCF energy          (chkpt) =   -189.51341723758043

	Presorting SO-basis two-electron integrals.
	Sorting File: SO Ints (pq,rs) nbuckets = 1
	Frozen-core energy = -209.079836135210257
	Starting first half-transformation.
	Sorting half-transformed integrals.
	Starting second half-transformation.
	Two-electron integral transformation complete.

*** tstop() called on QuickSilver.local at Mon Jan 23 15:09:15 2012
Module time:
	user time   =       0.04 seconds =       0.00 minutes
	system time =       0.02 seconds =       0.00 minutes
	total time  =          0 seconds =       0.00 minutes
Total time:
	user time   =       0.39 seconds =       0.01 minutes
	system time =       0.03 seconds =       0.00 minutes
	total time  =          0 seconds =       0.00 minutes

*** tstart() called on QuickSilver.local
*** at Mon Jan 23 15:09:15 2012


			**************************
			*                        *
			*         CCSORT         *
			*                        *
			**************************


	Input parameters:
	-----------------
	Wave function   =	CCSD
	Reference wfn   =	RHF
	Derivative      =	Response
	Memory (Mbytes) =	250.0
	AO Basis        =	NONE
	Make (ab|cd)    =	True
	Make unpacked (ab|cd) =	False
	Cache Level     =	2
	Cache Type      =	LRU
	Local CC        =     No


	Chkpt Parameters:
	--------------------
	Number of irreps     = 1
	Number of MOs        = 26
	Number of active MOs = 22

	Label	# MOs	# FZDC	# DOCC	# SOCC	# VIRT	# FZVR
	-----	-----	------	------	------	------	------
	 A	   26	    4	    12	    0	    10	    0

	Nuclear Rep. energy (chkpt) =    124.78853412126387
	SCF energy          (chkpt) =   -189.51341723758043

	Size of irrep 0 of <ab|cd> integrals:      0.010 (MW) /      0.080 (MB)
	Total:                                     0.010 (MW) /      0.080 (MB)

	Size of irrep 0 of <ia|bc> integrals:      0.012 (MW) /      0.096 (MB)
	Total:                                     0.012 (MW) /      0.096 (MB)

	Size of irrep 0 of tijab amplitudes:       0.014 (MW) /      0.115 (MB)
	Total:                                     0.014 (MW) /      0.115 (MB)


	Sorting File: A <ij|kl> nbuckets = 1
	Sorting File: B(+) <ab|cd> nbuckets = 1
	Sorting File: C <ia|jb> nbuckets = 1
	Sorting File: D <ij|ab> nbuckets = 1
	Sorting File: E <ai|jk> nbuckets = 1
	Sorting File: F <ia|bc> nbuckets = 1
	One-electron energy          =   -194.60728307746655
	Two-electron (AA) energy     =     39.61731807435117
	Two-electron (BB) energy     =     39.61731807435117
	Two-electron (AB) energy     =     49.76784977948100
	Two-electron energy          =     89.38516785383217
	Frozen-core energy (transqt) =   -209.07983613521026
	Reference energy             =   -189.51341723758077

*** tstop() called on QuickSilver.local at Mon Jan 23 15:09:16 2012
Module time:
	user time   =       0.02 seconds =       0.00 minutes
	system time =       0.05 seconds =       0.00 minutes
	total time  =          1 seconds =       0.02 minutes
Total time:
	user time   =       0.41 seconds =       0.01 minutes
	system time =       0.08 seconds =       0.00 minutes
	total time  =          1 seconds =       0.02 minutes

*** tstart() called on QuickSilver.local
*** at Mon Jan 23 15:09:16 2012

			**************************
			*                        *
			*        CCENERGY        *
			*                        *
			**************************

	Nuclear Rep. energy (chkpt)   =  124.788534121263865
	SCF energy          (chkpt)   = -189.513417237580427
	Reference energy    (file100) = -189.513417237580768

	Input parameters:
	-----------------
	Wave function   =     CCSD
	Reference wfn   =     RHF
	Memory (Mbytes) =     250.0
	Maxiter         =     50
	Convergence     =     1.0e-07
	Restart         =     No
	DIIS            =     Yes
	AO Basis        =     NONE
	ABCD            =     NEW
	Cache Level     =     2
	Cache Type      =     LOW
	Print Level     =     1
	Num. of threads =     1
	# Amps to Print =     10
	Print MP2 Amps? =     No
	Analyze T2 Amps =     No
	Print Pair Ener =     No
	Local CC        =     No
	SCS-MP2         =     False
	SCSN-MP2        =     False
	SCS-CCSD        =     False

	            Solving CC Amplitude Equations
	            ------------------------------
  Iter             Energy              RMS        T1Diag      D1Diag    New D1Diag
  ----     ---------------------    ---------   ----------  ----------  ----------
     0        -0.198498353992664    0.000e+00    0.000000    0.000000    0.000000
     1        -0.237008933371059    7.197e-02    0.005013    0.019208    0.019208
     2        -0.254270371877308    2.556e-02    0.005982    0.022682    0.022682
     3        -0.255782956673786    5.592e-03    0.006458    0.025003    0.025003
     4        -0.256080298158459    1.875e-03    0.006481    0.025202    0.025202
     5        -0.256086467615973    4.302e-04    0.006487    0.025253    0.025253
     6        -0.256081473661441    9.732e-05    0.006489    0.025260    0.025260
     7        -0.256081021832004    2.919e-05    0.006488    0.025256    0.025256
     8        -0.256081381402334    1.108e-05    0.006488    0.025254    0.025254
     9        -0.256081420988290    3.133e-06    0.006488    0.025253    0.025253
    10        -0.256081359585248    1.163e-06    0.006488    0.025253    0.025253
    11        -0.256081358457812    4.446e-07    0.006488    0.025253    0.025253
    12        -0.256081369410957    1.783e-07    0.006488    0.025253    0.025253
    13        -0.256081375929917    5.451e-08    0.006488    0.025253    0.025253

	Iterations converged.


	Largest TIA Amplitudes:
	         11   2         0.0172860495
	         11   3        -0.0101252526
	          9   0         0.0093896167
	         11   5         0.0079607046
	         11   1        -0.0067478059
	          2   1         0.0067121222
	          4   2        -0.0059054302
	         10   1        -0.0053242126
	         10   2        -0.0053113309
	          4   1         0.0046921661

	Largest TIjAb Amplitudes:
	 10  10   0   0        -0.0729527861
	  9   9   0   0        -0.0599470141
	  6   6   6   6        -0.0458883500
	  9  10   0   1         0.0399836405
	 10   9   1   0         0.0399836405
	 10  10   1   1        -0.0353807685
	  9  10   1   0         0.0308742303
	 10   9   0   1         0.0308742303
	  8   8   2   2        -0.0255613073
	  9   9   1   1        -0.0225414591

	SCF energy       (chkpt)              = -189.513417237580427
	Reference energy (file100)            = -189.513417237580768

	Opposite-spin MP2 correlation energy  =   -0.172369087003131
	Same-spin MP2 correlation energy      =   -0.026129266989533
	MP2 correlation energy                =   -0.198498353992664
      * MP2 total energy                      = -189.711915591573444

	Opposite-spin CCSD correlation energy =   -0.233276058450593
	Same-spin CCSD correlation energy     =   -0.022805317594474
	CCSD correlation energy               =   -0.256081375929917
      * CCSD total energy                     = -189.769498613510677


*** tstop() called on QuickSilver.local at Mon Jan 23 15:09:19 2012
Module time:
	user time   =       0.61 seconds =       0.01 minutes
	system time =       0.34 seconds =       0.01 minutes
	total time  =          3 seconds =       0.05 minutes
Total time:
	user time   =       1.03 seconds =       0.02 minutes
	system time =       0.42 seconds =       0.01 minutes
	total time  =          4 seconds =       0.07 minutes

*** tstart() called on QuickSilver.local
*** at Mon Jan 23 15:09:19 2012


			**************************
			*                        *
			*         CCHBAR         *
			*                        *
			**************************


*** tstop() called on QuickSilver.local at Mon Jan 23 15:09:19 2012
Module time:
	user time   =       0.05 seconds =       0.00 minutes
	system time =       0.04 seconds =       0.00 minutes
	total time  =          0 seconds =       0.00 minutes
Total time:
	user time   =       1.08 seconds =       0.02 minutes
	system time =       0.46 seconds =       0.01 minutes
	total time  =          4 seconds =       0.07 minutes

*** tstart() called on QuickSilver.local
*** at Mon Jan 23 15:09:19 2012


			**************************
			*        CCLAMBDA        *
			**************************


	Nuclear Rep. energy (chkpt)   =  124.788534121263865
	Reference           (chkpt)   = 0
	SCF energy          (chkpt)   = -189.513417237580427
	Reference energy    (CC_INFO) = -189.513417237580768
	CCSD energy         (CC_INFO) =   -0.256081375929917
	Total CCSD energy   (CC_INFO) = -189.769498613510677

	Input parameters:
	-----------------
	Maxiter       =      50
	Convergence   = 1.0e-07
	Restart       =     No
	Cache Level   =     2
	Model III     =     No
	DIIS          =     Yes
	AO Basis      =     No
	ABCD            =     NEW
	Local CC        =     No
	Paramaters for left-handed eigenvectors:
	    Irr   Root  Ground-State?    EOM energy        R0
	  1   0     0        Yes       0.0000000000   1.0000000000
	Labels for eigenvector 1:
	LIA 0 -1, Lia 0 -1, LIJAB 0 -1, Lijab 0 -1, LIjAb 0 -1, 2LIjAb - LIjbA 0 -1
	Deleting old CC_LAMBDA data.
	Symmetry of left-hand state: A
	Symmetry of left-hand eigenvector: A

	          Solving Lambda Equations
	          ------------------------
	Iter     PseudoEnergy or Norm         RMS  
	----     ---------------------     --------
	   0        -0.256237910289306    0.000e+00
	   1        -0.252169337304383    1.810e-02
	   2        -0.250666632108254    3.407e-03
	   3        -0.250393618959701    1.323e-03
	   4        -0.250341130912428    4.043e-04
	   5        -0.250345489851977    1.111e-04
	   6        -0.250347132444650    2.990e-05
	   7        -0.250347368291641    8.505e-06
	   8        -0.250347455957617    3.205e-06
	   9        -0.250347484561626    1.342e-06
	  10        -0.250347488521467    5.614e-07
	  11        -0.250347483462942    2.263e-07
	  12        -0.250347480135966    7.511e-08

	Largest LIA Amplitudes:
	         11   2         0.0118111429
	         11   3        -0.0069061003
	         11   5         0.0053763855
	          2   1         0.0052385556
	         11   1        -0.0038870460
	          0   1        -0.0037819857
	          9   0         0.0036545307
	          1   1         0.0034939140
	          4   2        -0.0032795872
	         11   4        -0.0027053334

	Largest LIjAb Amplitudes:
	 10  10   0   0        -0.0698116805
	  9   9   0   0        -0.0569655613
	  6   6   6   6        -0.0455822741
	  9  10   0   1         0.0384444654
	 10   9   1   0         0.0384444654
	 10  10   1   1        -0.0342780644
	  9  10   1   0         0.0298886039
	 10   9   0   1         0.0298886039
	  8   8   2   2        -0.0251518877
	  9   9   1   1        -0.0223865014

	Iterations converged.

	Overlap <L|e^T> =        0.86083040957

*** tstop() called on QuickSilver.local at Mon Jan 23 15:09:20 2012
Module time:
	user time   =       0.22 seconds =       0.00 minutes
	system time =       0.09 seconds =       0.00 minutes
	total time  =          1 seconds =       0.02 minutes
Total time:
	user time   =       1.30 seconds =       0.02 minutes
	system time =       0.55 seconds =       0.01 minutes
	total time  =          5 seconds =       0.08 minutes

*** tstart() called on QuickSilver.local
*** at Mon Jan 23 15:09:20 2012

			**************************
			*                        *
			*       ccresponse       *
			*                        *
			**************************

	Input parameters:
	-----------------
	Property         =    ROTATION
	Reference wfn    =      RHF
	Memory (Mbytes)  =  250.0
	Cache Level      =    0
	Print Level      =    1
	Maxiter          =     50
	Convergence      = 1.0e-07
	Restart          =     Allowed
	DIIS             =     Yes
	Model III        =     No
	Linear Model     =     No
	ABCD             =     NEW
	Irrep X          =      A
	Irrep Y          =      A
	Irrep Z          =      A
	Irrep RX         =      A
	Irrep RY         =      A
	Irrep RZ         =      A
	Gauge            =    BOTH
	Applied field  0 =    0.072 E_h (633.00 nm, 1.959 eV, 15797.79 cm-1)
	Applied field  1 =    0.128 E_h (355.00 nm, 3.493 eV, 28169.01 cm-1)
	Analyze X2 Amps  =    No
	Local CC         =    No

    Molecular point group: c1

    Geometry (in Angstrom), charge = 0, multiplicity = 1:

       Center              X                  Y                   Z       
    ------------   -----------------  -----------------  -----------------
           C          0.210991841737     0.047663662717     0.483960886619
           C         -0.960965312103     0.688519555303    -0.115848688934
           C          1.558206749694     0.047460114159    -0.180267436891
           O         -0.815251456906    -0.734986972268    -0.138532905591
           H          0.223550547304    -0.045637654519     1.567373484970
           H         -1.759483315918     1.063259112311     0.516330435381
           H         -0.862256972568     1.177986074652    -1.079897880020
           H          2.088617117792    -0.883541600456     0.026321487274
           H          2.169362364888     0.872235726981     0.192209317060
           H          1.455347299576     0.149768052462    -1.260354487995

    Number of unique atoms: 10

    Atoms equivalency:
       unique atom 0: 0 
       unique atom 1: 1 
       unique atom 2: 2 
       unique atom 3: 3 
       unique atom 4: 4 
       unique atom 5: 5 
       unique atom 6: 6 
       unique atom 7: 7 
       unique atom 8: 8 
       unique atom 9: 9 

  -AO BASIS SET INFORMATION:
    Total number of shells = 18
    Number of primitives   = 54
    Number of AO           = 26
    Number of SO           = 26
    Maximum AM             = 1
    Spherical Harmonics    = TRUE

  -Contraction Scheme:
    Atom   Type   All Primitives // Shells:
   ------ ------ --------------------------
       1     C     6s 3p // 2s 1p 
       2     C     6s 3p // 2s 1p 
       3     C     6s 3p // 2s 1p 
       4     O     6s 3p // 2s 1p 
       5     H     3s // 1s 
       6     H     3s // 1s 
       7     H     3s // 1s 
       8     H     3s // 1s 
       9     H     3s // 1s 
      10     H     3s // 1s 

  -Basis set on unique center 1: C
     S (         71.61683700           2.70781445)
       (         13.04509600           2.61888016)
       (          3.53051220           0.81619058)
     S (          2.94124940          -0.16001719)
       (          0.68348310           0.21403592)
       (          0.22228990           0.16153609)
     P (          2.94124940           0.85604451)
       (          0.68348310           0.53830377)
       (          0.22228990           0.08527635)

  -Basis set on unique center 2: C
     S (         71.61683700           2.70781445)
       (         13.04509600           2.61888016)
       (          3.53051220           0.81619058)
     S (          2.94124940          -0.16001719)
       (          0.68348310           0.21403592)
       (          0.22228990           0.16153609)
     P (          2.94124940           0.85604451)
       (          0.68348310           0.53830377)
       (          0.22228990           0.08527635)

  -Basis set on unique center 3: C
     S (         71.61683700           2.70781445)
       (         13.04509600           2.61888016)
       (          3.53051220           0.81619058)
     S (          2.94124940          -0.16001719)
       (          0.68348310           0.21403592)
       (          0.22228990           0.16153609)
     P (          2.94124940           0.85604451)
       (          0.68348310           0.53830377)
       (          0.22228990           0.08527635)

  -Basis set on unique center 4: O
     S (        130.70932000           4.25194328)
       (         23.80886100           4.11229372)
       (          6.44360830           1.28162253)
     S (          5.03315130          -0.23941300)
       (          1.16959610           0.32023423)
       (          0.38038900           0.24168557)
     P (          5.03315130           1.67545012)
       (          1.16959610           1.05356801)
       (          0.38038900           0.16690290)

  -Basis set on unique center 5: H
     S (          3.42525091           0.27693436)
       (          0.62391373           0.26783885)
       (          0.16885540           0.08347367)

  -Basis set on unique center 6: H
     S (          3.42525091           0.27693436)
       (          0.62391373           0.26783885)
       (          0.16885540           0.08347367)

  -Basis set on unique center 7: H
     S (          3.42525091           0.27693436)
       (          0.62391373           0.26783885)
       (          0.16885540           0.08347367)

  -Basis set on unique center 8: H
     S (          3.42525091           0.27693436)
       (          0.62391373           0.26783885)
       (          0.16885540           0.08347367)

  -Basis set on unique center 9: H
     S (          3.42525091           0.27693436)
       (          0.62391373           0.26783885)
       (          0.16885540           0.08347367)

  -Basis set on unique center 10: H
     S (          3.42525091           0.27693436)
       (          0.62391373           0.26783885)
       (          0.16885540           0.08347367)


	Computing P_X-Perturbed Wave Function (0.000 E_h).
	Iter   Pseudopolarizability       RMS 
	----   --------------------   -----------
	   0         4.065196905341
	   1         5.289235071744    3.016e-01
	   2         6.035782686109    1.206e-01
	   3         6.050755007113    1.524e-02
	   4         6.054490316316    5.848e-03
	   5         6.054302381207    1.785e-03
	   6         6.054175234469    5.901e-04
	   7         6.054227705004    2.244e-04
	   8         6.054244374176    7.798e-05
	   9         6.054237416478    2.687e-05
	  10         6.054236505577    8.863e-06
	  11         6.054238048541    2.815e-06
	  12         6.054239386536    9.367e-07
	  13         6.054239794442    3.564e-07
	  14         6.054239877043    1.637e-07
	-----------------------------------------
	Converged P_X-Perturbed Wfn to 6.710e-08

	Computing L_X-Perturbed Wave Function (0.000 E_h).
	Iter   Pseudopolarizability       RMS 
	----   --------------------   -----------
	   0         2.112468346984
	   1         2.863557040308    2.563e-01
	   2         3.434225397853    1.230e-01
	   3         3.476720291389    2.598e-02
	   4         3.479765801821    8.602e-03
	   5         3.479646192457    3.657e-03
	   6         3.480051668031    1.018e-03
	   7         3.480136129942    3.096e-04
	   8         3.480113199382    1.209e-04
	   9         3.480109847863    4.219e-05
	  10         3.480110407762    1.795e-05
	  11         3.480111067791    5.637e-06
	  12         3.480111333482    1.579e-06
	  13         3.480111297956    4.869e-07
	  14         3.480111296293    1.754e-07
	-----------------------------------------
	Converged L_X-Perturbed Wfn to 7.534e-08

	Computing P_Y-Perturbed Wave Function (0.000 E_h).
	Iter   Pseudopolarizability       RMS 
	----   --------------------   -----------
	   0         4.194100983002
	   1         5.093904219514    2.384e-01
	   2         5.535854181790    8.562e-02
	   3         5.551769047537    1.677e-02
	   4         5.556456076187    7.078e-03
	   5         5.556365074993    1.594e-03
	   6         5.556271115765    4.947e-04
	   7         5.556296641731    1.516e-04
	   8         5.556302045172    4.256e-05
	   9         5.556299893311    1.442e-05
	  10         5.556299251490    4.822e-06
	  11         5.556300107285    1.329e-06
	  12         5.556300625721    4.815e-07
	  13         5.556300718013    1.694e-07
	-----------------------------------------
	Converged P_Y-Perturbed Wfn to 7.132e-08

	Computing L_Y-Perturbed Wave Function (0.000 E_h).
	Iter   Pseudopolarizability       RMS 
	----   --------------------   -----------
	   0         6.122782435145
	   1         8.093115615443    3.807e-01
	   2         9.269393973164    1.652e-01
	   3         9.368649543926    4.972e-02
	   4         9.381570414596    1.559e-02
	   5         9.381785468599    4.977e-03
	   6         9.382226000962    1.201e-03
	   7         9.382363484254    3.277e-04
	   8         9.382337231272    1.160e-04
	   9         9.382328826257    3.202e-05
	  10         9.382329707583    1.260e-05
	  11         9.382330771341    5.186e-06
	  12         9.382331907901    1.700e-06
	  13         9.382332043739    5.581e-07
	  14         9.382332080970    2.269e-07
	  15         9.382332131420    1.016e-07
	-----------------------------------------
	Converged L_Y-Perturbed Wfn to 4.469e-08

	Computing P_Z-Perturbed Wave Function (0.000 E_h).
	Iter   Pseudopolarizability       RMS 
	----   --------------------   -----------
	   0         4.537114728358
	   1         5.752302538332    2.689e-01
	   2         6.311451119389    9.070e-02
	   3         6.323320472742    1.430e-02
	   4         6.325811054486    5.643e-03
	   5         6.325656761724    2.057e-03
	   6         6.325697789780    5.466e-04
	   7         6.325746113512    1.655e-04
	   8         6.325744052591    5.208e-05
	   9         6.325741509891    1.619e-05
	  10         6.325741020952    5.425e-06
	  11         6.325741851841    1.845e-06
	  12         6.325742373998    5.898e-07
	  13         6.325742503270    2.458e-07
	  14         6.325742506731    1.075e-07
	-----------------------------------------
	Converged P_Z-Perturbed Wfn to 4.411e-08

	Computing L_Z-Perturbed Wave Function (0.000 E_h).
	Iter   Pseudopolarizability       RMS 
	----   --------------------   -----------
	   0         6.030631767671
	   1         7.952575788026    3.830e-01
	   2         9.157177038453    1.651e-01
	   3         9.229644664939    3.394e-02
	   4         9.235546433969    8.861e-03
	   5         9.234853302428    4.081e-03
	   6         9.235181750244    1.471e-03
	   7         9.235376962706    4.763e-04
	   8         9.235354654094    1.658e-04
	   9         9.235352429335    4.491e-05
	  10         9.235351645028    1.782e-05
	  11         9.235354134262    7.263e-06
	  12         9.235355330258    2.254e-06
	  13         9.235355593137    8.056e-07
	  14         9.235355679355    2.914e-07
	  15         9.235355720171    1.088e-07
	-----------------------------------------
	Converged L_Z-Perturbed Wfn to 4.530e-08

	Computing <<P;L>>_(0.000) tensor.

    CCSD Optical Rotation Tensor (Velocity Gauge): <<P;L>>_(0.000)
  -------------------------------------------------------------------------
   Evaluated at omega = 0.00 E_h (Inf nm, 0.0 eV, 0.0 cm-1)
  -------------------------------------------------------------------------

                0                  1                  2        

    0  -0.605289627218685 -0.048740750307785 -0.271073723027522
    1   0.001536193329235 -0.196630796087742  1.341882083874790
    2   1.398139520199879 -1.430868111386953  0.796817190036088

	Computing Mu_X-Perturbed Wave Function (-0.072 E_h).
	Iter   Pseudopolarizability       RMS 
	----   --------------------   -----------
	   0        12.160379881203
	   1        15.816174695570    5.168e-01
	   2        18.062779703184    2.071e-01
	   3        18.104564977256    2.511e-02
	   4        18.116262182195    8.751e-03
	   5        18.115485385569    2.112e-03
	   6        18.115060173189    5.730e-04
	   7        18.115134585791    1.705e-04
	   8        18.115157220722    4.740e-05
	   9        18.115145109526    1.473e-05
	  10        18.115142599184    5.211e-06
	  11        18.115143827168    1.931e-06
	  12        18.115145303187    7.258e-07
	  13        18.115145668086    2.142e-07
	-----------------------------------------
	Converged Mu_X-Perturbed Wfn to 7.286e-08

	Computing P_X-Perturbed Wave Function (-0.072 E_h).
	Iter   Pseudopolarizability       RMS 
	----   --------------------   -----------
	   0         3.833344978500
	   1         4.923299528176    2.688e-01
	   2         5.532896217231    1.017e-01
	   3         5.543641391409    1.185e-02
	   4         5.546007358478    4.217e-03
	   5         5.545880131597    1.190e-03
	   6         5.545801453355    3.680e-04
	   7         5.545827086065    1.294e-04
	   8         5.545835347428    4.155e-05
	   9         5.545832109331    1.361e-05
	  10         5.545831756056    4.253e-06
	  11         5.545832431291    1.232e-06
	  12         5.545832970042    3.909e-07
	  13         5.545833127673    1.357e-07
	-----------------------------------------
	Converged P_X-Perturbed Wfn to 5.666e-08

	Computing L_X-Perturbed Wave Function (0.072 E_h).
	Iter   Pseudopolarizability       RMS 
	----   --------------------   -----------
	   0         2.247381533737
	   1         3.097286640927    2.898e-01
	   2         3.812815608020    1.474e-01
	   3         3.878389061536    3.548e-02
	   4         3.885075535723    1.357e-02
	   5         3.885547818137    6.311e-03
	   6         3.886535872471    1.967e-03
	   7         3.886738754930    6.592e-04
	   8         3.886679635577    2.819e-04
	   9         3.886672261750    1.105e-04
	  10         3.886676002803    5.012e-05
	  11         3.886677446238    1.563e-05
	  12         3.886677473511    4.863e-06
	  13         3.886676913166    1.570e-06
	  14         3.886676749215    5.795e-07
	  15         3.886676760893    2.540e-07
	  16         3.886676839651    1.308e-07
	-----------------------------------------
	Converged L_X-Perturbed Wfn to 6.883e-08

	Computing Mu_Y-Perturbed Wave Function (-0.072 E_h).
	Iter   Pseudopolarizability       RMS 
	----   --------------------   -----------
	   0        10.130822094234
	   1        12.358074302374    3.642e-01
	   2        13.442062742623    1.291e-01
	   3        13.471739395662    1.980e-02
	   4        13.480630263943    7.273e-03
	   5        13.480482154226    1.462e-03
	   6        13.480255804604    4.278e-04
	   7        13.480295369987    1.238e-04
	   8        13.480304435495    3.420e-05
	   9        13.480298972562    1.069e-05
	  10        13.480297602628    3.198e-06
	  11        13.480298283056    7.251e-07
	  12        13.480298754626    2.532e-07
	-----------------------------------------
	Converged Mu_Y-Perturbed Wfn to 9.054e-08

	Computing P_Y-Perturbed Wave Function (-0.072 E_h).
	Iter   Pseudopolarizability       RMS 
	----   --------------------   -----------
	   0         3.954725097209
	   1         4.757625733698    2.134e-01
	   2         5.123619514942    7.283e-02
	   3         5.135430962806    1.331e-02
	   4         5.138438509170    5.250e-03
	   5         5.138361475234    1.093e-03
	   6         5.138299318809    3.234e-04
	   7         5.138312378146    9.451e-05
	   8         5.138315340486    2.538e-05
	   9         5.138314210310    8.153e-06
	  10         5.138313937963    2.552e-06
	  11         5.138314348022    6.083e-07
	  12         5.138314570772    1.910e-07
	-----------------------------------------
	Converged P_Y-Perturbed Wfn to 5.762e-08

	Computing L_Y-Perturbed Wave Function (0.072 E_h).
	Iter   Pseudopolarizability       RMS 
	----   --------------------   -----------
	   0         6.495468853772
	   1         8.714469896725    4.298e-01
	   2        10.170173430252    1.995e-01
	   3        10.331283474360    6.921e-02
	   4        10.360950779331    2.497e-02
	   5        10.363204417577    8.501e-03
	   6        10.364371438993    2.215e-03
	   7        10.364711790992    6.522e-04
	   8        10.364648256586    2.423e-04
	   9        10.364628187308    7.272e-05
	  10        10.364631579262    3.241e-05
	  11        10.364633907093    1.452e-05
	  12        10.364636690039    5.118e-06
	  13        10.364636709702    1.697e-06
	  14        10.364636720446    7.200e-07
	  15        10.364636879245    3.373e-07
	  16        10.364637127060    1.655e-07
	-----------------------------------------
	Converged L_Y-Perturbed Wfn to 7.578e-08

	Computing Mu_Z-Perturbed Wave Function (-0.072 E_h).
	Iter   Pseudopolarizability       RMS 
	----   --------------------   -----------
	   0        10.375391071881
	   1        13.056807769113    3.885e-01
	   2        14.267495038372    1.302e-01
	   3        14.292982332467    1.823e-02
	   4        14.298034160902    5.608e-03
	   5        14.297567164985    1.444e-03
	   6        14.297518838889    3.537e-04
	   7        14.297576428072    1.167e-04
	   8        14.297573994561    4.005e-05
	   9        14.297568777257    1.369e-05
	  10        14.297568238655    4.565e-06
	  11        14.297569384814    1.438e-06
	  12        14.297570045809    3.760e-07
	  13        14.297570187594    1.222e-07
	-----------------------------------------
	Converged Mu_Z-Perturbed Wfn to 4.855e-08

	Computing P_Z-Perturbed Wave Function (-0.072 E_h).
	Iter   Pseudopolarizability       RMS 
	----   --------------------   -----------
	   0         4.292134006754
	   1         5.380878066529    2.411e-01
	   2         5.845350957649    7.719e-02
	   3         5.853989736169    1.115e-02
	   4         5.855496115322    4.005e-03
	   5         5.855362468539    1.360e-03
	   6         5.855378931108    3.374e-04
	   7         5.855404136365    9.539e-05
	   8         5.855403218343    2.772e-05
	   9         5.855401931755    8.316e-06
	  10         5.855401718061    2.657e-06
	  11         5.855402086349    8.202e-07
	  12         5.855402305375    2.315e-07
	-----------------------------------------
	Converged P_Z-Perturbed Wfn to 8.666e-08

	Computing L_Z-Perturbed Wave Function (0.072 E_h).
	Iter   Pseudopolarizability       RMS 
	----   --------------------   -----------
	   0         6.406503723114
	   1         8.575077613142    4.321e-01
	   2        10.070227487685    1.974e-01
	   3        10.178850054480    4.501e-02
	   4        10.189903810604    1.342e-02
	   5        10.189265057734    6.893e-03
	   6        10.190158111285    2.786e-03
	   7        10.190619864842    9.701e-04
	   8        10.190563465501    3.609e-04
	   9        10.190560282115    1.081e-04
	  10        10.190560144890    4.742e-05
	  11        10.190566604002    2.069e-05
	  12        10.190568833877    7.249e-06
	  13        10.190568911917    2.676e-06
	  14        10.190569003714    9.982e-07
	  15        10.190569131673    3.921e-07
	  16        10.190569234218    1.713e-07
	-----------------------------------------
	Converged L_Z-Perturbed Wfn to 9.172e-08

	Computing 1/2 <<Mu;L>>_(0.072) tensor.
	Computing 1/2 <<P;L>>_(0.072) tensor.

	Computing Mu_X-Perturbed Wave Function (0.072 E_h).
	Iter   Pseudopolarizability       RMS 
	----   --------------------   -----------
	   0        13.846356773169
	   1        18.555074478922    6.643e-01
	   2        22.075193314850    2.999e-01
	   3        22.166162831344    4.438e-02
	   4        22.198725287600    1.790e-02
	   5        22.196884055204    4.917e-03
	   6        22.195656867642    1.496e-03
	   7        22.195974808136    5.316e-04
	   8        22.196061312525    1.890e-04
	   9        22.195992405014    8.373e-05
	  10        22.195966752716    4.271e-05
	  11        22.195980092566    1.924e-05
	  12        22.195997440599    5.833e-06
	  13        22.196002260205    1.779e-06
	  14        22.196003345986    6.978e-07
	  15        22.196003163102    2.475e-07
	-----------------------------------------
	Converged Mu_X-Perturbed Wfn to 9.655e-08

	Computing P*_X-Perturbed Wave Function (0.072 E_h).
	Iter   Pseudopolarizability       RMS 
	----   --------------------   -----------
	   0         4.327923020243
	   1         5.713365187139    3.414e-01
	   2         6.643711731469    1.449e-01
	   3         6.665433457153    2.025e-02
	   4         6.671659819037    8.438e-03
	   5         6.671393445328    2.810e-03
	   6         6.671182916335    1.003e-03
	   7         6.671299574490    4.184e-04
	   8         6.671336400252    1.589e-04
	   9         6.671320126439    5.791e-05
	  10         6.671317562016    2.040e-05
	  11         6.671321497352    7.103e-06
	  12         6.671325189357    2.442e-06
	  13         6.671326360607    1.009e-06
	  14         6.671326628263    5.171e-07
	  15         6.671326470857    2.427e-07
	-----------------------------------------
	Converged P*_X-Perturbed Wfn to 9.772e-08

	Computing L*_X-Perturbed Wave Function (-0.072 E_h).
	Iter   Pseudopolarizability       RMS 
	----   --------------------   -----------
	   0         1.993082375280
	   1         2.661926742617    2.285e-01
	   2         3.125160481759    1.040e-01
	   3         3.153871212423    1.965e-02
	   4         3.155350864393    5.736e-03
	   5         3.155148405633    2.268e-03
	   6         3.155339500159    5.752e-04
	   7         3.155380330259    1.612e-04
	   8         3.155370761887    5.839e-05
	   9         3.155369183078    1.838e-05
	  10         3.155369212552    7.314e-06
	  11         3.155369516453    2.307e-06
	  12         3.155369692269    5.947e-07
	  13         3.155369719577    1.776e-07
	-----------------------------------------
	Converged L*_X-Perturbed Wfn to 6.239e-08

	Computing Mu_Y-Perturbed Wave Function (0.072 E_h).
	Iter   Pseudopolarizability       RMS 
	----   --------------------   -----------
	   0        11.491633870709
	   1        14.325528224106    4.600e-01
	   2        15.946338775940    1.816e-01
	   3        16.002988069283    3.251e-02
	   4        16.024405040197    1.379e-02
	   5        16.024117482044    3.296e-03
	   6        16.023484405444    1.102e-03
	   7        16.023632644435    3.675e-04
	   8        16.023662004260    1.113e-04
	   9        16.023637446377    3.827e-05
	  10        16.023630753156    1.296e-05
	  11        16.023634300863    4.076e-06
	  12        16.023637321626    1.779e-06
	  13        16.023637853246    7.230e-07
	  14        16.023637729442    3.149e-07
	  15        16.023637583270    1.138e-07
	-----------------------------------------
	Converged Mu_Y-Perturbed Wfn to 4.989e-08

	Computing P*_Y-Perturbed Wave Function (0.072 E_h).
	Iter   Pseudopolarizability       RMS 
	----   --------------------   -----------
	   0         4.465101682976
	   1         5.481013259848    2.683e-01
	   2         6.022384226539    1.018e-01
	   3         6.044373481735    2.162e-02
	   4         6.051975077399    9.828e-03
	   5         6.051893051073    2.418e-03
	   6         6.051749321688    7.923e-04
	   7         6.051802638464    2.565e-04
	   8         6.051813301309    7.611e-05
	   9         6.051808983346    2.779e-05
	  10         6.051807336544    1.037e-05
	  11         6.051809324776    3.580e-06
	  12         6.051810758658    1.499e-06
	  13         6.051810960524    5.687e-07
	  14         6.051810902875    2.417e-07
	-----------------------------------------
	Converged P*_Y-Perturbed Wfn to 9.222e-08

	Computing L*_Y-Perturbed Wave Function (-0.072 E_h).
	Iter   Pseudopolarizability       RMS 
	----   --------------------   -----------
	   0         5.791159897395
	   1         7.553098385995    3.399e-01
	   2         8.518193991209    1.388e-01
	   3         8.582659225453    3.693e-02
	   4         8.588885417564    1.031e-02
	   5         8.588679866938    3.134e-03
	   6         8.588873152346    7.089e-04
	   7         8.588937159870    1.804e-04
	   8         8.588925286411    6.111e-05
	   9         8.588921361599    1.588e-05
	  10         8.588921645278    5.619e-06
	  11         8.588922146277    2.121e-06
	  12         8.588922638813    6.416e-07
	  13         8.588922731123    2.102e-07
	-----------------------------------------
	Converged L*_Y-Perturbed Wfn to 8.234e-08

	Computing Mu_Z-Perturbed Wave Function (0.072 E_h).
	Iter   Pseudopolarizability       RMS 
	----   --------------------   -----------
	   0        11.676169384471
	   1        15.057141860412    4.887e-01
	   2        16.853596092946    1.830e-01
	   3        16.904387640016    3.053e-02
	   4        16.917668428567    1.106e-02
	   5        16.916649384710    3.215e-03
	   6        16.916537231532    9.443e-04
	   7        16.916742147143    3.806e-04
	   8        16.916723231591    1.557e-04
	   9        16.916698767979    5.748e-05
	  10        16.916695662099    2.165e-05
	  11        16.916702658360    8.209e-06
	  12        16.916706839055    2.319e-06
	  13        16.916707643050    8.087e-07
	  14        16.916707705863    3.498e-07
	  15        16.916707614804    1.551e-07
	-----------------------------------------
	Converged Mu_Z-Perturbed Wfn to 7.316e-08

	Computing P*_Z-Perturbed Wave Function (0.072 E_h).
	Iter   Pseudopolarizability       RMS 
	----   --------------------   -----------
	   0         4.812280759600
	   1         6.177741818243    3.020e-01
	   2         6.860063327227    1.078e-01
	   3         6.876869736922    1.884e-02
	   4         6.881199560714    8.236e-03
	   5         6.881093529636    3.258e-03
	   6         6.881202402486    9.461e-04
	   7         6.881304232362    3.114e-04
	   8         6.881299505011    1.066e-04
	   9         6.881294162487    3.436e-05
	  10         6.881292967332    1.228e-05
	  11         6.881295044765    4.751e-06
	  12         6.881296446436    1.787e-06
	  13         6.881296758062    8.340e-07
	  14         6.881296716174    3.909e-07
	  15         6.881296626343    1.706e-07
	-----------------------------------------
	Converged P*_Z-Perturbed Wfn to 6.633e-08

	Computing L*_Z-Perturbed Wave Function (-0.072 E_h).
	Iter   Pseudopolarizability       RMS 
	----   --------------------   -----------
	   0         5.697003219569
	   1         7.412701332142    3.422e-01
	   2         8.398847416618    1.398e-01
	   3         8.449007598801    2.630e-02
	   4         8.452331371113    6.136e-03
	   5         8.451783307943    2.569e-03
	   6         8.451917171173    8.394e-04
	   7         8.452010706464    2.560e-04
	   8         8.452001785680    8.428e-05
	   9         8.452000521815    2.125e-05
	  10         8.452000043022    7.738e-06
	  11         8.452001121138    2.935e-06
	  12         8.452001702932    8.138e-07
	  13         8.452001866267    2.819e-07
	-----------------------------------------
	Converged L*_Z-Perturbed Wfn to 9.980e-08

	Computing 1/2 <<Mu;L*>>_(0.072) tensor.
	Computing 1/2 <<P*;L*>>_(0.072) tensor.
	Computing <<P;Mu>>_(0.072) tensor.

           CCSD Optical Rotation Tensor (Length Gauge):
  -------------------------------------------------------------------------
   Evaluated at omega = 0.071980 E_h (633.00 nm, 1.959 eV, 15797.79 cm-1)
  -------------------------------------------------------------------------

                0                  1                  2        

    0  -0.098201227082238  0.123180764736164  0.033202864749748
    1   0.005923371520294 -0.050810738025220  0.134824731309273
    2   0.167593932723211 -0.178586261105271  0.134493403180769

   Specific rotation using length-gauge electric-dipole Rosenfeld tensor.
	[alpha]_(0.072) =  -38.80515 deg/[dm (g/cm^3)]

         CCSD Optical Rotation Tensor (Velocity Gauge):
  -------------------------------------------------------------------------
   Evaluated at omega = 0.071980 E_h (633.00 nm, 1.959 eV, 15797.79 cm-1)
  -------------------------------------------------------------------------

                0                  1                  2        

    0  -0.611826426635674 -0.042104363327865 -0.269204658214488
    1   0.001881359146365 -0.199307808833423  1.347788225353449
    2   1.408413503558631 -1.440039983309077  0.805016826248289

   Specific rotation using velocity-gauge electric-dipole Rosenfeld tensor.
	[alpha]_(0.072) = -227.15448 deg/[dm (g/cm^3)]

        CCSD Optical Rotation Tensor (Modified Velocity Gauge):
  -------------------------------------------------------------------------
   Evaluated at omega = 0.071980 E_h (633.00 nm, 1.959 eV, 15797.79 cm-1)
  -------------------------------------------------------------------------

                0                  1                  2        

    0  -0.006536799416988  0.006636386979920  0.001869064813034
    1   0.000345165817130 -0.002677012745681  0.005906141478659
    2   0.010273983358752 -0.009171871922124  0.008199636212201

   Specific rotation using modified velocity-gauge Rosenfeld tensor.
	[alpha]_(0.072) =  -37.65885 deg/[dm (g/cm^3)]

   Origin-dependence vector for length-gauge rotation deg/[dm (g/cm^3)]/bohr.
     Delta_x =  -1.53   Delta_y =   0.59   Delta_z =  -3.27

	Computing Mu_X-Perturbed Wave Function (-0.128 E_h).
	Iter   Pseudopolarizability       RMS 
	----   --------------------   -----------
	   0        11.609438605969
	   1        14.949778988862    4.728e-01
	   2        16.871418088021    1.818e-01
	   3        16.903632525082    2.076e-02
	   4        16.911909898402    6.871e-03
	   5        16.911348644659    1.590e-03
	   6        16.911055285695    4.168e-04
	   7        16.911101279441    1.181e-04
	   8        16.911115759369    3.100e-05
	   9        16.911108820018    8.873e-06
	  10        16.911107595822    2.748e-06
	  11        16.911108235584    8.445e-07
	  12        16.911108891502    3.229e-07
	  13        16.911109057870    1.006e-07
	-----------------------------------------
	Converged Mu_X-Perturbed Wfn to 3.393e-08

	Computing P_X-Perturbed Wave Function (-0.128 E_h).
	Iter   Pseudopolarizability       RMS 
	----   --------------------   -----------
	   0         3.669889515944
	   1         4.669995494842    2.468e-01
	   2         5.195541439239    8.967e-02
	   3         5.204011533930    9.904e-03
	   4         5.205714081270    3.340e-03
	   5         5.205620043882    8.910e-04
	   6         5.205564847534    2.628e-04
	   7         5.205580147414    8.756e-05
	   8         5.205585158834    2.659e-05
	   9         5.205583291235    8.385e-06
	  10         5.205583116446    2.525e-06
	  11         5.205583491740    6.832e-07
	  12         5.205583772448    2.087e-07
	-----------------------------------------
	Converged P_X-Perturbed Wfn to 6.771e-08

	Computing L_X-Perturbed Wave Function (0.128 E_h).
	Iter   Pseudopolarizability       RMS 
	----   --------------------   -----------
	   0         2.365981799426
	   1         3.307945689117    3.211e-01
	   2         4.174456123623    1.715e-01
	   3         4.269850887828    4.658e-02
	   4         4.282991470100    2.028e-02
	   5         4.285355854887    1.031e-02
	   6         4.287649326630    3.586e-03
	   7         4.288126019091    1.317e-03
	   8         4.287996667125    6.132e-04
	   9         4.287984126620    2.655e-04
	  10         4.288000219295    1.266e-04
	  11         4.288002797989    3.944e-05
	  12         4.288000891237    1.358e-05
	  13         4.287998066192    4.621e-06
	  14         4.287997159721    1.749e-06
	  15         4.287997058608    7.724e-07
	  16         4.287997288405    4.035e-07
	  17         4.287997501171    2.315e-07
	  18         4.287997609870    1.204e-07
	-----------------------------------------
	Converged L_X-Perturbed Wfn to 5.487e-08

	Computing Mu_Y-Perturbed Wave Function (-0.128 E_h).
	Iter   Pseudopolarizability       RMS 
	----   --------------------   -----------
	   0         9.683420673765
	   1        11.726517389936    3.351e-01
	   2        12.667113867583    1.144e-01
	   3        12.690850594397    1.675e-02
	   4        12.697415668451    5.857e-03
	   5        12.697300096014    1.117e-03
	   6        12.697140770767    3.127e-04
	   7        12.697166245189    8.608e-05
	   8        12.697172290118    2.292e-05
	   9        12.697169048368    6.916e-06
	  10        12.697168260365    2.008e-06
	  11        12.697168651818    4.233e-07
	  12        12.697168910226    1.381e-07
	-----------------------------------------
	Converged Mu_Y-Perturbed Wfn to 4.605e-08

	Computing P_Y-Perturbed Wave Function (-0.128 E_h).
	Iter   Pseudopolarizability       RMS 
	----   --------------------   -----------
	   0         3.785864077304
	   1         4.523604559453    1.966e-01
	   2         4.842103571498    6.462e-02
	   3         4.851592472402    1.125e-02
	   4         4.853764663850    4.225e-03
	   5         4.853700581700    8.327e-04
	   6         4.853654968902    2.379e-04
	   7         4.853662972845    6.720e-05
	   8         4.853664902583    1.751e-05
	   9         4.853664199848    5.431e-06
	  10         4.853664057223    1.640e-06
	  11         4.853664300799    3.652e-07
	  12         4.853664426223    1.064e-07
	-----------------------------------------
	Converged P_Y-Perturbed Wfn to 2.881e-08

	Computing L_Y-Perturbed Wave Function (0.128 E_h).
	Iter   Pseudopolarizability       RMS 
	----   --------------------   -----------
	   0         6.821298927024
	   1         9.270412528301    4.757e-01
	   2        11.011131403026    2.340e-01
	   3        11.257035218521    9.221e-02
	   4        11.319589122389    3.813e-02
	   5        11.328095350094    1.392e-02
	   6        11.331034388201    3.893e-03
	   7        11.331839917375    1.222e-03
	   8        11.331703032764    4.737e-04
	   9        11.331658917021    1.553e-04
	  10        11.331670720658    7.708e-05
	  11        11.331674768801    3.674e-05
	  12        11.331680550164    1.376e-05
	  13        11.331679599204    4.703e-06
	  14        11.331679374379    2.074e-06
	  15        11.331679833303    9.994e-07
	  16        11.331680695711    5.321e-07
	  17        11.331681332721    2.712e-07
	  18        11.331681541821    1.115e-07
	-----------------------------------------
	Converged L_Y-Perturbed Wfn to 4.265e-08

	Computing Mu_Z-Perturbed Wave Function (-0.128 E_h).
	Iter   Pseudopolarizability       RMS 
	----   --------------------   -----------
	   0         9.942856909899
	   1        12.409442367389    3.578e-01
	   2        13.462130433489    1.154e-01
	   3        13.482241717548    1.530e-02
	   4        13.485856999217    4.442e-03
	   5        13.485508823470    1.101e-03
	   6        13.485473709055    2.556e-04
	   7        13.485511312794    7.911e-05
	   8        13.485510209358    2.541e-05
	   9        13.485507151156    8.446e-06
	  10        13.485506864841    2.727e-06
	  11        13.485507493350    8.066e-07
	  12        13.485507847606    2.037e-07
	-----------------------------------------
	Converged Mu_Z-Perturbed Wfn to 6.320e-08

	Computing P_Z-Perturbed Wave Function (-0.128 E_h).
	Iter   Pseudopolarizability       RMS 
	----   --------------------   -----------
	   0         4.118239679264
	   1         5.121420738748    2.224e-01
	   2         5.526427105233    6.849e-02
	   3         5.533281037786    9.319e-03
	   4         5.534326272262    3.126e-03
	   5         5.534216595307    1.010e-03
	   6         5.534224761951    2.397e-04
	   7         5.534240665719    6.477e-05
	   8         5.534240171623    1.776e-05
	   9         5.534239388128    5.177e-06
	  10         5.534239272774    1.602e-06
	  11         5.534239478829    4.650e-07
	  12         5.534239596818    1.219e-07
	-----------------------------------------
	Converged P_Z-Perturbed Wfn to 4.220e-08

	Computing L_Z-Perturbed Wave Function (0.128 E_h).
	Iter   Pseudopolarizability       RMS 
	----   --------------------   -----------
	   0         6.735910234652
	   1         9.133135076943    4.778e-01
	   2        10.927029737088    2.292e-01
	   3        11.080909714020    5.746e-02
	   4        11.099863032441    1.939e-02
	   5        11.099968474482    1.096e-02
	   6        11.102156068294    4.940e-03
	   7        11.103195496417    1.851e-03
	   8        11.103083013959    7.344e-04
	   9        11.103082793728    2.438e-04
	  10        11.103089187954    1.167e-04
	  11        11.103104517680    5.351e-05
	  12        11.103106820368    2.084e-05
	  13        11.103104951148    7.992e-06
	  14        11.103104717845    3.092e-06
	  15        11.103105060259    1.266e-06
	  16        11.103105422774    5.565e-07
	  17        11.103105613436    3.115e-07
	  18        11.103105662384    1.819e-07
	-----------------------------------------
	Converged L_Z-Perturbed Wfn to 8.976e-08

	Computing 1/2 <<Mu;L>>_(0.128) tensor.
	Computing 1/2 <<P;L>>_(0.128) tensor.

	Computing Mu_X-Perturbed Wave Function (0.128 E_h).
	Iter   Pseudopolarizability       RMS 
	----   --------------------   -----------
	   0        14.646058093706
	   1        19.900740981776    7.415e-01
	   2        24.202679438380    3.530e-01
	   3        24.333910991006    5.786e-02
	   4        24.386483350125    2.489e-02
	   5        24.384011449427    7.288e-03
	   6        24.382065372517    2.366e-03
	   7        24.382700999565    9.330e-04
	   8        24.382866001313    3.872e-04
	   9        24.382704070164    2.028e-04
	  10        24.382629785755    1.136e-04
	  11        24.382672947493    5.108e-05
	  12        24.382725501520    1.491e-05
	  13        24.382740490645    4.837e-06
	  14        24.382744099351    2.005e-06
	  15        24.382743440353    7.537e-07
	  16        24.382743082400    3.075e-07
	  17        24.382743170322    1.381e-07
	-----------------------------------------
	Converged Mu_X-Perturbed Wfn to 6.116e-08

	Computing P*_X-Perturbed Wave Function (0.128 E_h).
	Iter   Pseudopolarizability       RMS 
	----   --------------------   -----------
	   0         4.559587424755
	   1         6.095758293379    3.787e-01
	   2         7.217290799317    1.691e-01
	   3         7.247452637834    2.602e-02
	   4         7.257227900375    1.164e-02
	   5         7.256922199620    4.177e-03
	   6         7.256609261247    1.602e-03
	   7         7.256844533791    7.263e-04
	   8         7.256919106351    2.985e-04
	   9         7.256885069074    1.147e-04
	  10         7.256878779597    4.306e-05
	  11         7.256887854460    1.600e-05
	  12         7.256896816345    5.459e-06
	  13         7.256899702759    2.295e-06
	  14         7.256900465783    1.264e-06
	  15         7.256900112289    6.854e-07
	  16         7.256899894797    3.188e-07
	  17         7.256899906779    1.387e-07
	-----------------------------------------
	Converged P*_X-Perturbed Wfn to 5.869e-08

	Computing L*_X-Perturbed Wave Function (-0.128 E_h).
	Iter   Pseudopolarizability       RMS 
	----   --------------------   -----------
	   0         1.908748817038
	   1         2.522419063067    2.099e-01
	   2         2.920051738346    9.194e-02
	   3         2.941681420422    1.609e-02
	   4         2.942548638570    4.298e-03
	   5         2.942363033072    1.619e-03
	   6         2.942476540067    3.856e-04
	   7         2.942501321346    1.022e-04
	   8         2.942496279518    3.516e-05
	   9         2.942495369621    1.030e-05
	  10         2.942495332694    3.887e-06
	  11         2.942495501793    1.223e-06
	  12         2.942495612861    2.989e-07
	-----------------------------------------
	Converged L*_X-Perturbed Wfn to 8.750e-08

	Computing Mu_Y-Perturbed Wave Function (0.128 E_h).
	Iter   Pseudopolarizability       RMS 
	----   --------------------   -----------
	   0        12.132525464788
	   1        15.276412131039    5.092e-01
	   2        17.210437227188    2.109e-01
	   3        17.286411971121    4.091e-02
	   4        17.318464488120    1.854e-02
	   5        17.318141582165    4.833e-03
	   6        17.317143797367    1.713e-03
	   7        17.317421386962    6.058e-04
	   8        17.317472206470    1.907e-04
	   9        17.317424479453    6.910e-05
	  10        17.317410572065    2.580e-05
	  11        17.317418332138    9.916e-06
	  12        17.317425855381    4.665e-06
	  13        17.317426903536    1.897e-06
	  14        17.317426400521    8.193e-07
	  15        17.317425957388    3.197e-07
	  16        17.317425874722    1.607e-07
	-----------------------------------------
	Converged Mu_Y-Perturbed Wfn to 8.766e-08

	Computing P*_Y-Perturbed Wave Function (0.128 E_h).
	Iter   Pseudopolarizability       RMS 
	----   --------------------   -----------
	   0         4.703792413178
	   1         5.827598217762    2.961e-01
	   2         6.469640784863    1.178e-01
	   3         6.498578670017    2.690e-02
	   4         6.510083149124    1.303e-02
	   5         6.510070693508    3.471e-03
	   6         6.509872179142    1.193e-03
	   7         6.509973153002    4.063e-04
	   8         6.509992696727    1.279e-04
	   9         6.509984883190    5.085e-05
	  10         6.509981065849    2.163e-05
	  11         6.509985330609    9.105e-06
	  12         6.509988949360    4.069e-06
	  13         6.509989335030    1.578e-06
	  14         6.509989090923    7.148e-07
	  15         6.509988877940    3.240e-07
	  16         6.509988846014    1.663e-07
	-----------------------------------------
	Converged P*_Y-Perturbed Wfn to 8.380e-08

	Computing L*_Y-Perturbed Wave Function (-0.128 E_h).
	Iter   Pseudopolarizability       RMS 
	----   --------------------   -----------
	   0         5.555861111863
	   1         7.177212283622    3.126e-01
	   2         8.011578118149    1.222e-01
	   3         8.058975352165    2.985e-02
	   4         8.062684508483    7.695e-03
	   5         8.062432081597    2.264e-03
	   6         8.062541151843    4.903e-04
	   7         8.062578876032    1.186e-04
	   8         8.062572167477    3.889e-05
	   9         8.062569879110    9.756e-06
	  10         8.062570010170    3.221e-06
	  11         8.062570298018    1.140e-06
	  12         8.062570565180    3.217e-07
	  13         8.062570625034    1.046e-07
	-----------------------------------------
	Converged L*_Y-Perturbed Wfn to 3.987e-08

	Computing Mu_Z-Perturbed Wave Function (0.128 E_h).
	Iter   Pseudopolarizability       RMS 
	----   --------------------   -----------
	   0        12.281082814021
	   1        16.014852273516    5.396e-01
	   2        18.149152108149    2.121e-01
	   3        18.218730796211    3.868e-02
	   4        18.239340210252    1.507e-02
	   5        18.237988258240    4.658e-03
	   6        18.237840096169    1.504e-03
	   7        18.238212610813    6.648e-04
	   8        18.238168639433    2.924e-04
	   9        18.238119739652    1.131e-04
	  10        18.238113046494    4.594e-05
	  11        18.238129587021    1.886e-05
	  12        18.238139486955    5.440e-06
	  13        18.238141190000    1.853e-06
	  14        18.238141247527    7.411e-07
	  15        18.238141023586    2.771e-07
	  16        18.238141035453    1.229e-07
	-----------------------------------------
	Converged Mu_Z-Perturbed Wfn to 6.493e-08

	Computing P*_Z-Perturbed Wave Function (0.128 E_h).
	Iter   Pseudopolarizability       RMS 
	----   --------------------   -----------
	   0         5.052710497252
	   1         6.556640391582    3.325e-01
	   2         7.362866756762    1.245e-01
	   3         7.385505260780    2.390e-02
	   4         7.392477975315    1.140e-02
	   5         7.392594924308    4.866e-03
	   6         7.392847024968    1.545e-03
	   7         7.393047315369    5.497e-04
	   8         7.393038405926    2.014e-04
	   9         7.393028408553    6.716e-05
	  10         7.393025850387    2.588e-05
	  11         7.393030545208    1.141e-05
	  12         7.393033955102    5.006e-06
	  13         7.393034579001    2.562e-06
	  14         7.393034313076    1.279e-06
	  15         7.393033998671    5.844e-07
	  16         7.393034012694    2.305e-07
	  17         7.393034075643    1.018e-07
	-----------------------------------------
	Converged P*_Z-Perturbed Wfn to 4.803e-08

	Computing L*_Z-Perturbed Wave Function (-0.128 E_h).
	Iter   Pseudopolarizability       RMS 
	----   --------------------   -----------
	   0         5.460761086728
	   1         7.037583327429    3.147e-01
	   2         7.888897908851    1.236e-01
	   3         7.927306394911    2.188e-02
	   4         7.929487696414    4.727e-03
	   5         7.929054909853    1.852e-03
	   6         7.929123989122    5.650e-04
	   7         7.929179833238    1.652e-04
	   8         7.929175458763    5.229e-05
	   9         7.929174664852    1.264e-05
	  10         7.929174379958    4.348e-06
	  11         7.929174975093    1.561e-06
	  12         7.929175306828    3.990e-07
	  13         7.929175407292    1.342e-07
	-----------------------------------------
	Converged L*_Z-Perturbed Wfn to 4.665e-08

	Computing 1/2 <<Mu;L*>>_(0.128) tensor.
	Computing 1/2 <<P*;L*>>_(0.128) tensor.
	Computing <<P;Mu>>_(0.128) tensor.

           CCSD Optical Rotation Tensor (Length Gauge):
  -------------------------------------------------------------------------
   Evaluated at omega = 0.128347 E_h (355.00 nm, 3.493 eV, 28169.01 cm-1)
  -------------------------------------------------------------------------

                0                  1                  2        

    0  -0.180382557630427  0.231277801501339  0.067393284902729
    1   0.011460339153124 -0.093901042319131  0.240574200336474
    2   0.302759289045919 -0.322187350319789  0.246887976304520

   Specific rotation using length-gauge electric-dipole Rosenfeld tensor.
	[alpha]_(0.128) = -130.56365 deg/[dm (g/cm^3)]

         CCSD Optical Rotation Tensor (Velocity Gauge):
  -------------------------------------------------------------------------
   Evaluated at omega = 0.128347 E_h (355.00 nm, 3.493 eV, 28169.01 cm-1)
  -------------------------------------------------------------------------

                0                  1                  2        

    0  -0.626853559340200 -0.026579268768932 -0.264461301080412
    1   0.002704208101100 -0.205427071365300  1.360524925734522
    2   1.431576600226671 -1.460380578643581  0.823772927422017

   Specific rotation using velocity-gauge electric-dipole Rosenfeld tensor.
	[alpha]_(0.128) = -315.91199 deg/[dm (g/cm^3)]

        CCSD Optical Rotation Tensor (Modified Velocity Gauge):
  -------------------------------------------------------------------------
   Evaluated at omega = 0.128347 E_h (355.00 nm, 3.493 eV, 28169.01 cm-1)
  -------------------------------------------------------------------------

                0                  1                  2        

    0  -0.021563932121515  0.022161481538853  0.006612421947110
    1   0.001168014771865 -0.008796275277558  0.018642841859732
    2   0.033437080026792 -0.029512467256629  0.026955737385930

   Specific rotation using modified velocity-gauge Rosenfeld tensor.
	[alpha]_(0.128) = -126.41636 deg/[dm (g/cm^3)]

   Origin-dependence vector for length-gauge rotation deg/[dm (g/cm^3)]/bohr.
     Delta_x =  -5.21   Delta_y =   2.23   Delta_z = -11.10

   ------------------------------------------
       CCSD Length-Gauge Optical Rotation
   ------------------------------------------
       Omega           alpha                        Delta
    E_h      nm   deg/[dm (g/cm^3)]        deg/[dm (g/cm^3)]/bohr
   -----   ------ ------------------  ----------------------------------
                                          x           y           z      
   0.072   633.00       -38.80515      -1.53381     0.59449    -3.26953
   0.128   355.00      -130.56365      -5.20756     2.23401   -11.10364

   ------------------------------------------------------
            CCSD Velocity-Gauge Optical Rotation
   ------------------------------------------------------
       Omega           alpha (deg/[dm (g/cm^3)]

    E_h      nm   Velocity-Gauge  Modified Velocity-Gauge
   -----   ------ --------------  -----------------------
   0.072   633.00   -227.15448           -37.65885
   0.128   355.00   -315.91199          -126.41636

*** tstop() called on QuickSilver.local at Mon Jan 23 15:10:02 2012
Module time:
	user time   =      20.38 seconds =       0.34 minutes
	system time =       9.87 seconds =       0.16 minutes
	total time  =         42 seconds =       0.70 minutes
Total time:
	user time   =      21.68 seconds =       0.36 minutes
	system time =      10.42 seconds =       0.17 minutes
	total time  =         47 seconds =       0.78 minutes

*** PSI4 exiting successfully. Buy a developer a beer!
