    -----------------------------------------------------------------------
          PSI4: An Open-Source Ab Initio Electronic Structure Package
                              PSI 4.0.0-alpha Driver

    J. M. Turney, A. C. Simmonett, R. M. Parrish, E. G. Hohenstein,
    F. Evangelista, J. T. Fermann, B. J. Mintz, L. A. Burns, J. J. Wilke,
    M. L. Abrams, N. J. Russ, M. L. Leininger, C. L. Janssen, E. T. Seidl,
    W. D. Allen, H. F. Schaefer, R. A. King, E. F. Valeev, C. D. Sherrill,
    and T. D. Crawford, WIREs Comput. Mol. Sci., (2011)
                         Additional Contributions by
    -----------------------------------------------------------------------


    Using LocalCommunicator (Number of processes = 1)

    Memory level set to 256.000 MB

  ==> Input File <==

--------------------------------------------------------------------------
#! All-electron MP2 6-31G** geometry optimization of water

nucenergy = 9.160900081464213  #TEST
refenergy = -76.2224485003409  #TEST

molecule h2o {
  O
  H 1 1.0
  H 1 1.0 2 106.0
}

set {
  basis 6-31G**
  reference rhf
  d_converge 9
  e_converge 9
}

optimized_energy = optimize('mp2')

compare_values(nucenergy, h2o.nuclear_repulsion_energy(), 4, "Nuclear repulsion energy")    #TEST
compare_values(refenergy, optimized_energy, 6, "Reference energy")                          #TEST

clean()
--------------------------------------------------------------------------

*** tstart() called on lawn-143-215-101-15.lawn.gatech.edu
*** at Mon Dec 19 12:31:43 2011

	There are an even number of electrons - assuming singlet.
	Specify the multiplicity with the MULTP option in the
	input if this is incorrect


         ---------------------------------------------------------
                                   SCF
            by Justin Turney, Rob Parrish, and Andy Simmonett
                              RHF Reference
                        1 Threads,    256 MiB Core
         ---------------------------------------------------------

  ==> Geometry <==

    Molecular point group: c2v

    Geometry (in Angstrom), charge = 0, multiplicity = 1:

       Center              X                  Y                   Z       
    ------------   -----------------  -----------------  -----------------
           O          0.000000000000     0.000000000000    -0.067352052049
           H          0.000000000000    -0.798635510047     0.534462971103
           H          0.000000000000     0.798635510047     0.534462971103

    Number of unique atoms: 2

    Atoms equivalency:
       unique atom 0: 0 
       unique atom 1: 1 2 

  Running in c2v symmetry.

  Nuclear repulsion =    8.798136835478958

  Charge       = 0
  Multiplicity = 1
  Electrons    = 10
  Nalpha       = 5
  Nbeta        = 5

  ==> Algorithm <==

  SCF Algorithm Type is PK.
  DIIS enabled.
  MOM disabled.
  Guess Type is CORE.
  Energy threshold   = 1.00e-09
  Density threshold  = 1.00e-09
  Integral threshold = 0.00e+00

  ==> Primary Basis: 6-31G** <==

  Basis Set
    Number of shells: 12
    Number of basis function: 25
    Number of Cartesian functions: 25
    Spherical Harmonics?: false
    Max angular momentum: 2

  ==> Pre-Iterations <==

  Minimum eigenvalue in the overlap matrix is 2.3433271675E-02.
  Using Symmetric Orthogonalization.
  SCF Guess: Core (One-Electron) Hamiltonian.

  Initial RHF energy:   -58.76453373231610

   -------------------------------------------------------
    Irrep   Nso     Nmo     Nalpha   Nbeta   Ndocc  Nsocc
   -------------------------------------------------------
     A1        12      12       3       3       3       0
     A2         2       2       0       0       0       0
     B1         4       4       1       1       1       0
     B2         7       7       1       1       1       0
   -------------------------------------------------------
    Total      25      25       5       5       5       0
   -------------------------------------------------------

  ==> Integral Setup <==

 MINTS: Wrapper to libmints.
   by Justin Turney

   Calculation information:
      Number of atoms:                   3
      Number of AO shells:              12
      Number of SO shells:               9
      Number of primitives:             25
      Number of atomic orbitals:        25
      Number of basis functions:        25

      Number of irreps:                  4
      Number of functions per irrep: [  12    2    4    7 ]

      Overlap, kinetic, potential, dipole, and quadrupole integrals
        stored in file 35.

      Computing two-electron integrals...done
      Computed 13617 non-zero two-electron integrals.
        Stored in file 33.

  ==> Iterations <==

                        Total Energy        Delta E     Density RMS

   @RHF iter   1:   -68.36157485635354   -9.59704e+00   0.00000e+00  
	Occupation by irrep:
	         A1    A2    B1    B2 
	DOCC [     3,    0,    0,    2 ]
   @RHF iter   2:   -70.30442173813489   -1.94285e+00   6.34899e-01 DIIS
	Occupation by irrep:
	         A1    A2    B1    B2 
	DOCC [     3,    0,    1,    1 ]
   @RHF iter   3:   -75.61497418638932   -5.31055e+00   6.12479e-01 DIIS
   @RHF iter   4:   -75.98742001065784   -3.72446e-01   2.22696e-02 DIIS
   @RHF iter   5:   -76.01639507971461   -2.89751e-02   1.04841e-02 DIIS
   @RHF iter   6:   -76.01714376209448   -7.48682e-04   1.57885e-03 DIIS
   @RHF iter   7:   -76.01720218712104   -5.84250e-05   6.71036e-04 DIIS
   @RHF iter   8:   -76.01720663097707   -4.44386e-06   9.88835e-05 DIIS
   @RHF iter   9:   -76.01720674720917   -1.16232e-07   1.74653e-05 DIIS
   @RHF iter  10:   -76.01720674954659   -2.33742e-09   3.79863e-06 DIIS
   @RHF iter  11:   -76.01720674965682   -1.10234e-10   1.26781e-06 DIIS
   @RHF iter  12:   -76.01720674966163   -4.80327e-12   1.13151e-07 DIIS
   @RHF iter  13:   -76.01720674966151    1.13687e-13   1.30644e-08 DIIS
   @RHF iter  14:   -76.01720674966160   -8.52651e-14   1.96240e-09 DIIS

  ==> Post-Iterations <==

	Orbital Energies (a.u.)
	-----------------------

	Doubly Occupied:                                                      

	   1A1   -20.567203     2A1    -1.318249     1B2    -0.683594  
	   3A1    -0.558086     1B1    -0.493716  

	Virtual:                                                              

	   4A1     0.202564     2B2     0.293301     3B2     0.991433  
	   5A1     1.046179     6A1     1.131611     2B1     1.169580  
	   4B2     1.295823     7A1     1.401711     1A2     1.796623  
	   8A1     1.828794     3B1     1.928925     9A1     2.510683  
	   5B2     2.519055     6B2     2.720176     4B1     2.928199  
	   2A2     2.938078    10A1     3.294237    11A1     3.621619  
	   7B2     3.864587    12A1     4.089181  

	Final Occupation by Irrep:
	         A1    A2    B1    B2 
	DOCC [     3,    0,    1,    1 ]

  Energy converged.

  @RHF Final Energy:   -76.01720674966160

  ==> Properties <==
  Nuclear Dipole Moment: (a.u.)
     X:     0.0000      Y:     0.0000      Z:     1.0018

  Electronic Dipole Moment: (a.u.)
     X:     0.0000      Y:     0.0000      Z:    -0.1396

  Dipole Moment: (a.u.)
     X:     0.0000      Y:     0.0000      Z:     0.8622     Total:     0.8622

  Dipole Moment: (Debye)
     X:     0.0000      Y:     0.0000      Z:     2.1914     Total:     2.1914


  Saving occupied orbitals to File 180.

*** tstop() called on lawn-143-215-101-15.lawn.gatech.edu at Mon Dec 19 12:31:43 2011
Module time:
	user time   =       0.16 seconds =       0.00 minutes
	system time =       0.01 seconds =       0.00 minutes
	total time  =          0 seconds =       0.00 minutes
Total time:
	user time   =       0.16 seconds =       0.00 minutes
	system time =       0.01 seconds =       0.00 minutes
	total time  =          0 seconds =       0.00 minutes

*** tstart() called on lawn-143-215-101-15.lawn.gatech.edu
*** at Mon Dec 19 12:31:43 2011


	**************************************************
	* TRANSQT2: Program to transform integrals from  *
	*           the SO basis to the MO basis.        *
	*                                                *
	*            Daniel, David, & Justin             *
	**************************************************


	Input parameters:
	-----------------
	Wave function   =	MP2
	Backtransform   =	No
	Print Level     =	1
	Print TEIs      =	No
	Reference wfn   =	RHF
	Derivative      =	First
	Delete TEI File =	Yes
	Memory (Mbytes) =	256.0
	Cache Level     =	2
	Cache Type      =	LRU
	Chkpt Parameters:
	--------------------
	Number of irreps     = 4
	Number of SOs        = 25
	Number of MOs        = 25
	Number of active MOs = 25

	Label	# SOs	# FZDC	# DOCC	# SOCC	# VIRT	# FZVR
	-----	-----	------	------	------	------	------
	 A1	   12	    0	    3	    0	    9	    0
	 A2	   2	    0	    0	    0	    2	    0
	 B1	   4	    0	    1	    0	    3	    0
	 B2	   7	    0	    1	    0	    6	    0

	Nuclear Rep. energy (chkpt) =      8.79813683547896
	SCF energy          (chkpt) =    -76.01720674966160

	Presorting SO-basis two-electron integrals.
	Sorting File: SO Ints (pq,rs) nbuckets = 1
	Frozen-core energy =    0.000000000000000
	Starting first half-transformation.
	Sorting half-transformed integrals.
	Starting second half-transformation.
	Two-electron integral transformation complete.

*** tstop() called on lawn-143-215-101-15.lawn.gatech.edu at Mon Dec 19 12:31:43 2011
Module time:
	user time   =       0.01 seconds =       0.00 minutes
	system time =       0.01 seconds =       0.00 minutes
	total time  =          0 seconds =       0.00 minutes
Total time:
	user time   =       0.17 seconds =       0.00 minutes
	system time =       0.02 seconds =       0.00 minutes
	total time  =          0 seconds =       0.00 minutes

*** tstart() called on lawn-143-215-101-15.lawn.gatech.edu
*** at Mon Dec 19 12:31:43 2011


			**************************
			*                        *
			*         CCSORT         *
			*                        *
			**************************


	Input parameters:
	-----------------
	Wave function   =	MP2
	Reference wfn   =	RHF
	Derivative      =	First
	Memory (Mbytes) =	256.0
	AO Basis        =	NONE
	Make (ab|cd)    =	False
	Make unpacked (ab|cd) =	False
	Cache Level     =	2
	Cache Type      =	LRU
	Local CC        =     No


	Chkpt Parameters:
	--------------------
	Number of irreps     = 4
	Number of MOs        = 25
	Number of active MOs = 25

	Label	# MOs	# FZDC	# DOCC	# SOCC	# VIRT	# FZVR
	-----	-----	------	------	------	------	------
	 A1	   12	    0	    3	    0	    9	    0
	 A2	   2	    0	    0	    0	    2	    0
	 B1	   4	    0	    1	    0	    3	    0
	 B2	   7	    0	    1	    0	    6	    0

	Nuclear Rep. energy (chkpt) =      8.79813683547896
	SCF energy          (chkpt) =    -76.01720674966160

	Size of irrep 0 of <ab|cd> integrals:      0.017 (MW) /      0.135 (MB)
	Size of irrep 1 of <ab|cd> integrals:      0.005 (MW) /      0.041 (MB)
	Size of irrep 2 of <ab|cd> integrals:      0.006 (MW) /      0.049 (MB)
	Size of irrep 3 of <ab|cd> integrals:      0.014 (MW) /      0.115 (MB)
	Total:                                     0.043 (MW) /      0.341 (MB)

	Size of irrep 0 of <ia|bc> integrals:      0.005 (MW) /      0.037 (MB)
	Size of irrep 1 of <ia|bc> integrals:      0.001 (MW) /      0.009 (MB)
	Size of irrep 2 of <ia|bc> integrals:      0.002 (MW) /      0.012 (MB)
	Size of irrep 3 of <ia|bc> integrals:      0.003 (MW) /      0.028 (MB)
	Total:                                     0.011 (MW) /      0.086 (MB)

	Size of irrep 0 of tijab amplitudes:       0.001 (MW) /      0.011 (MB)
	Size of irrep 1 of tijab amplitudes:       0.000 (MW) /      0.001 (MB)
	Size of irrep 2 of tijab amplitudes:       0.000 (MW) /      0.004 (MB)
	Size of irrep 3 of tijab amplitudes:       0.001 (MW) /      0.006 (MB)
	Total:                                     0.003 (MW) /      0.022 (MB)


	Sorting File: A <ij|kl> nbuckets = 1
	Sorting File: C <ia|jb> nbuckets = 1
	Sorting File: D <ij|ab> nbuckets = 1
	Sorting File: E <ai|jk> nbuckets = 1
	Sorting File: F <ia|bc> nbuckets = 1
	Sorting File: F <ai|bc> nbuckets = 1
	One-electron energy          =   -122.38898895010362
	Two-electron (AA) energy     =     14.32802171419479
	Two-electron (BB) energy     =     14.32802171419479
	Two-electron (AB) energy     =     23.24562365076829
	Two-electron energy          =     37.57364536496308
	Frozen-core energy (transqt) =      0.00000000000000
	Reference energy             =    -76.01720674966158

*** tstop() called on lawn-143-215-101-15.lawn.gatech.edu at Mon Dec 19 12:31:44 2011
Module time:
	user time   =       0.03 seconds =       0.00 minutes
	system time =       0.03 seconds =       0.00 minutes
	total time  =          1 seconds =       0.02 minutes
Total time:
	user time   =       0.20 seconds =       0.00 minutes
	system time =       0.05 seconds =       0.00 minutes
	total time  =          1 seconds =       0.02 minutes

*** tstart() called on lawn-143-215-101-15.lawn.gatech.edu
*** at Mon Dec 19 12:31:44 2011

			*************************
			*                       *
			*          MP2          *
			*                       *
			*************************

	Nuclear rep. energy     =    8.798136835478960
	SCF energy              =  -76.017206749661597

	Input parameters:
	-----------------
	Wave function 	=	MP2
	Reference WFN 	=	RHF
	Derivative    	=	FIRST
	Cache Level   	=	2
	Cache Type    	=	LRU
	Memory (MB)   	=	256.0
	Print Level   	=	1
	OPDM          	=	NO
	SCS           	=	True
	SCALE_OS      	=	1.200000
	SCALE_SS      	=	0.333333

Warning: SCS-MP2 computation requested but
derivative will be evaluated for standard MP2 energy.

	Scaled_OS correlation energy      =   -0.181786414768190
	Scaled_SS correlation energy      =   -0.016895465153838
	SCS-MP2 correlation energy        =   -0.198681879922028
      * SCS-MP2 total energy              =  -76.215888629583631

	Opposite-spin correlation energy  =   -0.151488678973492
	Same-spin correlation energy      =   -0.050686395461514
	MP2 correlation energy            =   -0.202175074435005
      * MP2 total energy                  =  -76.219381824096601

	Trace of OPDM(2)        =    0.000000000000000

	Energies re-computed from Fock-adjusted CC density:
	---------------------------------------------------
	One-electron energy        =    0.227130593542637
	IJKL energy                =   -0.659167363501884
	IJKA energy                =   -0.049150048898209
	IJAB energy                =   -0.404350148870011
	IBJA energy                =    0.683361893259575
	MP2 correlation energy    =   -0.202175074467892
	Total MP2 energy          =  -76.219381824129485

	Energies re-computed from Mulliken density:
	-------------------------------------------
	One-electron energy        =    0.227130593542637
	IJKL energy                =   -0.659167363501884
	IJKA energy                =   -0.049150048898209
	IJAB energy                =   -0.435580212841606
	IBJA energy                =    0.714591957231170
	Total two-electron energy  =   -0.429305668010529
	MP2 correlation energy    =   -0.202175074467892
	Total MP2 energy          =  -76.219381824129485

*** tstop() called on lawn-143-215-101-15.lawn.gatech.edu at Mon Dec 19 12:31:44 2011
Module time:
	user time   =       0.03 seconds =       0.00 minutes
	system time =       0.03 seconds =       0.00 minutes
	total time  =          0 seconds =       0.00 minutes
Total time:
	user time   =       0.24 seconds =       0.00 minutes
	system time =       0.08 seconds =       0.00 minutes
	total time  =          1 seconds =       0.02 minutes

*** tstart() called on lawn-143-215-101-15.lawn.gatech.edu
*** at Mon Dec 19 12:31:44 2011

 DERIV: Derivative code.
   by Justin Turney

  Cartesian Displacement SALCs
  By SALC:
  Number of SALCs: 3, nirreps: 1
  Project out translations: False
  Project out rotations: False
	irrep = 0, ncomponent = 1
		0: atom 0, direction z, coef 1.000000
	irrep = 0, ncomponent = 2
		0: atom 1, direction y, coef 0.707107
		1: atom 2, direction y, coef -0.707107
	irrep = 0, ncomponent = 2
		0: atom 1, direction z, coef 0.707107
		1: atom 2, direction z, coef 0.707107

  By Atomic Center:
  Number of atomic centers: 3
   Atomic Center 0:
	x component, size = 0
	y component, size = 0
	z component, size = 1
		0: salc 0, irrep 0, coef 1.000000
   Atomic Center 1:
	x component, size = 0
	y component, size = 1
		0: salc 1, irrep 0, coef 0.707107
	z component, size = 1
		0: salc 2, irrep 0, coef 0.707107
   Atomic Center 2:
	x component, size = 0
	y component, size = 1
		0: salc 1, irrep 0, coef -0.707107
	z component, size = 1
		0: salc 2, irrep 0, coef 0.707107

    Molecular point group: c2v

    Geometry (in Bohr), charge = 0, multiplicity = 1:

       Center              X                  Y                   Z       
    ------------   -----------------  -----------------  -----------------
           O          0.000000000000     0.000000000000    -0.127276923142
           H          0.000000000000    -1.509202278738     1.009988566426
           H          0.000000000000     1.509202278738     1.009988566426

	Presorting MO-basis TPDM.
	Sorting File: MO TPDM (AA|AA) nbuckets = 1
	Starting first half-transformation.
	Sorting half-transformed TPDM.
	First half integral transformation complete.
Read in lower triangle:

           1           2           3           4           5           6           7           8           9          10

    1   2.0789031
    2  -0.1846312   0.5236470
    3   0.0468493  -0.0885926   0.6284737
    4  -0.2293799   0.5233755  -0.3045179   0.6516711
    5   0.0422566  -0.0839194   0.4110671  -0.2491711   0.3025561
    6  -0.0073145  -0.0042907  -0.0043122   0.0017468  -0.0038167   0.0046983
    7  -0.0091796   0.0002269   0.0042021   0.0018525  -0.0000455  -0.0011841   0.0051637
    8  -0.0040492  -0.0103635   0.0432928  -0.0236500   0.0302158  -0.0018326  -0.0005717   0.0080636
    9  -0.0480699   0.1127710   0.2482152   0.0154501   0.1687666  -0.0034857   0.0038791   0.0182249   0.1646962
   10   0.0134368  -0.0294282   0.1739936  -0.0973991   0.1285470  -0.0017012   0.0013714   0.0136041   0.0779918   0.0565221
   11  -0.0096256   0.0207613   0.0237492   0.0111451   0.0157056  -0.0003115  -0.0001083   0.0017963   0.0184937   0.0070119
   12   0.0093198  -0.0197012   0.0082547  -0.0227107   0.0077045  -0.0001303  -0.0003187   0.0011907  -0.0027293   0.0029753
   13   0.0000000   0.0000000   0.0000000   0.0000000   0.0000000   0.0000000   0.0000000   0.0000000   0.0000000   0.0000000
   14   0.0000000   0.0000000   0.0000000   0.0000000   0.0000000   0.0000000   0.0000000   0.0000000   0.0000000   0.0000000
   15   0.0000000   0.0000000   0.0000000   0.0000000   0.0000000   0.0000000   0.0000000   0.0000000   0.0000000   0.0000000
   16   0.0000000   0.0000000   0.0000000   0.0000000   0.0000000   0.0000000   0.0000000   0.0000000   0.0000000   0.0000000
   17   0.0000000   0.0000000   0.0000000   0.0000000   0.0000000   0.0000000   0.0000000   0.0000000   0.0000000   0.0000000
   18   0.0000000   0.0000000   0.0000000   0.0000000   0.0000000   0.0000000   0.0000000   0.0000000   0.0000000   0.0000000
   19   0.0000000   0.0000000   0.0000000   0.0000000   0.0000000   0.0000000   0.0000000   0.0000000   0.0000000   0.0000000
   20   0.0000000   0.0000000   0.0000000   0.0000000   0.0000000   0.0000000   0.0000000   0.0000000   0.0000000   0.0000000
   21   0.0000000   0.0000000   0.0000000   0.0000000   0.0000000   0.0000000   0.0000000   0.0000000   0.0000000   0.0000000
   22   0.0000000   0.0000000   0.0000000   0.0000000   0.0000000   0.0000000   0.0000000   0.0000000   0.0000000   0.0000000
   23   0.0000000   0.0000000   0.0000000   0.0000000   0.0000000   0.0000000   0.0000000   0.0000000   0.0000000   0.0000000
   24   0.0000000   0.0000000   0.0000000   0.0000000   0.0000000   0.0000000   0.0000000   0.0000000   0.0000000   0.0000000
   25   0.0000000   0.0000000   0.0000000   0.0000000   0.0000000   0.0000000   0.0000000   0.0000000   0.0000000   0.0000000
          11          12          13          14          15          16          17          18          19          20

   11   0.0027610
   12  -0.0006313   0.0014183
   13   0.0000000   0.0000000   0.0126721
   14   0.0000000   0.0000000  -0.0009090   0.0006432
   15   0.0000000   0.0000000   0.0000000   0.0000000   0.8066730
   16   0.0000000   0.0000000   0.0000000   0.0000000   0.6169735   0.5270029
   17   0.0000000   0.0000000   0.0000000   0.0000000   0.0565452   0.0483872   0.0168729
   18   0.0000000   0.0000000   0.0000000   0.0000000   0.0350390   0.0299101   0.0032983   0.0022000
   19   0.0000000   0.0000000   0.0000000   0.0000000   0.0000000   0.0000000   0.0000000   0.0000000   0.5205397
   20   0.0000000   0.0000000   0.0000000   0.0000000   0.0000000   0.0000000   0.0000000   0.0000000   0.2634424   0.1457454
   21   0.0000000   0.0000000   0.0000000   0.0000000   0.0000000   0.0000000   0.0000000   0.0000000   0.0523334   0.0260920
   22   0.0000000   0.0000000   0.0000000   0.0000000   0.0000000   0.0000000   0.0000000   0.0000000  -0.3206886  -0.1757215
   23   0.0000000   0.0000000   0.0000000   0.0000000   0.0000000   0.0000000   0.0000000   0.0000000  -0.2006617  -0.1138542
   24   0.0000000   0.0000000   0.0000000   0.0000000   0.0000000   0.0000000   0.0000000   0.0000000  -0.0130628  -0.0069536
   25   0.0000000   0.0000000   0.0000000   0.0000000   0.0000000   0.0000000   0.0000000   0.0000000   0.0229870   0.0125951
          21          22          23          24          25

   21   0.0176089
   22  -0.0358286   0.2289275
   23  -0.0222406   0.1434766   0.0950008
   24  -0.0011237   0.0096711   0.0052344   0.0009573
   25   0.0017776  -0.0156171  -0.0093745  -0.0006604   0.0016513
Read in lower triangle:

           1           2           3           4           5           6           7           8           9          10

    1 -81.7157965
    2  -1.0758768  -1.6245254
    3  -0.1213412   0.0300089  -1.0394881
    4   0.2360626  -1.2885969   0.2306636  -1.2986577
    5   0.0064067   0.0370843  -0.4748771   0.1868423  -0.3203105
    6   0.2985029   0.0431393   0.0026548   0.0208278   0.0058929  -0.0361079
    7   0.3025372   0.0335017  -0.0201014   0.0229453   0.0023451   0.0001062  -0.0399584
    8   0.2989087   0.0431203  -0.0598325   0.0410645  -0.0305583   0.0021327  -0.0037130  -0.0415736
    9   0.1566594  -0.3997596  -0.3401653  -0.2565738  -0.1930508   0.0087319  -0.0097643  -0.0209091  -0.3311222
   10   0.0237098   0.0228791  -0.1867257   0.0808155  -0.1267290  -0.0021095  -0.0092987  -0.0198290  -0.0959524  -0.0638330
   11   0.0561627  -0.0682540  -0.0357192  -0.0502539  -0.0215880   0.0009735   0.0025575  -0.0017694  -0.0435296  -0.0076979
   12  -0.0420307   0.0512581  -0.0025451   0.0461088  -0.0045964  -0.0001274  -0.0001367  -0.0036461   0.0197268  -0.0023992
   13   0.0000000   0.0000000   0.0000000   0.0000000   0.0000000   0.0000000   0.0000000   0.0000000   0.0000000   0.0000000
   14   0.0000000   0.0000000   0.0000000   0.0000000   0.0000000   0.0000000   0.0000000   0.0000000   0.0000000   0.0000000
   15   0.0000000   0.0000000   0.0000000   0.0000000   0.0000000   0.0000000   0.0000000   0.0000000   0.0000000   0.0000000
   16   0.0000000   0.0000000   0.0000000   0.0000000   0.0000000   0.0000000   0.0000000   0.0000000   0.0000000   0.0000000
   17   0.0000000   0.0000000   0.0000000   0.0000000   0.0000000   0.0000000   0.0000000   0.0000000   0.0000000   0.0000000
   18   0.0000000   0.0000000   0.0000000   0.0000000   0.0000000   0.0000000   0.0000000   0.0000000   0.0000000   0.0000000
   19   0.0000000   0.0000000   0.0000000   0.0000000   0.0000000   0.0000000   0.0000000   0.0000000   0.0000000   0.0000000
   20   0.0000000   0.0000000   0.0000000   0.0000000   0.0000000   0.0000000   0.0000000   0.0000000   0.0000000   0.0000000
   21   0.0000000   0.0000000   0.0000000   0.0000000   0.0000000   0.0000000   0.0000000   0.0000000   0.0000000   0.0000000
   22   0.0000000   0.0000000   0.0000000   0.0000000   0.0000000   0.0000000   0.0000000   0.0000000   0.0000000   0.0000000
   23   0.0000000   0.0000000   0.0000000   0.0000000   0.0000000   0.0000000   0.0000000   0.0000000   0.0000000   0.0000000
   24   0.0000000   0.0000000   0.0000000   0.0000000   0.0000000   0.0000000   0.0000000   0.0000000   0.0000000   0.0000000
   25   0.0000000   0.0000000   0.0000000   0.0000000   0.0000000   0.0000000   0.0000000   0.0000000   0.0000000   0.0000000
          11          12          13          14          15          16          17          18          19          20

   11  -0.0100393
   12   0.0035891  -0.0061815
   13   0.0000000   0.0000000  -0.0752869
   14   0.0000000   0.0000000   0.0040792  -0.0042231
   15   0.0000000   0.0000000   0.0000000   0.0000000  -1.1693338
   16   0.0000000   0.0000000   0.0000000   0.0000000  -0.5823267  -0.4489725
   17   0.0000000   0.0000000   0.0000000   0.0000000  -0.0561804  -0.0419964  -0.0801891
   18   0.0000000   0.0000000   0.0000000   0.0000000  -0.0333255  -0.0258210  -0.0049974  -0.0050091
   19   0.0000000   0.0000000   0.0000000   0.0000000   0.0000000   0.0000000   0.0000000   0.0000000  -0.9804707
   20   0.0000000   0.0000000   0.0000000   0.0000000   0.0000000   0.0000000   0.0000000   0.0000000  -0.3932262  -0.2081497
   21   0.0000000   0.0000000   0.0000000   0.0000000   0.0000000   0.0000000   0.0000000   0.0000000  -0.0980984  -0.0375193
   22   0.0000000   0.0000000   0.0000000   0.0000000   0.0000000   0.0000000   0.0000000   0.0000000   0.4638156   0.2334883
   23   0.0000000   0.0000000   0.0000000   0.0000000   0.0000000   0.0000000   0.0000000   0.0000000   0.2536446   0.1405903
   24   0.0000000   0.0000000   0.0000000   0.0000000   0.0000000   0.0000000   0.0000000   0.0000000   0.0208187   0.0113130
   25   0.0000000   0.0000000   0.0000000   0.0000000   0.0000000   0.0000000   0.0000000   0.0000000  -0.0356489  -0.0196390
          21          22          23          24          25

   21  -0.0897030
   22   0.0569629  -0.3530344
   23   0.0319879  -0.1873194  -0.1260039
   24  -0.0002590  -0.0218919  -0.0058107  -0.0059089
   25   0.0002019   0.0264576   0.0106522   0.0020284  -0.0062824




  -Nuclear Repulsion Energy 1st Derivatives:
     Atom            X                  Y                   Z
    ------   -----------------  -----------------  -----------------
       1        0.000000000000     0.000000000000     2.696406317388
       2        0.000000000000     1.898886274428    -1.348203158694
       3        0.000000000000    -1.898886274428    -1.348203158694


  -One-electron contribution to gradient:
     Atom            X                  Y                   Z
    ------   -----------------  -----------------  -----------------
       1        0.000000000000     0.000000000000    -6.228277294840
       2        0.000000000000    -4.424152749441     3.114138647420
       3        0.000000000000     4.424152749441     3.114138647420


  -Lagrangian contribution to gradient:
     Atom            X                  Y                   Z
    ------   -----------------  -----------------  -----------------
       1        0.000000000000     0.000000000000     0.376781960105
       2        0.000000000000     0.245359022184    -0.188390980052
       3        0.000000000000    -0.245359022184    -0.188390980052


  -Two-electron contribution to gradient:
     Atom            X                  Y                   Z
    ------   -----------------  -----------------  -----------------
       1        0.000000000000     0.000000000000     3.119911683306
       2        0.000000000000     2.246997100280    -1.559955841653
       3        0.000000000000    -2.246997100280    -1.559955841653


  -Total gradient:
     Atom            X                  Y                   Z
    ------   -----------------  -----------------  -----------------
       1        0.000000000000     0.000000000000    -0.035177334042
       2        0.000000000000    -0.032910352550     0.017588667021
       3        0.000000000000     0.032910352550     0.017588667021


*** tstop() called on lawn-143-215-101-15.lawn.gatech.edu at Mon Dec 19 12:31:44 2011
Module time:
	user time   =       0.33 seconds =       0.01 minutes
	system time =       0.03 seconds =       0.00 minutes
	total time  =          0 seconds =       0.00 minutes
Total time:
	user time   =       0.58 seconds =       0.01 minutes
	system time =       0.11 seconds =       0.00 minutes
	total time  =          1 seconds =       0.02 minutes

			----------------------------------
			 OPTKING: for geometry optimizations  
			  - R.A. King,  Bethel University   
			------------------------------------

	Internal coordinates to be generated automatically.
	Detected frag with atoms:  1 2 3
	---Fragment 1 Bond Connectivity---
	 1 : 2 3
	 2 : 1
	 3 : 1

	---Fragment 1 Geometry and Gradient---
	 O           0.0000000000        0.0000000000       -0.1272769231
	 H           0.0000000000       -1.5092022787        1.0099885664
	 H           0.0000000000        1.5092022787        1.0099885664
	             0.0000000000        0.0000000000       -0.0351773340
	             0.0000000000       -0.0329103526        0.0175886670
	             0.0000000000        0.0329103526        0.0175886670

	Previous optimization step data not found.  Starting new optimization.

	---Fragment 1 Intrafragment Coordinates---
	 * Coordinate *           * BOHR/RAD *       * ANG/DEG *
	 R(1,2)           =         1.889726	       1.000000
	 R(1,3)           =         1.889726	       1.000000
	 B(2,1,3)         =         1.850049	     106.000000

	Current energy   :       -76.2193818241

	Generating empirical Hessian (Fischer & Almlof '92) for each fragment.
	Following RFO solution 0.
	Projected energy change by RFO approximation:        -0.0043224545

	Back-transformation to cartesian coordinates...
	Successfully converged to displaced geometry.

	---Internal Coordinate Step in ANG or DEG, aJ/ANG or AJ/DEG ---
	 ----------------------------------------------------------------------
	 Coordinate             Previous        Force       Change         New 
	 ----------             --------       ------       ------       ------
	 R(1,2)          =      1.000000    -0.303749    -0.058913     0.941087
	 R(1,3)          =      1.000000    -0.303749    -0.058913     0.941087
	 B(2,1,3)        =    106.000000    -0.000828    -2.294636   103.705364
	 ----------------------------------------------------------------------

	Convergence Check Cycle    1: (using internal coordinates in au)
	                    Actual        Tolerance     Converged?
	----------------------------------------------------------
	MAX Force           3.7e-02        3.0e-04          no
	Energy Change      -7.6e+01        1.0e-06          no
	MAX Displacement    1.1e-01        1.2e-03          no
	----------------------------------------------------------
	Writing optimization data to binary file.
	Structure for next step:
	Cartesian Geometry (au)
	    O     0.0000000000   0.0000000000  -0.1229373927
	    H     0.0000000000  -1.3985762456   0.9755528178
	    H     0.0000000000   1.3985762456   0.9755528178
			--------------------------
			 OPTKING Finished Execution 
			--------------------------

*** tstart() called on lawn-143-215-101-15.lawn.gatech.edu
*** at Mon Dec 19 12:31:44 2011

	There are an even number of electrons - assuming singlet.
	Specify the multiplicity with the MULTP option in the
	input if this is incorrect


         ---------------------------------------------------------
                                   SCF
            by Justin Turney, Rob Parrish, and Andy Simmonett
                              RHF Reference
                        1 Threads,    256 MiB Core
         ---------------------------------------------------------

  ==> Geometry <==

    Molecular point group: c2v

    Geometry (in Angstrom), charge = 0, multiplicity = 1:

       Center              X                  Y                   Z       
    ------------   -----------------  -----------------  -----------------
           O          0.000000000000     0.000000000000    -0.065055671266
           H          0.000000000000    -0.740094730159     0.516240356361
           H          0.000000000000     0.740094730159     0.516240356361

    Number of unique atoms: 2

    Atoms equivalency:
       unique atom 0: 0 
       unique atom 1: 1 2 

  Running in c2v symmetry.

  Nuclear repulsion =    9.354372185687163

  Charge       = 0
  Multiplicity = 1
  Electrons    = 10
  Nalpha       = 5
  Nbeta        = 5

  ==> Algorithm <==

  SCF Algorithm Type is PK.
  DIIS enabled.
  MOM disabled.
  Guess Type is CORE.
  Energy threshold   = 1.00e-09
  Density threshold  = 1.00e-09
  Integral threshold = 0.00e+00

  ==> Primary Basis: 6-31G** <==

  Basis Set
    Number of shells: 12
    Number of basis function: 25
    Number of Cartesian functions: 25
    Spherical Harmonics?: false
    Max angular momentum: 2

  ==> Pre-Iterations <==

  Minimum eigenvalue in the overlap matrix is 2.1313386254E-02.
  Using Symmetric Orthogonalization.
  SCF Guess: Core (One-Electron) Hamiltonian.

  Initial RHF energy:   -58.59336597061529

   -------------------------------------------------------
    Irrep   Nso     Nmo     Nalpha   Nbeta   Ndocc  Nsocc
   -------------------------------------------------------
     A1        12      12       3       3       3       0
     A2         2       2       0       0       0       0
     B1         4       4       1       1       1       0
     B2         7       7       1       1       1       0
   -------------------------------------------------------
    Total      25      25       5       5       5       0
   -------------------------------------------------------

  ==> Integral Setup <==

 MINTS: Wrapper to libmints.
   by Justin Turney

   Calculation information:
      Number of atoms:                   3
      Number of AO shells:              12
      Number of SO shells:               9
      Number of primitives:             25
      Number of atomic orbitals:        25
      Number of basis functions:        25

      Number of irreps:                  4
      Number of functions per irrep: [  12    2    4    7 ]

      Overlap, kinetic, potential, dipole, and quadrupole integrals
        stored in file 35.

      Computing two-electron integrals...done
      Computed 13617 non-zero two-electron integrals.
        Stored in file 33.

  ==> Iterations <==

                        Total Energy        Delta E     Density RMS

   @RHF iter   1:   -68.22823667292826   -9.63487e+00   0.00000e+00  
	Occupation by irrep:
	         A1    A2    B1    B2 
	DOCC [     4,    0,    0,    1 ]
   @RHF iter   2:   -71.40809803994324   -3.17986e+00   5.40049e-01 DIIS
	Occupation by irrep:
	         A1    A2    B1    B2 
	DOCC [     3,    0,    1,    1 ]
   @RHF iter   3:   -75.76268610009353   -4.35459e+00   5.14790e-01 DIIS
   @RHF iter   4:   -76.00616504498315   -2.43479e-01   1.74119e-02 DIIS
   @RHF iter   5:   -76.02307824079266   -1.69132e-02   7.65754e-03 DIIS
   @RHF iter   6:   -76.02342318361175   -3.44943e-04   1.18431e-03 DIIS
   @RHF iter   7:   -76.02345511176610   -3.19282e-05   4.83499e-04 DIIS
   @RHF iter   8:   -76.02345596810275   -8.56337e-07   7.41045e-05 DIIS
   @RHF iter   9:   -76.02345601770450   -4.96018e-08   1.98792e-05 DIIS
   @RHF iter  10:   -76.02345601893700   -1.23249e-09   3.41037e-06 DIIS
   @RHF iter  11:   -76.02345601894081   -3.80851e-12   1.33869e-07 DIIS
   @RHF iter  12:   -76.02345601894095   -1.42109e-13   2.21492e-08 DIIS
   @RHF iter  13:   -76.02345601894099   -4.26326e-14   3.27514e-09 DIIS

  ==> Post-Iterations <==

	Orbital Energies (a.u.)
	-----------------------

	Doubly Occupied:                                                      

	   1A1   -20.558184     2A1    -1.349559     1B2    -0.710663  
	   3A1    -0.573317     1B1    -0.498666  

	Virtual:                                                              

	   4A1     0.215330     2B2     0.308872     3B2     1.008725  
	   5A1     1.099308     6A1     1.137892     2B1     1.168303  
	   4B2     1.295515     7A1     1.420072     1A2     1.807788  
	   8A1     1.811894     3B1     1.923813     9A1     2.593631  
	   5B2     2.601844     6B2     2.841499     2A2     2.994473  
	   4B1     3.016146    10A1     3.407066    11A1     3.747331  
	   7B2     3.957324    12A1     4.118004  

	Final Occupation by Irrep:
	         A1    A2    B1    B2 
	DOCC [     3,    0,    1,    1 ]

  Energy converged.

  @RHF Final Energy:   -76.02345601894099

  ==> Properties <==
  Nuclear Dipole Moment: (a.u.)
     X:     0.0000      Y:     0.0000      Z:     0.9676

  Electronic Dipole Moment: (a.u.)
     X:     0.0000      Y:     0.0000      Z:    -0.1082

  Dipole Moment: (a.u.)
     X:     0.0000      Y:     0.0000      Z:     0.8594     Total:     0.8594

  Dipole Moment: (Debye)
     X:     0.0000      Y:     0.0000      Z:     2.1845     Total:     2.1845


  Saving occupied orbitals to File 180.

*** tstop() called on lawn-143-215-101-15.lawn.gatech.edu at Mon Dec 19 12:31:44 2011
Module time:
	user time   =       0.16 seconds =       0.00 minutes
	system time =       0.01 seconds =       0.00 minutes
	total time  =          0 seconds =       0.00 minutes
Total time:
	user time   =       0.74 seconds =       0.01 minutes
	system time =       0.12 seconds =       0.00 minutes
	total time  =          1 seconds =       0.02 minutes

*** tstart() called on lawn-143-215-101-15.lawn.gatech.edu
*** at Mon Dec 19 12:31:44 2011


	**************************************************
	* TRANSQT2: Program to transform integrals from  *
	*           the SO basis to the MO basis.        *
	*                                                *
	*            Daniel, David, & Justin             *
	**************************************************


	Input parameters:
	-----------------
	Wave function   =	MP2
	Backtransform   =	No
	Print Level     =	1
	Print TEIs      =	No
	Reference wfn   =	RHF
	Derivative      =	First
	Delete TEI File =	Yes
	Memory (Mbytes) =	256.0
	Cache Level     =	2
	Cache Type      =	LRU
	Chkpt Parameters:
	--------------------
	Number of irreps     = 4
	Number of SOs        = 25
	Number of MOs        = 25
	Number of active MOs = 25

	Label	# SOs	# FZDC	# DOCC	# SOCC	# VIRT	# FZVR
	-----	-----	------	------	------	------	------
	 A1	   12	    0	    3	    0	    9	    0
	 A2	   2	    0	    0	    0	    2	    0
	 B1	   4	    0	    1	    0	    3	    0
	 B2	   7	    0	    1	    0	    6	    0

	Nuclear Rep. energy (chkpt) =      9.35437218568716
	SCF energy          (chkpt) =    -76.02345601894099

	Presorting SO-basis two-electron integrals.
	Sorting File: SO Ints (pq,rs) nbuckets = 1
	Frozen-core energy =    0.000000000000000
	Starting first half-transformation.
	Sorting half-transformed integrals.
	Starting second half-transformation.
	Two-electron integral transformation complete.

*** tstop() called on lawn-143-215-101-15.lawn.gatech.edu at Mon Dec 19 12:31:44 2011
Module time:
	user time   =       0.02 seconds =       0.00 minutes
	system time =       0.01 seconds =       0.00 minutes
	total time  =          0 seconds =       0.00 minutes
Total time:
	user time   =       0.76 seconds =       0.01 minutes
	system time =       0.13 seconds =       0.00 minutes
	total time  =          1 seconds =       0.02 minutes

*** tstart() called on lawn-143-215-101-15.lawn.gatech.edu
*** at Mon Dec 19 12:31:44 2011


			**************************
			*                        *
			*         CCSORT         *
			*                        *
			**************************


	Input parameters:
	-----------------
	Wave function   =	MP2
	Reference wfn   =	RHF
	Derivative      =	First
	Memory (Mbytes) =	256.0
	AO Basis        =	NONE
	Make (ab|cd)    =	False
	Make unpacked (ab|cd) =	False
	Cache Level     =	2
	Cache Type      =	LRU
	Local CC        =     No


	Chkpt Parameters:
	--------------------
	Number of irreps     = 4
	Number of MOs        = 25
	Number of active MOs = 25

	Label	# MOs	# FZDC	# DOCC	# SOCC	# VIRT	# FZVR
	-----	-----	------	------	------	------	------
	 A1	   12	    0	    3	    0	    9	    0
	 A2	   2	    0	    0	    0	    2	    0
	 B1	   4	    0	    1	    0	    3	    0
	 B2	   7	    0	    1	    0	    6	    0

	Nuclear Rep. energy (chkpt) =      9.35437218568716
	SCF energy          (chkpt) =    -76.02345601894099

	Size of irrep 0 of <ab|cd> integrals:      0.017 (MW) /      0.135 (MB)
	Size of irrep 1 of <ab|cd> integrals:      0.005 (MW) /      0.041 (MB)
	Size of irrep 2 of <ab|cd> integrals:      0.006 (MW) /      0.049 (MB)
	Size of irrep 3 of <ab|cd> integrals:      0.014 (MW) /      0.115 (MB)
	Total:                                     0.043 (MW) /      0.341 (MB)

	Size of irrep 0 of <ia|bc> integrals:      0.005 (MW) /      0.037 (MB)
	Size of irrep 1 of <ia|bc> integrals:      0.001 (MW) /      0.009 (MB)
	Size of irrep 2 of <ia|bc> integrals:      0.002 (MW) /      0.012 (MB)
	Size of irrep 3 of <ia|bc> integrals:      0.003 (MW) /      0.028 (MB)
	Total:                                     0.011 (MW) /      0.086 (MB)

	Size of irrep 0 of tijab amplitudes:       0.001 (MW) /      0.011 (MB)
	Size of irrep 1 of tijab amplitudes:       0.000 (MW) /      0.001 (MB)
	Size of irrep 2 of tijab amplitudes:       0.000 (MW) /      0.004 (MB)
	Size of irrep 3 of tijab amplitudes:       0.001 (MW) /      0.006 (MB)
	Total:                                     0.003 (MW) /      0.022 (MB)


	Sorting File: A <ij|kl> nbuckets = 1
	Sorting File: C <ia|jb> nbuckets = 1
	Sorting File: D <ij|ab> nbuckets = 1
	Sorting File: E <ai|jk> nbuckets = 1
	Sorting File: F <ia|bc> nbuckets = 1
	Sorting File: F <ai|bc> nbuckets = 1
	One-electron energy          =   -123.37487872909998
	Two-electron (AA) energy     =     14.50835897039436
	Two-electron (BB) energy     =     14.50835897039436
	Two-electron (AB) energy     =     23.48869155407742
	Two-electron energy          =     37.99705052447178
	Frozen-core energy (transqt) =      0.00000000000000
	Reference energy             =    -76.02345601894102

*** tstop() called on lawn-143-215-101-15.lawn.gatech.edu at Mon Dec 19 12:31:45 2011
Module time:
	user time   =       0.03 seconds =       0.00 minutes
	system time =       0.04 seconds =       0.00 minutes
	total time  =          1 seconds =       0.02 minutes
Total time:
	user time   =       0.79 seconds =       0.01 minutes
	system time =       0.17 seconds =       0.00 minutes
	total time  =          2 seconds =       0.03 minutes

*** tstart() called on lawn-143-215-101-15.lawn.gatech.edu
*** at Mon Dec 19 12:31:45 2011

			*************************
			*                       *
			*          MP2          *
			*                       *
			*************************

	Nuclear rep. energy     =    9.354372185687163
	SCF energy              =  -76.023456018940990

	Input parameters:
	-----------------
	Wave function 	=	MP2
	Reference WFN 	=	RHF
	Derivative    	=	FIRST
	Cache Level   	=	2
	Cache Type    	=	LRU
	Memory (MB)   	=	256.0
	Print Level   	=	1
	OPDM          	=	NO
	SCS           	=	True
	SCALE_OS      	=	1.200000
	SCALE_SS      	=	0.333333

Warning: SCS-MP2 computation requested but
derivative will be evaluated for standard MP2 energy.

	Scaled_OS correlation energy      =   -0.177919087392158
	Scaled_SS correlation energy      =   -0.016638097164341
	SCS-MP2 correlation energy        =   -0.194557184556500
      * SCS-MP2 total energy              =  -76.218013203497492

	Opposite-spin correlation energy  =   -0.148265906160132
	Same-spin correlation energy      =   -0.049914291493024
	MP2 correlation energy            =   -0.198180197653156
      * MP2 total energy                  =  -76.221636216594149

	Trace of OPDM(2)        =   -0.000000000000000

	Energies re-computed from Fock-adjusted CC density:
	---------------------------------------------------
	One-electron energy        =    0.232340107850272
	IJKL energy                =   -0.628456066775868
	IJKA energy                =   -0.053203504630998
	IJAB energy                =   -0.396360395306312
	IBJA energy                =    0.647499661170701
	MP2 correlation energy    =   -0.198180197692205
	Total MP2 energy          =  -76.221636216633200

	Energies re-computed from Mulliken density:
	-------------------------------------------
	One-electron energy        =    0.232340107850272
	IJKL energy                =   -0.628456066775868
	IJKA energy                =   -0.053203504630998
	IJAB energy                =   -0.425488584101296
	IBJA energy                =    0.676627849965685
	Total two-electron energy  =   -0.430520305542477
	MP2 correlation energy    =   -0.198180197692205
	Total MP2 energy          =  -76.221636216633200

*** tstop() called on lawn-143-215-101-15.lawn.gatech.edu at Mon Dec 19 12:31:45 2011
Module time:
	user time   =       0.04 seconds =       0.00 minutes
	system time =       0.03 seconds =       0.00 minutes
	total time  =          0 seconds =       0.00 minutes
Total time:
	user time   =       0.84 seconds =       0.01 minutes
	system time =       0.20 seconds =       0.00 minutes
	total time  =          2 seconds =       0.03 minutes

*** tstart() called on lawn-143-215-101-15.lawn.gatech.edu
*** at Mon Dec 19 12:31:45 2011

 DERIV: Derivative code.
   by Justin Turney

  Cartesian Displacement SALCs
  By SALC:
  Number of SALCs: 3, nirreps: 1
  Project out translations: False
  Project out rotations: False
	irrep = 0, ncomponent = 1
		0: atom 0, direction z, coef 1.000000
	irrep = 0, ncomponent = 2
		0: atom 1, direction y, coef 0.707107
		1: atom 2, direction y, coef -0.707107
	irrep = 0, ncomponent = 2
		0: atom 1, direction z, coef 0.707107
		1: atom 2, direction z, coef 0.707107

  By Atomic Center:
  Number of atomic centers: 3
   Atomic Center 0:
	x component, size = 0
	y component, size = 0
	z component, size = 1
		0: salc 0, irrep 0, coef 1.000000
   Atomic Center 1:
	x component, size = 0
	y component, size = 1
		0: salc 1, irrep 0, coef 0.707107
	z component, size = 1
		0: salc 2, irrep 0, coef 0.707107
   Atomic Center 2:
	x component, size = 0
	y component, size = 1
		0: salc 1, irrep 0, coef -0.707107
	z component, size = 1
		0: salc 2, irrep 0, coef 0.707107

    Molecular point group: c2v

    Geometry (in Bohr), charge = 0, multiplicity = 1:

       Center              X                  Y                   Z       
    ------------   -----------------  -----------------  -----------------
           O          0.000000000000     0.000000000000    -0.122937392695
           H          0.000000000000    -1.398576245591     0.975552817769
           H          0.000000000000     1.398576245591     0.975552817769

	Presorting MO-basis TPDM.
	Sorting File: MO TPDM (AA|AA) nbuckets = 1
	Starting first half-transformation.
	Sorting half-transformed TPDM.
	First half integral transformation complete.
Read in lower triangle:

           1           2           3           4           5           6           7           8           9          10

    1   2.0786094
    2  -0.1819734   0.5139767
    3   0.0466446  -0.0886063   0.6396310
    4  -0.2220214   0.5051556  -0.3157718   0.6283156
    5   0.0455608  -0.0918491   0.4112245  -0.2594076   0.2984591
    6  -0.0078600  -0.0036178  -0.0054336   0.0030213  -0.0045433   0.0047739
    7  -0.0084377  -0.0009358   0.0024415   0.0010977  -0.0014489  -0.0011168   0.0052590
    8  -0.0033431  -0.0116309   0.0456438  -0.0262387   0.0310181  -0.0018802  -0.0006150   0.0084824
    9  -0.0573184   0.1298634   0.2564980   0.0226063   0.1663056  -0.0038246   0.0024403   0.0187402   0.1821744
   10   0.0117179  -0.0270932   0.1507061  -0.0866440   0.1087450  -0.0016866   0.0008322   0.0121609   0.0673060   0.0413133
   11  -0.0110828   0.0226457   0.0248905   0.0115967   0.0158220  -0.0003744  -0.0003051   0.0017987   0.0211557   0.0062057
   12   0.0104889  -0.0214762   0.0094643  -0.0244150   0.0087132  -0.0001570  -0.0002075   0.0013588  -0.0037503   0.0028460
   13   0.0000000   0.0000000   0.0000000   0.0000000   0.0000000   0.0000000   0.0000000   0.0000000   0.0000000   0.0000000
   14   0.0000000   0.0000000   0.0000000   0.0000000   0.0000000   0.0000000   0.0000000   0.0000000   0.0000000   0.0000000
   15   0.0000000   0.0000000   0.0000000   0.0000000   0.0000000   0.0000000   0.0000000   0.0000000   0.0000000   0.0000000
   16   0.0000000   0.0000000   0.0000000   0.0000000   0.0000000   0.0000000   0.0000000   0.0000000   0.0000000   0.0000000
   17   0.0000000   0.0000000   0.0000000   0.0000000   0.0000000   0.0000000   0.0000000   0.0000000   0.0000000   0.0000000
   18   0.0000000   0.0000000   0.0000000   0.0000000   0.0000000   0.0000000   0.0000000   0.0000000   0.0000000   0.0000000
   19   0.0000000   0.0000000   0.0000000   0.0000000   0.0000000   0.0000000   0.0000000   0.0000000   0.0000000   0.0000000
   20   0.0000000   0.0000000   0.0000000   0.0000000   0.0000000   0.0000000   0.0000000   0.0000000   0.0000000   0.0000000
   21   0.0000000   0.0000000   0.0000000   0.0000000   0.0000000   0.0000000   0.0000000   0.0000000   0.0000000   0.0000000
   22   0.0000000   0.0000000   0.0000000   0.0000000   0.0000000   0.0000000   0.0000000   0.0000000   0.0000000   0.0000000
   23   0.0000000   0.0000000   0.0000000   0.0000000   0.0000000   0.0000000   0.0000000   0.0000000   0.0000000   0.0000000
   24   0.0000000   0.0000000   0.0000000   0.0000000   0.0000000   0.0000000   0.0000000   0.0000000   0.0000000   0.0000000
   25   0.0000000   0.0000000   0.0000000   0.0000000   0.0000000   0.0000000   0.0000000   0.0000000   0.0000000   0.0000000
          11          12          13          14          15          16          17          18          19          20

   11   0.0032002
   12  -0.0007854   0.0016461
   13   0.0000000   0.0000000   0.0126358
   14   0.0000000   0.0000000  -0.0008432   0.0006890
   15   0.0000000   0.0000000   0.0000000   0.0000000   0.8042965
   16   0.0000000   0.0000000   0.0000000   0.0000000   0.6149952   0.5230955
   17   0.0000000   0.0000000   0.0000000   0.0000000   0.0602872   0.0511322   0.0175456
   18   0.0000000   0.0000000   0.0000000   0.0000000   0.0372561   0.0316675   0.0036163   0.0024698
   19   0.0000000   0.0000000   0.0000000   0.0000000   0.0000000   0.0000000   0.0000000   0.0000000   0.5346894
   20   0.0000000   0.0000000   0.0000000   0.0000000   0.0000000   0.0000000   0.0000000   0.0000000   0.2597275   0.1380569
   21   0.0000000   0.0000000   0.0000000   0.0000000   0.0000000   0.0000000   0.0000000   0.0000000   0.0558703   0.0264307
   22   0.0000000   0.0000000   0.0000000   0.0000000   0.0000000   0.0000000   0.0000000   0.0000000  -0.3352969  -0.1758655
   23   0.0000000   0.0000000   0.0000000   0.0000000   0.0000000   0.0000000   0.0000000   0.0000000  -0.1903411  -0.1034590
   24   0.0000000   0.0000000   0.0000000   0.0000000   0.0000000   0.0000000   0.0000000   0.0000000  -0.0112391  -0.0058308
   25   0.0000000   0.0000000   0.0000000   0.0000000   0.0000000   0.0000000   0.0000000   0.0000000   0.0244028   0.0129151
          21          22          23          24          25

   21   0.0184425
   22  -0.0378438   0.2419333
   23  -0.0217246   0.1372765   0.0824392
   24  -0.0009183   0.0088732   0.0042022   0.0009383
   25   0.0019427  -0.0171158  -0.0092559  -0.0006469   0.0018533
Read in lower triangle:

           1           2           3           4           5           6           7           8           9          10

    1 -81.6853651
    2  -1.0929324  -1.6135089
    3  -0.1292730   0.0116674  -1.0769253
    4   0.2114677  -1.2571352   0.2479049  -1.2559835
    5  -0.0101185   0.0521659  -0.4823022   0.2100904  -0.3225771
    6   0.3065712   0.0435046   0.0040288   0.0204704   0.0065909  -0.0371567
    7   0.2902375   0.0377456  -0.0191809   0.0292992   0.0045714  -0.0006585  -0.0421480
    8   0.2906260   0.0456789  -0.0661976   0.0478752  -0.0318125   0.0015989  -0.0046979  -0.0443481
    9   0.2098538  -0.4601736  -0.3705912  -0.2841074  -0.1952520   0.0093500  -0.0054138  -0.0208777  -0.3953710
   10   0.0285105   0.0265420  -0.1685553   0.0801443  -0.1100487  -0.0026953  -0.0095593  -0.0196465  -0.0866503  -0.0498951
   11   0.0782923  -0.0749766  -0.0371914  -0.0537694  -0.0219622   0.0012061   0.0035160  -0.0010526  -0.0532993  -0.0068200
   12  -0.0561961   0.0563034  -0.0044571   0.0501466  -0.0061319  -0.0002443  -0.0011113  -0.0042696   0.0250328  -0.0026511
   13   0.0000000   0.0000000   0.0000000   0.0000000   0.0000000   0.0000000   0.0000000   0.0000000   0.0000000   0.0000000
   14   0.0000000   0.0000000   0.0000000   0.0000000   0.0000000   0.0000000   0.0000000   0.0000000   0.0000000   0.0000000
   15   0.0000000   0.0000000   0.0000000   0.0000000   0.0000000   0.0000000   0.0000000   0.0000000   0.0000000   0.0000000
   16   0.0000000   0.0000000   0.0000000   0.0000000   0.0000000   0.0000000   0.0000000   0.0000000   0.0000000   0.0000000
   17   0.0000000   0.0000000   0.0000000   0.0000000   0.0000000   0.0000000   0.0000000   0.0000000   0.0000000   0.0000000
   18   0.0000000   0.0000000   0.0000000   0.0000000   0.0000000   0.0000000   0.0000000   0.0000000   0.0000000   0.0000000
   19   0.0000000   0.0000000   0.0000000   0.0000000   0.0000000   0.0000000   0.0000000   0.0000000   0.0000000   0.0000000
   20   0.0000000   0.0000000   0.0000000   0.0000000   0.0000000   0.0000000   0.0000000   0.0000000   0.0000000   0.0000000
   21   0.0000000   0.0000000   0.0000000   0.0000000   0.0000000   0.0000000   0.0000000   0.0000000   0.0000000   0.0000000
   22   0.0000000   0.0000000   0.0000000   0.0000000   0.0000000   0.0000000   0.0000000   0.0000000   0.0000000   0.0000000
   23   0.0000000   0.0000000   0.0000000   0.0000000   0.0000000   0.0000000   0.0000000   0.0000000   0.0000000   0.0000000
   24   0.0000000   0.0000000   0.0000000   0.0000000   0.0000000   0.0000000   0.0000000   0.0000000   0.0000000   0.0000000
   25   0.0000000   0.0000000   0.0000000   0.0000000   0.0000000   0.0000000   0.0000000   0.0000000   0.0000000   0.0000000
          11          12          13          14          15          16          17          18          19          20

   11  -0.0123009
   12   0.0045921  -0.0073711
   13   0.0000000   0.0000000  -0.0765189
   14   0.0000000   0.0000000   0.0037531  -0.0047168
   15   0.0000000   0.0000000   0.0000000   0.0000000  -1.1680197
   16   0.0000000   0.0000000   0.0000000   0.0000000  -0.5887414  -0.4559525
   17   0.0000000   0.0000000   0.0000000   0.0000000  -0.0616105  -0.0451725  -0.0824443
   18   0.0000000   0.0000000   0.0000000   0.0000000  -0.0356946  -0.0281321  -0.0051002  -0.0057406
   19   0.0000000   0.0000000   0.0000000   0.0000000   0.0000000   0.0000000   0.0000000   0.0000000  -1.0299295
   20   0.0000000   0.0000000   0.0000000   0.0000000   0.0000000   0.0000000   0.0000000   0.0000000  -0.3967230  -0.2020004
   21   0.0000000   0.0000000   0.0000000   0.0000000   0.0000000   0.0000000   0.0000000   0.0000000  -0.1103655  -0.0384636
   22   0.0000000   0.0000000   0.0000000   0.0000000   0.0000000   0.0000000   0.0000000   0.0000000   0.4983465   0.2405199
   23   0.0000000   0.0000000   0.0000000   0.0000000   0.0000000   0.0000000   0.0000000   0.0000000   0.2482430   0.1322919
   24   0.0000000   0.0000000   0.0000000   0.0000000   0.0000000   0.0000000   0.0000000   0.0000000   0.0169414   0.0096075
   25   0.0000000   0.0000000   0.0000000   0.0000000   0.0000000   0.0000000   0.0000000   0.0000000  -0.0373499  -0.0204305
          21          22          23          24          25

   21  -0.0955581
   22   0.0583862  -0.3894833
   23   0.0327659  -0.1848788  -0.1137791
   24  -0.0014061  -0.0229429  -0.0045032  -0.0067107
   25   0.0007827   0.0311218   0.0107226   0.0025640  -0.0075433




  -Nuclear Repulsion Energy 1st Derivatives:
     Atom            X                  Y                   Z
    ------   -----------------  -----------------  -----------------
       1        0.000000000000     0.000000000000     3.124855551789
       2        0.000000000000     2.117063324791    -1.562427775894
       3        0.000000000000    -2.117063324791    -1.562427775894


  -One-electron contribution to gradient:
     Atom            X                  Y                   Z
    ------   -----------------  -----------------  -----------------
       1        0.000000000000     0.000000000000    -7.135212593182
       2        0.000000000000    -4.732585220400     3.567606296591
       3        0.000000000000     4.732585220400     3.567606296591


  -Lagrangian contribution to gradient:
     Atom            X                  Y                   Z
    ------   -----------------  -----------------  -----------------
       1        0.000000000000     0.000000000000     0.430861002091
       2        0.000000000000     0.260507265718    -0.215430501046
       3        0.000000000000    -0.260507265718    -0.215430501046


  -Two-electron contribution to gradient:
     Atom            X                  Y                   Z
    ------   -----------------  -----------------  -----------------
       1        0.000000000000     0.000000000000     3.604207072081
       2        0.000000000000     2.373577294667    -1.802103536041
       3        0.000000000000    -2.373577294667    -1.802103536041


  -Total gradient:
     Atom            X                  Y                   Z
    ------   -----------------  -----------------  -----------------
       1        0.000000000000     0.000000000000     0.024711032779
       2        0.000000000000     0.018562664775    -0.012355516389
       3        0.000000000000    -0.018562664775    -0.012355516389


*** tstop() called on lawn-143-215-101-15.lawn.gatech.edu at Mon Dec 19 12:31:45 2011
Module time:
	user time   =       0.34 seconds =       0.01 minutes
	system time =       0.03 seconds =       0.00 minutes
	total time  =          0 seconds =       0.00 minutes
Total time:
	user time   =       1.18 seconds =       0.02 minutes
	system time =       0.23 seconds =       0.00 minutes
	total time  =          2 seconds =       0.03 minutes

			----------------------------------
			 OPTKING: for geometry optimizations  
			  - R.A. King,  Bethel University   
			------------------------------------

	Previous internal coordinate definitions found.
	---Fragment 1 Geometry and Gradient---
	 O           0.0000000000        0.0000000000       -0.1229373927
	 H           0.0000000000       -1.3985762456        0.9755528178
	 H           0.0000000000        1.3985762456        0.9755528178
	             0.0000000000        0.0000000000        0.0247110328
	             0.0000000000        0.0185626648       -0.0123555164
	             0.0000000000       -0.0185626648       -0.0123555164

	---Fragment 1 Intrafragment Coordinates---
	 * Coordinate *           * BOHR/RAD *       * ANG/DEG *
	 R(1,2)           =         1.778397	       0.941087
	 R(1,3)           =         1.778397	       0.941087
	 B(2,1,3)         =         1.810000	     103.705364

	Current energy   :       -76.2216362166

	Energy change for the previous step:
		Projected    :        -0.0043224545
		Actual       :        -0.0022543925

	Performing BFGS update with previous 1 gradient(s).
	Following RFO solution 0.
	Projected energy change by RFO approximation:        -0.0009435511

	Back-transformation to cartesian coordinates...
	Successfully converged to displaced geometry.

	---Internal Coordinate Step in ANG or DEG, aJ/ANG or AJ/DEG ---
	 ----------------------------------------------------------------------
	 Coordinate             Previous        Force       Change         New 
	 ----------             --------       ------       ------       ------
	 R(1,2)          =      0.941087     0.183147     0.022207     0.963294
	 R(1,3)          =      0.941087     0.183147     0.022207     0.963294
	 B(2,1,3)        =    103.705364     0.000237     0.392790   104.098154
	 ----------------------------------------------------------------------

	Convergence Check Cycle    2: (using internal coordinates in au)
	                    Actual        Tolerance     Converged?
	----------------------------------------------------------
	MAX Force           2.2e-02        3.0e-04          no
	Energy Change      -2.3e-03        1.0e-06          no
	MAX Displacement    4.2e-02        1.2e-03          no
	----------------------------------------------------------
	Writing optimization data to binary file.
	Structure for next step:
	Cartesian Geometry (au)
	    O     0.0000000000   0.0000000000  -0.1252884673
	    H     0.0000000000  -1.4354246145   0.9942094480
	    H     0.0000000000   1.4354246145   0.9942094480
			--------------------------
			 OPTKING Finished Execution 
			--------------------------

*** tstart() called on lawn-143-215-101-15.lawn.gatech.edu
*** at Mon Dec 19 12:31:45 2011

	There are an even number of electrons - assuming singlet.
	Specify the multiplicity with the MULTP option in the
	input if this is incorrect


         ---------------------------------------------------------
                                   SCF
            by Justin Turney, Rob Parrish, and Andy Simmonett
                              RHF Reference
                        1 Threads,    256 MiB Core
         ---------------------------------------------------------

  ==> Geometry <==

    Molecular point group: c2v

    Geometry (in Angstrom), charge = 0, multiplicity = 1:

       Center              X                  Y                   Z       
    ------------   -----------------  -----------------  -----------------
           O          0.000000000000     0.000000000000    -0.066299806471
           H          0.000000000000    -0.759594048648     0.526113020640
           H          0.000000000000     0.759594048648     0.526113020640

    Number of unique atoms: 2

    Atoms equivalency:
       unique atom 0: 0 
       unique atom 1: 1 2 

  Running in c2v symmetry.

  Nuclear repulsion =    9.137787427723643

  Charge       = 0
  Multiplicity = 1
  Electrons    = 10
  Nalpha       = 5
  Nbeta        = 5

  ==> Algorithm <==

  SCF Algorithm Type is PK.
  DIIS enabled.
  MOM disabled.
  Guess Type is CORE.
  Energy threshold   = 1.00e-09
  Density threshold  = 1.00e-09
  Integral threshold = 0.00e+00

  ==> Primary Basis: 6-31G** <==

  Basis Set
    Number of shells: 12
    Number of basis function: 25
    Number of Cartesian functions: 25
    Spherical Harmonics?: false
    Max angular momentum: 2

  ==> Pre-Iterations <==

  Minimum eigenvalue in the overlap matrix is 2.2097828279E-02.
  Using Symmetric Orthogonalization.
  SCF Guess: Core (One-Electron) Hamiltonian.

  Initial RHF energy:   -58.65902011209115

   -------------------------------------------------------
    Irrep   Nso     Nmo     Nalpha   Nbeta   Ndocc  Nsocc
   -------------------------------------------------------
     A1        12      12       3       3       3       0
     A2         2       2       0       0       0       0
     B1         4       4       1       1       1       0
     B2         7       7       1       1       1       0
   -------------------------------------------------------
    Total      25      25       5       5       5       0
   -------------------------------------------------------

  ==> Integral Setup <==

 MINTS: Wrapper to libmints.
   by Justin Turney

   Calculation information:
      Number of atoms:                   3
      Number of AO shells:              12
      Number of SO shells:               9
      Number of primitives:             25
      Number of atomic orbitals:        25
      Number of basis functions:        25

      Number of irreps:                  4
      Number of functions per irrep: [  12    2    4    7 ]

      Overlap, kinetic, potential, dipole, and quadrupole integrals
        stored in file 35.

      Computing two-electron integrals...done
      Computed 13617 non-zero two-electron integrals.
        Stored in file 33.

  ==> Iterations <==

                        Total Energy        Delta E     Density RMS

   @RHF iter   1:   -68.28263331611431   -9.62361e+00   0.00000e+00  
	Occupation by irrep:
	         A1    A2    B1    B2 
	DOCC [     4,    0,    0,    1 ]
   @RHF iter   2:   -71.41254984503709   -3.12992e+00   5.25967e-01 DIIS
	Occupation by irrep:
	         A1    A2    B1    B2 
	DOCC [     3,    0,    1,    1 ]
   @RHF iter   3:   -75.76911025758139   -4.35656e+00   5.00260e-01 DIIS
   @RHF iter   4:   -76.00554142943437   -2.36431e-01   1.71142e-02 DIIS
   @RHF iter   5:   -76.02230749229014   -1.67661e-02   7.69380e-03 DIIS
   @RHF iter   6:   -76.02267821446209   -3.70722e-04   1.22019e-03 DIIS
   @RHF iter   7:   -76.02271472761245   -3.65132e-05   5.16009e-04 DIIS
   @RHF iter   8:   -76.02271580869422   -1.08108e-06   8.13709e-05 DIIS
   @RHF iter   9:   -76.02271587287501   -6.41808e-08   2.28577e-05 DIIS
   @RHF iter  10:   -76.02271587442199   -1.54698e-09   3.69023e-06 DIIS
   @RHF iter  11:   -76.02271587442766   -5.67013e-12   1.65359e-07 DIIS
   @RHF iter  12:   -76.02271587442780   -1.42109e-13   3.16828e-08 DIIS
   @RHF iter  13:   -76.02271587442779    1.42109e-14   5.81008e-09 DIIS

  ==> Post-Iterations <==

	Orbital Energies (a.u.)
	-----------------------

	Doubly Occupied:                                                      

	   1A1   -20.561933     2A1    -1.337564     1B2    -0.699423  
	   3A1    -0.568502     1B1    -0.496894  

	Virtual:                                                              

	   4A1     0.210754     2B2     0.303114     3B2     0.999987  
	   5A1     1.082987     6A1     1.131997     2B1     1.168862  
	   4B2     1.294650     7A1     1.415007     1A2     1.803865  
	   8A1     1.814275     3B1     1.923608     9A1     2.562958  
	   5B2     2.572210     6B2     2.794278     2A2     2.970366  
	   4B1     2.985940    10A1     3.365234    11A1     3.696456  
	   7B2     3.918957    12A1     4.102785  

	Final Occupation by Irrep:
	         A1    A2    B1    B2 
	DOCC [     3,    0,    1,    1 ]

  Energy converged.

  @RHF Final Energy:   -76.02271587442779

  ==> Properties <==
  Nuclear Dipole Moment: (a.u.)
     X:     0.0000      Y:     0.0000      Z:     0.9861

  Electronic Dipole Moment: (a.u.)
     X:     0.0000      Y:     0.0000      Z:    -0.1219

  Dipole Moment: (a.u.)
     X:     0.0000      Y:     0.0000      Z:     0.8642     Total:     0.8642

  Dipole Moment: (Debye)
     X:     0.0000      Y:     0.0000      Z:     2.1966     Total:     2.1966


  Saving occupied orbitals to File 180.

*** tstop() called on lawn-143-215-101-15.lawn.gatech.edu at Mon Dec 19 12:31:45 2011
Module time:
	user time   =       0.16 seconds =       0.00 minutes
	system time =       0.01 seconds =       0.00 minutes
	total time  =          0 seconds =       0.00 minutes
Total time:
	user time   =       1.34 seconds =       0.02 minutes
	system time =       0.24 seconds =       0.00 minutes
	total time  =          2 seconds =       0.03 minutes

*** tstart() called on lawn-143-215-101-15.lawn.gatech.edu
*** at Mon Dec 19 12:31:45 2011


	**************************************************
	* TRANSQT2: Program to transform integrals from  *
	*           the SO basis to the MO basis.        *
	*                                                *
	*            Daniel, David, & Justin             *
	**************************************************


	Input parameters:
	-----------------
	Wave function   =	MP2
	Backtransform   =	No
	Print Level     =	1
	Print TEIs      =	No
	Reference wfn   =	RHF
	Derivative      =	First
	Delete TEI File =	Yes
	Memory (Mbytes) =	256.0
	Cache Level     =	2
	Cache Type      =	LRU
	Chkpt Parameters:
	--------------------
	Number of irreps     = 4
	Number of SOs        = 25
	Number of MOs        = 25
	Number of active MOs = 25

	Label	# SOs	# FZDC	# DOCC	# SOCC	# VIRT	# FZVR
	-----	-----	------	------	------	------	------
	 A1	   12	    0	    3	    0	    9	    0
	 A2	   2	    0	    0	    0	    2	    0
	 B1	   4	    0	    1	    0	    3	    0
	 B2	   7	    0	    1	    0	    6	    0

	Nuclear Rep. energy (chkpt) =      9.13778742772364
	SCF energy          (chkpt) =    -76.02271587442779

	Presorting SO-basis two-electron integrals.
	Sorting File: SO Ints (pq,rs) nbuckets = 1
	Frozen-core energy =    0.000000000000000
	Starting first half-transformation.
	Sorting half-transformed integrals.
	Starting second half-transformation.
	Two-electron integral transformation complete.

*** tstop() called on lawn-143-215-101-15.lawn.gatech.edu at Mon Dec 19 12:31:45 2011
Module time:
	user time   =       0.02 seconds =       0.00 minutes
	system time =       0.01 seconds =       0.00 minutes
	total time  =          0 seconds =       0.00 minutes
Total time:
	user time   =       1.36 seconds =       0.02 minutes
	system time =       0.25 seconds =       0.00 minutes
	total time  =          2 seconds =       0.03 minutes

*** tstart() called on lawn-143-215-101-15.lawn.gatech.edu
*** at Mon Dec 19 12:31:45 2011


			**************************
			*                        *
			*         CCSORT         *
			*                        *
			**************************


	Input parameters:
	-----------------
	Wave function   =	MP2
	Reference wfn   =	RHF
	Derivative      =	First
	Memory (Mbytes) =	256.0
	AO Basis        =	NONE
	Make (ab|cd)    =	False
	Make unpacked (ab|cd) =	False
	Cache Level     =	2
	Cache Type      =	LRU
	Local CC        =     No


	Chkpt Parameters:
	--------------------
	Number of irreps     = 4
	Number of MOs        = 25
	Number of active MOs = 25

	Label	# MOs	# FZDC	# DOCC	# SOCC	# VIRT	# FZVR
	-----	-----	------	------	------	------	------
	 A1	   12	    0	    3	    0	    9	    0
	 A2	   2	    0	    0	    0	    2	    0
	 B1	   4	    0	    1	    0	    3	    0
	 B2	   7	    0	    1	    0	    6	    0

	Nuclear Rep. energy (chkpt) =      9.13778742772364
	SCF energy          (chkpt) =    -76.02271587442779

	Size of irrep 0 of <ab|cd> integrals:      0.017 (MW) /      0.135 (MB)
	Size of irrep 1 of <ab|cd> integrals:      0.005 (MW) /      0.041 (MB)
	Size of irrep 2 of <ab|cd> integrals:      0.006 (MW) /      0.049 (MB)
	Size of irrep 3 of <ab|cd> integrals:      0.014 (MW) /      0.115 (MB)
	Total:                                     0.043 (MW) /      0.341 (MB)

	Size of irrep 0 of <ia|bc> integrals:      0.005 (MW) /      0.037 (MB)
	Size of irrep 1 of <ia|bc> integrals:      0.001 (MW) /      0.009 (MB)
	Size of irrep 2 of <ia|bc> integrals:      0.002 (MW) /      0.012 (MB)
	Size of irrep 3 of <ia|bc> integrals:      0.003 (MW) /      0.028 (MB)
	Total:                                     0.011 (MW) /      0.086 (MB)

	Size of irrep 0 of tijab amplitudes:       0.001 (MW) /      0.011 (MB)
	Size of irrep 1 of tijab amplitudes:       0.000 (MW) /      0.001 (MB)
	Size of irrep 2 of tijab amplitudes:       0.000 (MW) /      0.004 (MB)
	Size of irrep 3 of tijab amplitudes:       0.001 (MW) /      0.006 (MB)
	Total:                                     0.003 (MW) /      0.022 (MB)


	Sorting File: A <ij|kl> nbuckets = 1
	Sorting File: C <ia|jb> nbuckets = 1
	Sorting File: D <ij|ab> nbuckets = 1
	Sorting File: E <ai|jk> nbuckets = 1
	Sorting File: F <ia|bc> nbuckets = 1
	Sorting File: F <ai|bc> nbuckets = 1
	One-electron energy          =   -122.99237555309529
	Two-electron (AA) energy     =     14.43798461611032
	Two-electron (BB) energy     =     14.43798461611032
	Two-electron (AB) energy     =     23.39388763483350
	Two-electron energy          =     37.83187225094383
	Frozen-core energy (transqt) =      0.00000000000000
	Reference energy             =    -76.02271587442782

*** tstop() called on lawn-143-215-101-15.lawn.gatech.edu at Mon Dec 19 12:31:46 2011
Module time:
	user time   =       0.03 seconds =       0.00 minutes
	system time =       0.04 seconds =       0.00 minutes
	total time  =          1 seconds =       0.02 minutes
Total time:
	user time   =       1.39 seconds =       0.02 minutes
	system time =       0.29 seconds =       0.00 minutes
	total time  =          3 seconds =       0.05 minutes

*** tstart() called on lawn-143-215-101-15.lawn.gatech.edu
*** at Mon Dec 19 12:31:46 2011

			*************************
			*                       *
			*          MP2          *
			*                       *
			*************************

	Nuclear rep. energy     =    9.137787427723643
	SCF energy              =  -76.022715874427789

	Input parameters:
	-----------------
	Wave function 	=	MP2
	Reference WFN 	=	RHF
	Derivative    	=	FIRST
	Cache Level   	=	2
	Cache Type    	=	LRU
	Memory (MB)   	=	256.0
	Print Level   	=	1
	OPDM          	=	NO
	SCS           	=	True
	SCALE_OS      	=	1.200000
	SCALE_SS      	=	0.333333

Warning: SCS-MP2 computation requested but
derivative will be evaluated for standard MP2 energy.

	Scaled_OS correlation energy      =   -0.179402016495473
	Scaled_SS correlation energy      =   -0.016738696814069
	SCS-MP2 correlation energy        =   -0.196140713309542
      * SCS-MP2 total energy              =  -76.218856587737335

	Opposite-spin correlation energy  =   -0.149501680412894
	Same-spin correlation energy      =   -0.050216090442208
	MP2 correlation energy            =   -0.199717770855102
      * MP2 total energy                  =  -76.222433645282891

	Trace of OPDM(2)        =   -0.000000000000000

	Energies re-computed from Fock-adjusted CC density:
	---------------------------------------------------
	One-electron energy        =    0.230261563449071
	IJKL energy                =   -0.639985453427001
	IJKA energy                =   -0.051578275531802
	IJAB energy                =   -0.399435541710203
	IBJA energy                =    0.661019936358974
	MP2 correlation energy    =   -0.199717770860961
	Total MP2 energy          =  -76.222433645288746

	Energies re-computed from Mulliken density:
	-------------------------------------------
	One-electron energy        =    0.230261563449071
	IJKL energy                =   -0.639985453427001
	IJKA energy                =   -0.051578275531802
	IJAB energy                =   -0.429350978621784
	IBJA energy                =    0.690935373270555
	Total two-electron energy  =   -0.429979334310032
	MP2 correlation energy    =   -0.199717770860961
	Total MP2 energy          =  -76.222433645288746

*** tstop() called on lawn-143-215-101-15.lawn.gatech.edu at Mon Dec 19 12:31:46 2011
Module time:
	user time   =       0.04 seconds =       0.00 minutes
	system time =       0.03 seconds =       0.00 minutes
	total time  =          0 seconds =       0.00 minutes
Total time:
	user time   =       1.44 seconds =       0.02 minutes
	system time =       0.32 seconds =       0.01 minutes
	total time  =          3 seconds =       0.05 minutes

*** tstart() called on lawn-143-215-101-15.lawn.gatech.edu
*** at Mon Dec 19 12:31:46 2011

 DERIV: Derivative code.
   by Justin Turney

  Cartesian Displacement SALCs
  By SALC:
  Number of SALCs: 3, nirreps: 1
  Project out translations: False
  Project out rotations: False
	irrep = 0, ncomponent = 1
		0: atom 0, direction z, coef 1.000000
	irrep = 0, ncomponent = 2
		0: atom 1, direction y, coef 0.707107
		1: atom 2, direction y, coef -0.707107
	irrep = 0, ncomponent = 2
		0: atom 1, direction z, coef 0.707107
		1: atom 2, direction z, coef 0.707107

  By Atomic Center:
  Number of atomic centers: 3
   Atomic Center 0:
	x component, size = 0
	y component, size = 0
	z component, size = 1
		0: salc 0, irrep 0, coef 1.000000
   Atomic Center 1:
	x component, size = 0
	y component, size = 1
		0: salc 1, irrep 0, coef 0.707107
	z component, size = 1
		0: salc 2, irrep 0, coef 0.707107
   Atomic Center 2:
	x component, size = 0
	y component, size = 1
		0: salc 1, irrep 0, coef -0.707107
	z component, size = 1
		0: salc 2, irrep 0, coef 0.707107

    Molecular point group: c2v

    Geometry (in Bohr), charge = 0, multiplicity = 1:

       Center              X                  Y                   Z       
    ------------   -----------------  -----------------  -----------------
           O          0.000000000000     0.000000000000    -0.125288467326
           H          0.000000000000    -1.435424614501     0.994209448033
           H          0.000000000000     1.435424614501     0.994209448033

	Presorting MO-basis TPDM.
	Sorting File: MO TPDM (AA|AA) nbuckets = 1
	Starting first half-transformation.
	Sorting half-transformed TPDM.
	First half integral transformation complete.
Read in lower triangle:

           1           2           3           4           5           6           7           8           9          10

    1   2.0787249
    2  -0.1831159   0.5181214
    3   0.0468397  -0.0888077   0.6342405
    4  -0.2252044   0.5130097  -0.3118319   0.6388876
    5   0.0443007  -0.0888168   0.4099496  -0.2555421   0.2987104
    6  -0.0076509  -0.0038638  -0.0049743   0.0025512  -0.0042420   0.0047399
    7  -0.0086818  -0.0005846   0.0030835   0.0013035  -0.0009381  -0.0011449   0.0052092
    8  -0.0035873  -0.0111930   0.0448672  -0.0253998   0.0307586  -0.0018612  -0.0005995   0.0083497
    9  -0.0535024   0.1229712   0.2538935   0.0192581   0.1675389  -0.0036935   0.0029607   0.0186963   0.1757682
   10   0.0125357  -0.0283152   0.1595289  -0.0913080   0.1160397  -0.0016998   0.0009992   0.0127784   0.0715631   0.0468383
   11  -0.0105037   0.0219150   0.0245592   0.0113742   0.0158488  -0.0003489  -0.0002349   0.0018188   0.0201804   0.0065507
   12   0.0100907  -0.0209185   0.0088785  -0.0238690   0.0082387  -0.0001459  -0.0002513   0.0012934  -0.0034090   0.0028884
   13   0.0000000   0.0000000   0.0000000   0.0000000   0.0000000   0.0000000   0.0000000   0.0000000   0.0000000   0.0000000
   14   0.0000000   0.0000000   0.0000000   0.0000000   0.0000000   0.0000000   0.0000000   0.0000000   0.0000000   0.0000000
   15   0.0000000   0.0000000   0.0000000   0.0000000   0.0000000   0.0000000   0.0000000   0.0000000   0.0000000   0.0000000
   16   0.0000000   0.0000000   0.0000000   0.0000000   0.0000000   0.0000000   0.0000000   0.0000000   0.0000000   0.0000000
   17   0.0000000   0.0000000   0.0000000   0.0000000   0.0000000   0.0000000   0.0000000   0.0000000   0.0000000   0.0000000
   18   0.0000000   0.0000000   0.0000000   0.0000000   0.0000000   0.0000000   0.0000000   0.0000000   0.0000000   0.0000000
   19   0.0000000   0.0000000   0.0000000   0.0000000   0.0000000   0.0000000   0.0000000   0.0000000   0.0000000   0.0000000
   20   0.0000000   0.0000000   0.0000000   0.0000000   0.0000000   0.0000000   0.0000000   0.0000000   0.0000000   0.0000000
   21   0.0000000   0.0000000   0.0000000   0.0000000   0.0000000   0.0000000   0.0000000   0.0000000   0.0000000   0.0000000
   22   0.0000000   0.0000000   0.0000000   0.0000000   0.0000000   0.0000000   0.0000000   0.0000000   0.0000000   0.0000000
   23   0.0000000   0.0000000   0.0000000   0.0000000   0.0000000   0.0000000   0.0000000   0.0000000   0.0000000   0.0000000
   24   0.0000000   0.0000000   0.0000000   0.0000000   0.0000000   0.0000000   0.0000000   0.0000000   0.0000000   0.0000000
   25   0.0000000   0.0000000   0.0000000   0.0000000   0.0000000   0.0000000   0.0000000   0.0000000   0.0000000   0.0000000
          11          12          13          14          15          16          17          18          19          20

   11   0.0030385
   12  -0.0007322   0.0015669
   13   0.0000000   0.0000000   0.0126446
   14   0.0000000   0.0000000  -0.0008701   0.0006718
   15   0.0000000   0.0000000   0.0000000   0.0000000   0.8052261
   16   0.0000000   0.0000000   0.0000000   0.0000000   0.6157833   0.5246208
   17   0.0000000   0.0000000   0.0000000   0.0000000   0.0590808   0.0502937   0.0173218
[...]
	Two-electron (BB) energy     =     14.44534560230280
	Two-electron (AB) energy     =     23.40382003572083
	Two-electron energy          =     37.84916563802363
	Frozen-core energy (transqt) =      0.00000000000000
	Reference energy             =    -76.02288733164814

*** tstop() called on lawn-143-215-101-15.lawn.gatech.edu at Mon Dec 19 12:31:50 2011
Module time:
	user time   =       0.03 seconds =       0.00 minutes
	system time =       0.04 seconds =       0.00 minutes
	total time  =          1 seconds =       0.02 minutes
Total time:
	user time   =       1.98 seconds =       0.03 minutes
	system time =       0.42 seconds =       0.01 minutes
	total time  =          7 seconds =       0.12 minutes

*** tstart() called on lawn-143-215-101-15.lawn.gatech.edu
*** at Mon Dec 19 12:31:50 2011

			*************************
			*                       *
			*          MP2          *
			*                       *
			*************************

	Nuclear rep. energy     =    9.160896116712561
	SCF energy              =  -76.022887331648150

	Input parameters:
	-----------------
	Wave function 	=	MP2
	Reference WFN 	=	RHF
	Derivative    	=	FIRST
	Cache Level   	=	2
	Cache Type    	=	LRU
	Memory (MB)   	=	256.0
	Print Level   	=	1
	OPDM          	=	NO
	SCS           	=	True
	SCALE_OS      	=	1.200000
	SCALE_SS      	=	0.333333

Warning: SCS-MP2 computation requested but
derivative will be evaluated for standard MP2 energy.

	Scaled_OS correlation energy      =   -0.179250432122353
	Scaled_SS correlation energy      =   -0.016728603540867
	SCS-MP2 correlation energy        =   -0.195979035663219
      * SCS-MP2 total energy              =  -76.218866367311378

	Opposite-spin correlation energy  =   -0.149375360101961
	Same-spin correlation energy      =   -0.050185810622600
	MP2 correlation energy            =   -0.199561170724560
      * MP2 total energy                  =  -76.222448502372714

	Trace of OPDM(2)        =    0.000000000000000

	Energies re-computed from Fock-adjusted CC density:
	---------------------------------------------------
	One-electron energy        =    0.230466741067607
	IJKL energy                =   -0.638785672979167
	IJKA energy                =   -0.051738133902309
	IJAB energy                =   -0.399122341449121
	IBJA energy                =    0.659618236532917
	MP2 correlation energy    =   -0.199561170730072
	Total MP2 energy          =  -76.222448502378228

	Energies re-computed from Mulliken density:
	-------------------------------------------
	One-electron energy        =    0.230466741067607
	IJKL energy                =   -0.638785672979167
	IJKA energy                =   -0.051738133902309
	IJAB energy                =   -0.428956093652719
	IBJA energy                =    0.689451988736515
	Total two-electron energy  =   -0.430027911797679
	MP2 correlation energy    =   -0.199561170730072
	Total MP2 energy          =  -76.222448502378228

*** tstop() called on lawn-143-215-101-15.lawn.gatech.edu at Mon Dec 19 12:31:51 2011
Module time:
	user time   =       0.03 seconds =       0.00 minutes
	system time =       0.03 seconds =       0.00 minutes
	total time  =          1 seconds =       0.02 minutes
Total time:
	user time   =       2.03 seconds =       0.03 minutes
	system time =       0.45 seconds =       0.01 minutes
	total time  =          8 seconds =       0.13 minutes

*** tstart() called on lawn-143-215-101-15.lawn.gatech.edu
*** at Mon Dec 19 12:31:51 2011

 DERIV: Derivative code.
   by Justin Turney

  Cartesian Displacement SALCs
  By SALC:
  Number of SALCs: 3, nirreps: 1
  Project out translations: False
  Project out rotations: False
	irrep = 0, ncomponent = 1
		0: atom 0, direction z, coef 1.000000
	irrep = 0, ncomponent = 2
		0: atom 1, direction y, coef 0.707107
		1: atom 2, direction y, coef -0.707107
	irrep = 0, ncomponent = 2
		0: atom 1, direction z, coef 0.707107
		1: atom 2, direction z, coef 0.707107

  By Atomic Center:
  Number of atomic centers: 3
   Atomic Center 0:
	x component, size = 0
	y component, size = 0
	z component, size = 1
		0: salc 0, irrep 0, coef 1.000000
   Atomic Center 1:
	x component, size = 0
	y component, size = 1
		0: salc 1, irrep 0, coef 0.707107
	z component, size = 1
		0: salc 2, irrep 0, coef 0.707107
   Atomic Center 2:
	x component, size = 0
	y component, size = 1
		0: salc 1, irrep 0, coef -0.707107
	z component, size = 1
		0: salc 2, irrep 0, coef 0.707107

    Molecular point group: c2v

    Geometry (in Bohr), charge = 0, multiplicity = 1:

       Center              X                  Y                   Z       
    ------------   -----------------  -----------------  -----------------
           O          0.000000000000     0.000000000000    -0.125200520818
           H          0.000000000000    -1.430307386736     0.993511560578
           H          0.000000000000     1.430307386736     0.993511560578

	Presorting MO-basis TPDM.
	Sorting File: MO TPDM (AA|AA) nbuckets = 1
	Starting first half-transformation.
	Sorting half-transformed TPDM.
	First half integral transformation complete.
Read in lower triangle:

           1           2           3           4           5           6           7           8           9          10

    1   2.0787214
    2  -0.1830223   0.5177602
    3   0.0468421  -0.0888288   0.6345515
    4  -0.2249292   0.5123119  -0.3123652   0.6380766
    5   0.0444456  -0.0891625   0.4097339  -0.2559668   0.2982984
    6  -0.0076744  -0.0038331  -0.0050190   0.0026077  -0.0042694   0.0047426
    7  -0.0086500  -0.0006346   0.0030121   0.0012707  -0.0009937  -0.0011421   0.0052114
    8  -0.0035533  -0.0112507   0.0449774  -0.0255270   0.0307900  -0.0018628  -0.0006012   0.0083705
    9  -0.0538634   0.1236270   0.2543328   0.0194108   0.1674421  -0.0037080   0.0029001   0.0187351   0.1765984
   10   0.0124802  -0.0282478   0.1585886  -0.0909320   0.1152117  -0.0016994   0.0009779   0.0127264   0.0711681   0.0462508
   11  -0.0105584   0.0219785   0.0246140   0.0113707   0.0158535  -0.0003515  -0.0002430   0.0018207   0.0202963   0.0065209
   12   0.0101445  -0.0210013   0.0089130  -0.0239454   0.0082703  -0.0001468  -0.0002472   0.0013003  -0.0034593   0.0028812
   13   0.0000000   0.0000000   0.0000000   0.0000000   0.0000000   0.0000000   0.0000000   0.0000000   0.0000000   0.0000000
   14   0.0000000   0.0000000   0.0000000   0.0000000   0.0000000   0.0000000   0.0000000   0.0000000   0.0000000   0.0000000
   15   0.0000000   0.0000000   0.0000000   0.0000000   0.0000000   0.0000000   0.0000000   0.0000000   0.0000000   0.0000000
   16   0.0000000   0.0000000   0.0000000   0.0000000   0.0000000   0.0000000   0.0000000   0.0000000   0.0000000   0.0000000
   17   0.0000000   0.0000000   0.0000000   0.0000000   0.0000000   0.0000000   0.0000000   0.0000000   0.0000000   0.0000000
   18   0.0000000   0.0000000   0.0000000   0.0000000   0.0000000   0.0000000   0.0000000   0.0000000   0.0000000   0.0000000
   19   0.0000000   0.0000000   0.0000000   0.0000000   0.0000000   0.0000000   0.0000000   0.0000000   0.0000000   0.0000000
   20   0.0000000   0.0000000   0.0000000   0.0000000   0.0000000   0.0000000   0.0000000   0.0000000   0.0000000   0.0000000
   21   0.0000000   0.0000000   0.0000000   0.0000000   0.0000000   0.0000000   0.0000000   0.0000000   0.0000000   0.0000000
   22   0.0000000   0.0000000   0.0000000   0.0000000   0.0000000   0.0000000   0.0000000   0.0000000   0.0000000   0.0000000
   23   0.0000000   0.0000000   0.0000000   0.0000000   0.0000000   0.0000000   0.0000000   0.0000000   0.0000000   0.0000000
   24   0.0000000   0.0000000   0.0000000   0.0000000   0.0000000   0.0000000   0.0000000   0.0000000   0.0000000   0.0000000
   25   0.0000000   0.0000000   0.0000000   0.0000000   0.0000000   0.0000000   0.0000000   0.0000000   0.0000000   0.0000000
          11          12          13          14          15          16          17          18          19          20

   11   0.0030567
   12  -0.0007389   0.0015776
   13   0.0000000   0.0000000   0.0126423
   14   0.0000000   0.0000000  -0.0008673   0.0006737
   15   0.0000000   0.0000000   0.0000000   0.0000000   0.8051505
   16   0.0000000   0.0000000   0.0000000   0.0000000   0.6156965   0.5244370
   17   0.0000000   0.0000000   0.0000000   0.0000000   0.0592613   0.0504281   0.0173537
   18   0.0000000   0.0000000   0.0000000   0.0000000   0.0365164   0.0310836   0.0035266   0.0023777
   19   0.0000000   0.0000000   0.0000000   0.0000000   0.0000000   0.0000000   0.0000000   0.0000000   0.5303099
   20   0.0000000   0.0000000   0.0000000   0.0000000   0.0000000   0.0000000   0.0000000   0.0000000   0.2617498   0.1413051
   21   0.0000000   0.0000000   0.0000000   0.0000000   0.0000000   0.0000000   0.0000000   0.0000000   0.0548573   0.0264883
   22   0.0000000   0.0000000   0.0000000   0.0000000   0.0000000   0.0000000   0.0000000   0.0000000  -0.3301374  -0.1761123
   23   0.0000000   0.0000000   0.0000000   0.0000000   0.0000000   0.0000000   0.0000000   0.0000000  -0.1945871  -0.1075533
   24   0.0000000   0.0000000   0.0000000   0.0000000   0.0000000   0.0000000   0.0000000   0.0000000  -0.0116218  -0.0060894
   25   0.0000000   0.0000000   0.0000000   0.0000000   0.0000000   0.0000000   0.0000000   0.0000000   0.0240059   0.0128838
          21          22          23          24          25

   21   0.0181982
   22  -0.0372536   0.2370488
   23  -0.0220565   0.1397428   0.0871454
   24  -0.0009615   0.0089707   0.0044552   0.0009307
   25   0.0019012  -0.0166420  -0.0093652  -0.0006435   0.0017895
Read in lower triangle:

           1           2           3           4           5           6           7           8           9          10

    1 -81.6970703
    2  -1.0859992  -1.6182912
    3  -0.1264644   0.0182758  -1.0635199
    4   0.2210960  -1.2694274   0.2425249  -1.2730199
    5  -0.0042366   0.0468554  -0.4792831   0.2023683  -0.3210069
    6   0.3035613   0.0433162   0.0035196   0.0204952   0.0063401  -0.0367640
    7   0.2943499   0.0365397  -0.0193830   0.0272778   0.0038787  -0.0003749  -0.0412630
    8   0.2933174   0.0448367  -0.0643155   0.0456787  -0.0314935   0.0017956  -0.0043531  -0.0434516
    9   0.1902158  -0.4390135  -0.3616902  -0.2740262  -0.1954748   0.0091194  -0.0069375  -0.0212401  -0.3733360
   10   0.0264946   0.0257545  -0.1751391   0.0812960  -0.1158346  -0.0024674  -0.0093865  -0.0198169  -0.0902857  -0.0545627
   11   0.0706128  -0.0726960  -0.0369196  -0.0525408  -0.0219980   0.0011155   0.0031740  -0.0013551  -0.0498820  -0.0071835
   12  -0.0516149   0.0549771  -0.0035480   0.0490997  -0.0054624  -0.0002006  -0.0007496  -0.0040704   0.0233384  -0.0025614
   13   0.0000000   0.0000000   0.0000000   0.0000000   0.0000000   0.0000000   0.0000000   0.0000000   0.0000000   0.0000000
   14   0.0000000   0.0000000   0.0000000   0.0000000   0.0000000   0.0000000   0.0000000   0.0000000   0.0000000   0.0000000
   15   0.0000000   0.0000000   0.0000000   0.0000000   0.0000000   0.0000000   0.0000000   0.0000000   0.0000000   0.0000000
   16   0.0000000   0.0000000   0.0000000   0.0000000   0.0000000   0.0000000   0.0000000   0.0000000   0.0000000   0.0000000
   17   0.0000000   0.0000000   0.0000000   0.0000000   0.0000000   0.0000000   0.0000000   0.0000000   0.0000000   0.0000000
   18   0.0000000   0.0000000   0.0000000   0.0000000   0.0000000   0.0000000   0.0000000   0.0000000   0.0000000   0.0000000
   19   0.0000000   0.0000000   0.0000000   0.0000000   0.0000000   0.0000000   0.0000000   0.0000000   0.0000000   0.0000000
   20   0.0000000   0.0000000   0.0000000   0.0000000   0.0000000   0.0000000   0.0000000   0.0000000   0.0000000   0.0000000
   21   0.0000000   0.0000000   0.0000000   0.0000000   0.0000000   0.0000000   0.0000000   0.0000000   0.0000000   0.0000000
   22   0.0000000   0.0000000   0.0000000   0.0000000   0.0000000   0.0000000   0.0000000   0.0000000   0.0000000   0.0000000
   23   0.0000000   0.0000000   0.0000000   0.0000000   0.0000000   0.0000000   0.0000000   0.0000000   0.0000000   0.0000000
   24   0.0000000   0.0000000   0.0000000   0.0000000   0.0000000   0.0000000   0.0000000   0.0000000   0.0000000   0.0000000
   25   0.0000000   0.0000000   0.0000000   0.0000000   0.0000000   0.0000000   0.0000000   0.0000000   0.0000000   0.0000000
          11          12          13          14          15          16          17          18          19          20

   11  -0.0114986
   12   0.0042562  -0.0070104
   13   0.0000000   0.0000000  -0.0760523
   14   0.0000000   0.0000000   0.0038788  -0.0045482
   15   0.0000000   0.0000000   0.0000000   0.0000000  -1.1687325
   16   0.0000000   0.0000000   0.0000000   0.0000000  -0.5867557  -0.4537701
   17   0.0000000   0.0000000   0.0000000   0.0000000  -0.0599537  -0.0442939  -0.0816859
   18   0.0000000   0.0000000   0.0000000   0.0000000  -0.0349127  -0.0273557  -0.0051041  -0.0054821
   19   0.0000000   0.0000000   0.0000000   0.0000000   0.0000000   0.0000000   0.0000000   0.0000000  -1.0125578
   20   0.0000000   0.0000000   0.0000000   0.0000000   0.0000000   0.0000000   0.0000000   0.0000000  -0.3961341  -0.2046890
   21   0.0000000   0.0000000   0.0000000   0.0000000   0.0000000   0.0000000   0.0000000   0.0000000  -0.1062681  -0.0383085
   22   0.0000000   0.0000000   0.0000000   0.0000000   0.0000000   0.0000000   0.0000000   0.0000000   0.4855576   0.2382073
   23   0.0000000   0.0000000   0.0000000   0.0000000   0.0000000   0.0000000   0.0000000   0.0000000   0.2506694   0.1357174
   24   0.0000000   0.0000000   0.0000000   0.0000000   0.0000000   0.0000000   0.0000000   0.0000000   0.0179095   0.0100082
   25   0.0000000   0.0000000   0.0000000   0.0000000   0.0000000   0.0000000   0.0000000   0.0000000  -0.0368641  -0.0202781
          21          22          23          24          25

   21  -0.0935958
   22   0.0580288  -0.3756746
   23   0.0326545  -0.1859421  -0.1184673
   24  -0.0010648  -0.0222518  -0.0048166  -0.0063894
   25   0.0005664   0.0295253   0.0107560   0.0023653  -0.0071011




  -Nuclear Repulsion Energy 1st Derivatives:
     Atom            X                  Y                   Z
    ------   -----------------  -----------------  -----------------
       1        0.000000000000     0.000000000000     2.989519694294
       2        0.000000000000     2.033298705953    -1.494759847147
       3        0.000000000000    -2.033298705953    -1.494759847147


  -One-electron contribution to gradient:
     Atom            X                  Y                   Z
    ------   -----------------  -----------------  -----------------
       1        0.000000000000     0.000000000000    -6.875609424170
       2        0.000000000000    -4.605418745713     3.437804712085
       3        0.000000000000     4.605418745713     3.437804712085


  -Lagrangian contribution to gradient:
     Atom            X                  Y                   Z
    ------   -----------------  -----------------  -----------------
       1        0.000000000000     0.000000000000     0.416116217955
       2        0.000000000000     0.254193604857    -0.208058108978
       3        0.000000000000    -0.254193604857    -0.208058108978


  -Two-electron contribution to gradient:
     Atom            X                  Y                   Z
    ------   -----------------  -----------------  -----------------
       1        0.000000000000     0.000000000000     3.469942366711
       2        0.000000000000     2.317721410158    -1.734971183356
       3        0.000000000000    -2.317721410158    -1.734971183356


  -Total gradient:
     Atom            X                  Y                   Z
    ------   -----------------  -----------------  -----------------
       1        0.000000000000     0.000000000000    -0.000031145210
       2        0.000000000000    -0.000205024744     0.000015572605
       3        0.000000000000     0.000205024744     0.000015572605


*** tstop() called on lawn-143-215-101-15.lawn.gatech.edu at Mon Dec 19 12:31:52 2011
Module time:
	user time   =       0.33 seconds =       0.01 minutes
	system time =       0.03 seconds =       0.00 minutes
	total time  =          1 seconds =       0.02 minutes
Total time:
	user time   =       2.36 seconds =       0.04 minutes
	system time =       0.48 seconds =       0.01 minutes
	total time  =          9 seconds =       0.15 minutes

			----------------------------------
			 OPTKING: for geometry optimizations  
			  - R.A. King,  Bethel University   
			------------------------------------

	Previous internal coordinate definitions found.
	---Fragment 1 Geometry and Gradient---
	 O           0.0000000000        0.0000000000       -0.1252005208
	 H           0.0000000000       -1.4303073867        0.9935115606
	 H           0.0000000000        1.4303073867        0.9935115606
	             0.0000000000        0.0000000000       -0.0000311452
	             0.0000000000       -0.0002050247        0.0000155726
	             0.0000000000        0.0002050247        0.0000155726

	---Fragment 1 Intrafragment Coordinates---
	 * Coordinate *           * BOHR/RAD *       * ANG/DEG *
	 R(1,2)           =         1.815846	       0.960904
	 R(1,3)           =         1.815846	       0.960904
	 B(2,1,3)         =         1.814072	     103.938661

	Current energy   :       -76.2224485024

	Energy change for the previous step:
		Projected    :        -0.0000137621
		Actual       :        -0.0000148571
	Energy ratio indicates good step: Trust radius increased to 1.000e+00.


	Performing BFGS update with previous 3 gradient(s).
	Following RFO solution 0.
	Projected energy change by RFO approximation:        -0.0000001329

	Back-transformation to cartesian coordinates...
	Successfully converged to displaced geometry.

	---Internal Coordinate Step in ANG or DEG, aJ/ANG or AJ/DEG ---
	 ----------------------------------------------------------------------
	 Coordinate             Previous        Force       Change         New 
	 ----------             --------       ------       ------       ------
	 R(1,2)          =      0.960904    -0.001410    -0.000154     0.960750
	 R(1,3)          =      0.960904    -0.001410    -0.000154     0.960750
	 B(2,1,3)        =    103.938661    -0.000016    -0.046017   103.892644
	 ----------------------------------------------------------------------

	Convergence Check Cycle    4: (using internal coordinates in au)
	                    Actual        Tolerance     Converged?
	----------------------------------------------------------
	MAX Force           2.1e-04        3.0e-04         yes
	Energy Change      -1.5e-05        1.0e-06          no
	MAX Displacement    8.0e-04        1.2e-03         yes
	----------------------------------------------------------

	 **** Optimization is complete! ****

	            ****  Optimization Summary  ****
	----------------------------------------------------------------------------
	 Step         Energy             Delta(E)      MAX force    MAX Delta(q)  
	----------------------------------------------------------------------------
	   1    -76.219381824097    -76.219381824097    3.69e-02     3.69e-02
	   2    -76.221636216594     -0.002254392498    2.22e-02     2.22e-02
	   3    -76.222433645283     -0.000797428689    2.74e-03     2.74e-03
	   4    -76.222448502373     -0.000014857090    2.07e-04     2.07e-04
	----------------------------------------------------------------------

	Writing optimization data to binary file.
	Final energy is    -76.2224485023727
	Final (previous) structure:
	Cartesian Geometry (au)
	    O     0.0000000000   0.0000000000  -0.1252005208
	    H     0.0000000000  -1.4303073867   0.9935115606
	    H     0.0000000000   1.4303073867   0.9935115606
	Saving final (previous) structure.
			--------------------------
			 OPTKING Finished Execution 
			--------------------------

*** PSI4 exiting successfully. Buy a developer a beer!
