
    -----------------------------------------------------------------------
          Psi4: An Open-Source Ab Initio Electronic Structure Package
                               Psi4 1.1rc3.dev5

                         Git: Rev {master} 3fbd859


    R. M. Parrish, L. A. Burns, D. G. A. Smith, A. C. Simmonett,
    A. E. DePrince III, E. G. Hohenstein, U. Bozkaya, A. Yu. Sokolov,
    R. Di Remigio, R. M. Richard, J. F. Gonthier, A. M. James,
    H. R. McAlexander, A. Kumar, M. Saitow, X. Wang, B. P. Pritchard,
    P. Verma, H. F. Schaefer III, K. Patkowski, R. A. King, E. F. Valeev,
    F. A. Evangelista, J. M. Turney, T. D. Crawford, and C. D. Sherrill,
    J. Chem. Theory Comput. in press (2017).
    (doi: 10.1021/acs.jctc.7b00174)

    -----------------------------------------------------------------------


    Psi4 started on: Monday, 15 May 2017 04:00PM

    Process ID:  24612
    PSIDATADIR: /home/psilocaluser/gits/hrw-direct/objdir4/stage/usr/local/psi4/share/psi4
    Memory:     500.0 MiB
    Threads:    1
    
  ==> Input File <==

--------------------------------------------------------------------------
#! SCF/cc-pVDZ optimization example with frozen cartesian

molecule h2o {
0 1
O   1.000000   1.000000   1.000000
H   2.000000   1.000000   1.000000
H   1.000000   2.000000   1.000000
units angstrom
}

set {
    reference       rhf
    basis           cc-pVDZ
    e_convergence   11
    guess           sad
    scf_type        df
}

freeze_list = '''
    1 xyz'''

set optking {
  frozen_cartesian $freeze_list
}

opt_energy = optimize('scf')

compare_values(opt_energy, -76.0270327834836, 6, "SCF Optimized energy") #TEST

# Coords are in bohr
compare_values( h2o.x(0), 1.88972613289, 6, "X Frozen coordinate") #TEST
compare_values( h2o.y(0), 1.88972613289, 6, "Y Frozen coordinate") #TEST
compare_values( h2o.z(0), 1.88972613289, 6, "Z Frozen coordinate") #TEST

--------------------------------------------------------------------------
gradient() will perform analytic gradient computation.

*** tstart() called on psinet
*** at Mon May 15 16:00:39 2017

   => Loading Basis Set <=

    Name: CC-PVDZ
    Role: ORBITAL
    Keyword: BASIS
    atoms 1   entry O          line   190 file /home/psilocaluser/gits/hrw-direct/objdir4/stage/usr/local/psi4/share/psi4/basis/cc-pvdz.gbs 
    atoms 2-3 entry H          line    20 file /home/psilocaluser/gits/hrw-direct/objdir4/stage/usr/local/psi4/share/psi4/basis/cc-pvdz.gbs 


         ---------------------------------------------------------
                                   SCF
            by Justin Turney, Rob Parrish, and Andy Simmonett
                              RHF Reference
                        1 Threads,    500 MiB Core
         ---------------------------------------------------------

  ==> Geometry <==

    Molecular point group: c1
    Full point group: C1

    Geometry (in Angstrom), charge = 0, multiplicity = 1:

       Center              X                  Y                   Z               Mass       
    ------------   -----------------  -----------------  -----------------  -----------------
           O          1.000000000000     1.000000000000     1.000000000000    15.994914619560
           H          2.000000000000     1.000000000000     1.000000000000     1.007825032070
           H          1.000000000000     2.000000000000     1.000000000000     1.007825032070

  Running in c1 symmetry.

  Rotational constants: A =     13.14956  B =      0.28538  C =      0.28188 [cm^-1]
  Rotational constants: A = 394213.98124  B =   8555.47649  C =   8450.52117 [MHz]
  Nuclear repulsion =    8.841020130083356

  Charge       = 0
  Multiplicity = 1
  Electrons    = 10
  Nalpha       = 5
  Nbeta        = 5

  ==> Algorithm <==

  SCF Algorithm Type is DF.
  DIIS enabled.
  MOM disabled.
  Fractional occupation disabled.
  Guess Type is SAD.
  Energy threshold   = 1.00e-11
  Density threshold  = 1.00e-08
  Integral threshold = 0.00e+00

  ==> Primary Basis <==

  Basis Set: CC-PVDZ
    Blend: CC-PVDZ
    Number of shells: 12
    Number of basis function: 24
    Number of Cartesian functions: 25
    Spherical Harmonics?: true
    Max angular momentum: 2

   => Loading Basis Set <=

    Name: (CC-PVDZ AUX)
    Role: JKFIT
    Keyword: DF_BASIS_SCF
    atoms 1   entry O          line   220 file /home/psilocaluser/gits/hrw-direct/objdir4/stage/usr/local/psi4/share/psi4/basis/cc-pvdz-jkfit.gbs 
    atoms 2-3 entry H          line    50 file /home/psilocaluser/gits/hrw-direct/objdir4/stage/usr/local/psi4/share/psi4/basis/cc-pvdz-jkfit.gbs 

  ==> Pre-Iterations <==

   -------------------------------------------------------
    Irrep   Nso     Nmo     Nalpha   Nbeta   Ndocc  Nsocc
   -------------------------------------------------------
     A         24      24       0       0       0       0
   -------------------------------------------------------
    Total      24      24       5       5       5       0
   -------------------------------------------------------

  ==> Integral Setup <==

  ==> DFJK: Density-Fitted J/K Matrices <==

    J tasked:                  Yes
    K tasked:                  Yes
    wK tasked:                  No
    OpenMP threads:              1
    Integrals threads:           1
    Memory (MB):               375
    Algorithm:                Core
    Integral Cache:           NONE
    Schwarz Cutoff:          1E-12
    Fitting Condition:       1E-12

   => Auxiliary Basis Set <=

  Basis Set: (CC-PVDZ AUX)
    Blend: CC-PVDZ-JKFIT
    Number of shells: 42
    Number of basis function: 116
    Number of Cartesian functions: 131
    Spherical Harmonics?: true
    Max angular momentum: 3

  Minimum eigenvalue in the overlap matrix is 3.5753954651E-02.
  Using Symmetric Orthogonalization.

  SCF Guess: Superposition of Atomic Densities via on-the-fly atomic UHF.

  ==> Iterations <==

                           Total Energy        Delta E     RMS |[F,P]|

   @DF-RHF iter   0:   -75.96636358116906   -7.59664e+01   6.64356e-02 
   @DF-RHF iter   1:   -75.97769201738897   -1.13284e-02   1.19590e-02 
   @DF-RHF iter   2:   -76.00767010231505   -2.99781e-02   6.30100e-03 DIIS
   @DF-RHF iter   3:   -76.01596944107301   -8.29934e-03   1.09506e-03 DIIS
   @DF-RHF iter   4:   -76.01663288723172   -6.63446e-04   3.69246e-04 DIIS
   @DF-RHF iter   5:   -76.01675084410039   -1.17957e-04   9.29763e-05 DIIS
   @DF-RHF iter   6:   -76.01676099067625   -1.01466e-05   1.93770e-05 DIIS
   @DF-RHF iter   7:   -76.01676141306467   -4.22388e-07   3.55895e-06 DIIS
   @DF-RHF iter   8:   -76.01676142522845   -1.21638e-08   6.41649e-07 DIIS
   @DF-RHF iter   9:   -76.01676142559607   -3.67621e-10   1.45929e-07 DIIS
   @DF-RHF iter  10:   -76.01676142561220   -1.61293e-11   3.56320e-08 DIIS
   @DF-RHF iter  11:   -76.01676142561324   -1.03739e-12   4.59919e-09 DIIS

  ==> Post-Iterations <==

    Orbital Energies (a.u.)
    -----------------------

    Doubly Occupied:                                                      

       1A    -20.565316     2A     -1.327476     3A     -0.649293  
       4A     -0.588228     5A     -0.495620  

    Virtual:                                                              

       6A      0.174517     7A      0.250028     8A      0.723013  
       9A      0.866107    10A      1.189054    11A      1.194266  
      12A      1.272532    13A      1.307961    14A      1.520567  
      15A      1.584486    16A      1.852864    17A      1.970029  
      18A      2.355546    19A      2.417493    20A      3.249113  
      21A      3.307847    22A      3.412254    23A      3.799098  
      24A      4.148059  

    Final Occupation by Irrep:
              A 
    DOCC [     5 ]

  Energy converged.

  @DF-RHF Final Energy:   -76.01676142561324

   => Energetics <=

    Nuclear Repulsion Energy =              8.8410201300833560
    One-Electron Energy =                -122.4636977076803532
    Two-Electron Energy =                  37.6059161519837630
    DFT Exchange-Correlation Energy =       0.0000000000000000
    Empirical Dispersion Energy =           0.0000000000000000
    PCM Polarization Energy =               0.0000000000000000
    EFP Energy =                            0.0000000000000000
    Total Energy =                        -76.0167614256132396



Properties will be evaluated at   0.000000,   0.000000,   0.000000 Bohr

Properties computed using the SCF density matrix

  Nuclear Dipole Moment: (a.u.)
     X:    20.7870      Y:    20.7870      Z:    18.8973

  Electronic Dipole Moment: (a.u.)
     X:   -20.1459      Y:   -20.1459      Z:   -18.8973

  Dipole Moment: (a.u.)
     X:     0.6410      Y:     0.6410      Z:     0.0000     Total:     0.9066

  Dipole Moment: (Debye)
     X:     1.6294      Y:     1.6294      Z:     0.0000     Total:     2.3043


*** tstop() called on psinet at Mon May 15 16:00:40 2017
Module time:
	user time   =       0.41 seconds =       0.01 minutes
	system time =       0.03 seconds =       0.00 minutes
	total time  =          1 seconds =       0.02 minutes
Total time:
	user time   =       0.41 seconds =       0.01 minutes
	system time =       0.03 seconds =       0.00 minutes
	total time  =          1 seconds =       0.02 minutes

*** tstart() called on psinet
*** at Mon May 15 16:00:40 2017


         ------------------------------------------------------------
                                   SCF GRAD                          
                          Rob Parrish, Justin Turney,                
                       Andy Simmonett, and Alex Sokolov              
         ------------------------------------------------------------

  ==> Geometry <==

    Molecular point group: c1
    Full point group: C1

    Geometry (in Angstrom), charge = 0, multiplicity = 1:

       Center              X                  Y                   Z               Mass       
    ------------   -----------------  -----------------  -----------------  -----------------
           O          1.000000000000     1.000000000000     1.000000000000    15.994914619560
           H          2.000000000000     1.000000000000     1.000000000000     1.007825032070
           H          1.000000000000     2.000000000000     1.000000000000     1.007825032070

  Nuclear repulsion =    8.841020130083356

  ==> Basis Set <==

  Basis Set: CC-PVDZ
    Blend: CC-PVDZ
    Number of shells: 12
    Number of basis function: 24
    Number of Cartesian functions: 25
    Spherical Harmonics?: true
    Max angular momentum: 2

  ==> DFJKGrad: Density-Fitted SCF Gradients <==

    Gradient:                    1
    J tasked:                  Yes
    K tasked:                  Yes
    wK tasked:                  No
    OpenMP threads:              1
    Integrals threads:           1
    Memory (MB):               375
    Schwarz Cutoff:          0E+00
    Fitting Condition:       1E-12

   => Auxiliary Basis Set <=

  Basis Set: (CC-PVDZ AUX)
    Blend: CC-PVDZ-JKFIT
    Number of shells: 42
    Number of basis function: 116
    Number of Cartesian functions: 131
    Spherical Harmonics?: true
    Max angular momentum: 3


  -Total Gradient:
     Atom            X                  Y                   Z
    ------   -----------------  -----------------  -----------------
       1       -0.067274913762    -0.067274907998    -0.000000002819
       2        0.044307704529     0.022967211105    -0.000000002556
       3        0.022967209234     0.044307696895     0.000000005376


*** tstop() called on psinet at Mon May 15 16:00:40 2017
Module time:
	user time   =       0.13 seconds =       0.00 minutes
	system time =       0.01 seconds =       0.00 minutes
	total time  =          0 seconds =       0.00 minutes
Total time:
	user time   =       0.54 seconds =       0.01 minutes
	system time =       0.04 seconds =       0.00 minutes
	total time  =          1 seconds =       0.02 minutes

			-----------------------------------------
			 OPTKING 2.0: for geometry optimizations 
			  - R.A. King,  Bethel University        
			-----------------------------------------

	Internal coordinates to be generated automatically.
	Detected frag 1 with atoms:  1 2 3
	---Fragment 1 Bond Connectivity---
	 1 : 2 3
	 2 : 1
	 3 : 1

	Assuming in current code that numbering for constraints corresponds to unified fragment.
	---Fragment 1 Geometry and Gradient---
	 O           1.8897261329        1.8897261329        1.8897261329
	 H           3.7794522658        1.8897261329        1.8897261329
	 H           1.8897261329        3.7794522658        1.8897261329
	            -0.0672749138       -0.0672749080       -0.0000000028
	             0.0443077045        0.0229672111       -0.0000000026
	             0.0229672092        0.0443076969        0.0000000054

	Previous optimization step data not found.  Starting new optimization.

	---Fragment 1 Intrafragment Coordinates---
	 - Coordinate -           - BOHR/RAD -       - ANG/DEG -
	 R(1,2)           =         1.889726	       1.000000
	 R(1,3)           =         1.889726	       1.000000
	 B(2,1,3)         =         1.570796	      90.000000
	*R(1,X)           =         1.889726	       1.000000
	*R(1,Y)           =         1.889726	       1.000000
	*R(1,Z)           =         1.889726	       1.000000

	Current energy   :       -76.0167614256

	Generating empirical Hessian (Schlegel '84) for each fragment.
	Taking RFO optimization step.
	Going to follow RFO solution 1.
	Using RFO vector 1.
	Norm of target step-size    0.27411
	Projected energy change by RFO approximation:        -0.0171888772

	Back-transformation to cartesian coordinates...
	Successfully converged to displaced geometry.

	Back-transformation to cartesian coordinates to adjust frozen coordinates...
	Successfully converged to displaced geometry.

	--- Internal Coordinate Step in ANG or DEG, aJ/ANG or AJ/DEG ---
	 ---------------------------------------------------------------------------
	   Coordinate                Previous        Force       Change         New 
	   ----------                --------       ------       ------       ------
	    1 R(1,2)          =      1.000000    -0.365039    -0.047332     0.952668
	    2 R(1,3)          =      1.000000    -0.365039    -0.047332     0.952668
	    3 B(2,1,3)        =     90.000000     0.003303    13.932830   103.932830
	    4 *R(1,X)         =      1.000000     0.000000     0.000000     1.000000
	    5 *R(1,Y)         =      1.000000    -0.000000     0.000000     1.000000
	    6 *R(1,Z)         =      1.000000     0.000000     0.000000     1.000000
	 ---------------------------------------------------------------------------
	Successfully symmetrized geometry.

  ==> Convergence Check <==

  Measures of convergence in internal coordinates in au.
  Criteria marked as inactive (o), active & met (*), and active & unmet ( ).
  --------------------------------------------------------------------------------------------- ~
   Step     Total Energy     Delta E     MAX Force     RMS Force      MAX Disp      RMS Disp    ~
  --------------------------------------------------------------------------------------------- ~
    Convergence Criteria    1.00e-06 *    3.00e-04 *             o    1.20e-03 *             o  ~
  --------------------------------------------------------------------------------------------- ~
      1     -76.01676143   -7.60e+01      4.43e-02      3.11e-02 o    2.43e-01      1.12e-01 o  ~
  ---------------------------------------------------------------------------------------------

	Writing optimization data to binary file.
	Structure for next step:
	Cartesian Geometry (in Angstrom)
	    O     1.0000000000   1.0000000000   1.0000000000
	    H     1.9456346984   0.8844532765   1.0000000000
	    H     0.8844532765   1.9456347066   1.0000000000
			--------------------------
			 OPTKING Finished Execution 
			--------------------------

    Structure for next step:
    Molecular point group: c1
    Full point group: C1

    Geometry (in Angstrom), charge = 0, multiplicity = 1:

    O            1.000000000000     1.000000000000     1.000000000000
    H            1.945634698383     0.884453276535     1.000000000000
    H            0.884453276477     1.945634706591     1.000000000000

gradient() will perform analytic gradient computation.

*** tstart() called on psinet
*** at Mon May 15 16:00:40 2017

   => Loading Basis Set <=

    Name: CC-PVDZ
    Role: ORBITAL
    Keyword: BASIS
    atoms 1   entry O          line   190 file /home/psilocaluser/gits/hrw-direct/objdir4/stage/usr/local/psi4/share/psi4/basis/cc-pvdz.gbs 
    atoms 2-3 entry H          line    20 file /home/psilocaluser/gits/hrw-direct/objdir4/stage/usr/local/psi4/share/psi4/basis/cc-pvdz.gbs 


         ---------------------------------------------------------
                                   SCF
            by Justin Turney, Rob Parrish, and Andy Simmonett
                              RHF Reference
                        1 Threads,    500 MiB Core
         ---------------------------------------------------------

  ==> Geometry <==

    Molecular point group: c1
    Full point group: C1

    Geometry (in Angstrom), charge = 0, multiplicity = 1:

       Center              X                  Y                   Z               Mass       
    ------------   -----------------  -----------------  -----------------  -----------------
           O          1.000000000000     1.000000000000     1.000000000000    15.994914619560
           H          1.945634698383     0.884453276535     1.000000000000     1.007825032070
           H          0.884453276477     1.945634706591     1.000000000000     1.007825032070

  Running in c1 symmetry.

  Rotational constants: A =     12.70528  B =      0.29029  C =      0.28565 [cm^-1]
  Rotational constants: A = 380894.58305  B =   8702.55807  C =   8563.49899 [MHz]
  Nuclear repulsion =    9.240111312040030

  Charge       = 0
  Multiplicity = 1
  Electrons    = 10
  Nalpha       = 5
  Nbeta        = 5

  ==> Algorithm <==

  SCF Algorithm Type is DF.
  DIIS enabled.
  MOM disabled.
  Fractional occupation disabled.
  Guess Type is READ.
  Energy threshold   = 1.00e-11
  Density threshold  = 1.00e-08
  Integral threshold = 0.00e+00

  ==> Primary Basis <==

  Basis Set: CC-PVDZ
    Blend: CC-PVDZ
    Number of shells: 12
    Number of basis function: 24
    Number of Cartesian functions: 25
    Spherical Harmonics?: true
    Max angular momentum: 2

   => Loading Basis Set <=

    Name: (CC-PVDZ AUX)
    Role: JKFIT
    Keyword: DF_BASIS_SCF
    atoms 1   entry O          line   220 file /home/psilocaluser/gits/hrw-direct/objdir4/stage/usr/local/psi4/share/psi4/basis/cc-pvdz-jkfit.gbs 
    atoms 2-3 entry H          line    50 file /home/psilocaluser/gits/hrw-direct/objdir4/stage/usr/local/psi4/share/psi4/basis/cc-pvdz-jkfit.gbs 

  Reading orbitals from file 180, no projection.

  ==> Pre-Iterations <==

   -------------------------------------------------------
    Irrep   Nso     Nmo     Nalpha   Nbeta   Ndocc  Nsocc
   -------------------------------------------------------
     A         24      24       0       0       0       0
   -------------------------------------------------------
    Total      24      24       5       5       5       0
   -------------------------------------------------------

  ==> Integral Setup <==

  ==> DFJK: Density-Fitted J/K Matrices <==

    J tasked:                  Yes
    K tasked:                  Yes
    wK tasked:                  No
    OpenMP threads:              1
    Integrals threads:           1
    Memory (MB):               375
    Algorithm:                Core
    Integral Cache:           NONE
    Schwarz Cutoff:          1E-12
    Fitting Condition:       1E-12

   => Auxiliary Basis Set <=

  Basis Set: (CC-PVDZ AUX)
    Blend: CC-PVDZ-JKFIT
    Number of shells: 42
    Number of basis function: 116
    Number of Cartesian functions: 131
    Spherical Harmonics?: true
    Max angular momentum: 3

  Minimum eigenvalue in the overlap matrix is 3.3778933494E-02.
  Using Symmetric Orthogonalization.

  SCF Guess: Orbitals guess was supplied from a previous computation.

  ==> Iterations <==

                           Total Energy        Delta E     RMS |[F,P]|

   @DF-RHF iter   0:   -76.10059563363137   -7.61006e+01   8.26519e-03 
   @DF-RHF iter   1:   -76.02633419587278    7.42614e-02   1.10174e-03 
   @DF-RHF iter   2:   -76.02683620555054   -5.02010e-04   5.21805e-04 DIIS
   @DF-RHF iter   3:   -76.02691549838161   -7.92928e-05   1.79731e-04 DIIS
   @DF-RHF iter   4:   -76.02693793684919   -2.24385e-05   4.52798e-05 DIIS
   @DF-RHF iter   5:   -76.02693957313622   -1.63629e-06   9.25994e-06 DIIS
   @DF-RHF iter   6:   -76.02693964407568   -7.09395e-08   9.95915e-07 DIIS
   @DF-RHF iter   7:   -76.02693964462327   -5.47587e-10   1.68174e-07 DIIS
   @DF-RHF iter   8:   -76.02693964463872   -1.54472e-11   2.30218e-08 DIIS
   @DF-RHF iter   9:   -76.02693964463907   -3.55271e-13   2.12620e-09 DIIS

  ==> Post-Iterations <==

    Orbital Energies (a.u.)
    -----------------------

    Doubly Occupied:                                                      

       1A    -20.549939     2A     -1.339512     3A     -0.700649  
       4A     -0.568614     5A     -0.493685  

    Virtual:                                                              

       6A      0.186217     7A      0.256990     8A      0.790665  
       9A      0.861378    10A      1.163806    11A      1.200329  
      12A      1.253731    13A      1.438932    14A      1.479821  
      15A      1.672885    16A      1.865307    17A      1.944098  
      18A      2.462322    19A      2.503435    20A      3.293493  
      21A      3.341713    22A      3.519823    23A      3.866917  
      24A      4.156447  

    Final Occupation by Irrep:
              A 
    DOCC [     5 ]

  Energy converged.

  @DF-RHF Final Energy:   -76.02693964463907

   => Energetics <=

    Nuclear Repulsion Energy =              9.2401113120400300
    One-Electron Energy =                -123.2293059365512136
    Two-Electron Energy =                  37.9622549798721067
    DFT Exchange-Correlation Energy =       0.0000000000000000
    Empirical Dispersion Energy =           0.0000000000000000
    PCM Polarization Energy =               0.0000000000000000
    EFP Energy =                            0.0000000000000000
    Total Energy =                        -76.0269396446390715



Properties will be evaluated at   0.000000,   0.000000,   0.000000 Bohr

Properties computed using the SCF density matrix

  Nuclear Dipole Moment: (a.u.)
     X:    20.4659      Y:    20.4659      Z:    18.8973

  Electronic Dipole Moment: (a.u.)
     X:   -19.8925      Y:   -19.8925      Z:   -18.8973

  Dipole Moment: (a.u.)
     X:     0.5734      Y:     0.5734      Z:     0.0000     Total:     0.8109

  Dipole Moment: (Debye)
     X:     1.4574      Y:     1.4574      Z:     0.0000     Total:     2.0611


*** tstop() called on psinet at Mon May 15 16:00:40 2017
Module time:
	user time   =       0.21 seconds =       0.00 minutes
	system time =       0.01 seconds =       0.00 minutes
	total time  =          0 seconds =       0.00 minutes
Total time:
	user time   =       0.76 seconds =       0.01 minutes
	system time =       0.05 seconds =       0.00 minutes
	total time  =          1 seconds =       0.02 minutes

*** tstart() called on psinet
*** at Mon May 15 16:00:40 2017


         ------------------------------------------------------------
                                   SCF GRAD                          
                          Rob Parrish, Justin Turney,                
                       Andy Simmonett, and Alex Sokolov              
         ------------------------------------------------------------

  ==> Geometry <==

    Molecular point group: c1
    Full point group: C1

    Geometry (in Angstrom), charge = 0, multiplicity = 1:

       Center              X                  Y                   Z               Mass       
    ------------   -----------------  -----------------  -----------------  -----------------
           O          1.000000000000     1.000000000000     1.000000000000    15.994914619560
           H          1.945634698383     0.884453276535     1.000000000000     1.007825032070
           H          0.884453276477     1.945634706591     1.000000000000     1.007825032070

  Nuclear repulsion =    9.240111312040030

  ==> Basis Set <==

  Basis Set: CC-PVDZ
    Blend: CC-PVDZ
    Number of shells: 12
    Number of basis function: 24
    Number of Cartesian functions: 25
    Spherical Harmonics?: true
    Max angular momentum: 2

  ==> DFJKGrad: Density-Fitted SCF Gradients <==

    Gradient:                    1
    J tasked:                  Yes
    K tasked:                  Yes
    wK tasked:                  No
    OpenMP threads:              1
    Integrals threads:           1
    Memory (MB):               375
    Schwarz Cutoff:          0E+00
    Fitting Condition:       1E-12

   => Auxiliary Basis Set <=

  Basis Set: (CC-PVDZ AUX)
    Blend: CC-PVDZ-JKFIT
    Number of shells: 42
    Number of basis function: 116
    Number of Cartesian functions: 131
    Spherical Harmonics?: true
    Max angular momentum: 3


  -Total Gradient:
     Atom            X                  Y                   Z
    ------   -----------------  -----------------  -----------------
       1       -0.006948501325    -0.006948511619     0.000000000001
       2        0.006990641787    -0.000042139339    -0.000000000000
       3       -0.000042140460     0.006990650959     0.000000000000


*** tstop() called on psinet at Mon May 15 16:00:40 2017
Module time:
	user time   =       0.13 seconds =       0.00 minutes
	system time =       0.01 seconds =       0.00 minutes
	total time  =          0 seconds =       0.00 minutes
Total time:
	user time   =       0.90 seconds =       0.02 minutes
	system time =       0.06 seconds =       0.00 minutes
	total time  =          1 seconds =       0.02 minutes

			-----------------------------------------
			 OPTKING 2.0: for geometry optimizations 
			  - R.A. King,  Bethel University        
			-----------------------------------------

	Previous internal coordinate definitions found.
	---Fragment 1 Geometry and Gradient---
	 O           1.8897261329        1.8897261329        1.8897261329
	 H           3.6767167346        1.6713744700        1.8897261329
	 H           1.6713744699        3.6767167501        1.8897261329
	            -0.0069485013       -0.0069485116        0.0000000000
	             0.0069906418       -0.0000421393       -0.0000000000
	            -0.0000421405        0.0069906510        0.0000000000

	---Fragment 1 Intrafragment Coordinates---
	 - Coordinate -           - BOHR/RAD -       - ANG/DEG -
	 R(1,2)           =         1.800281	       0.952668
	 R(1,3)           =         1.800281	       0.952668
	 B(2,1,3)         =         1.813970	     103.932830
	*R(1,X)           =         1.889726	       1.000000
	*R(1,Y)           =         1.889726	       1.000000
	*R(1,Z)           =         1.889726	       1.000000

	Current energy   :       -76.0269396446

	Energy change for the previous step:
		Projected    :        -0.0171888772
		Actual       :        -0.0101782190

	Performing BFGS update.
	Previous computed or guess Hessian on step 1.
	Steps to be used in Hessian update: 1
	Taking RFO optimization step.
	Going to follow RFO solution 1.
	Using RFO vector 1.
	Norm of target step-size    0.02470
	Projected energy change by RFO approximation:        -0.0002387247

	Back-transformation to cartesian coordinates...
	Successfully converged to displaced geometry.

	Back-transformation to cartesian coordinates to adjust frozen coordinates...
	Successfully converged to displaced geometry.

	--- Internal Coordinate Step in ANG or DEG, aJ/ANG or AJ/DEG ---
	 ---------------------------------------------------------------------------
	   Coordinate                Previous        Force       Change         New 
	   ----------                --------       ------       ------       ------
	    1 R(1,2)          =      0.952668    -0.057211    -0.008602     0.944066
	    2 R(1,3)          =      0.952668    -0.057211    -0.008602     0.944066
	    3 B(2,1,3)        =    103.932830     0.000110     0.517916   104.450746
	    4 *R(1,X)         =      1.000000    -0.000000     0.000000     1.000000
	    5 *R(1,Y)         =      1.000000     0.000000     0.000000     1.000000
	    6 *R(1,Z)         =      1.000000     0.000000     0.000000     1.000000
	 ---------------------------------------------------------------------------
	Successfully symmetrized geometry.

  ==> Convergence Check <==

  Measures of convergence in internal coordinates in au.
  Criteria marked as inactive (o), active & met (*), and active & unmet ( ).
  ---------------------------------------------------------------------------------------------
   Step     Total Energy     Delta E     MAX Force     RMS Force      MAX Disp      RMS Disp   
  ---------------------------------------------------------------------------------------------
    Convergence Criteria    1.00e-06 *    3.00e-04 *             o    1.20e-03 *             o
  ---------------------------------------------------------------------------------------------
      2     -76.02693964   -1.02e-02      6.94e-03      4.05e-03 o    1.63e-02      1.01e-02 o  ~
  ---------------------------------------------------------------------------------------------

	Writing optimization data to binary file.
	Structure for next step:
	Cartesian Geometry (in Angstrom)
	    O     1.0000000000   1.0000000000   1.0000000000
	    H     1.9365693852   0.8812623726   1.0000000000
	    H     0.8812623739   1.9365693823   1.0000000000
			--------------------------
			 OPTKING Finished Execution 
			--------------------------

    Structure for next step:
    Molecular point group: c1
    Full point group: C1

    Geometry (in Angstrom), charge = 0, multiplicity = 1:

    O            1.000000000000     1.000000000000     1.000000000000
    H            1.936569385204     0.881262372556     1.000000000000
    H            0.881262373883     1.936569382315     1.000000000000

gradient() will perform analytic gradient computation.

*** tstart() called on psinet
*** at Mon May 15 16:00:40 2017

   => Loading Basis Set <=

    Name: CC-PVDZ
    Role: ORBITAL
    Keyword: BASIS
    atoms 1   entry O          line   190 file /home/psilocaluser/gits/hrw-direct/objdir4/stage/usr/local/psi4/share/psi4/basis/cc-pvdz.gbs 
    atoms 2-3 entry H          line    20 file /home/psilocaluser/gits/hrw-direct/objdir4/stage/usr/local/psi4/share/psi4/basis/cc-pvdz.gbs 


         ---------------------------------------------------------
                                   SCF
            by Justin Turney, Rob Parrish, and Andy Simmonett
                              RHF Reference
                        1 Threads,    500 MiB Core
         ---------------------------------------------------------

  ==> Geometry <==

    Molecular point group: c1
    Full point group: C1

    Geometry (in Angstrom), charge = 0, multiplicity = 1:

       Center              X                  Y                   Z               Mass       
    ------------   -----------------  -----------------  -----------------  -----------------
           O          1.000000000000     1.000000000000     1.000000000000    15.994914619560
           H          1.936569385204     0.881262372556     1.000000000000     1.007825032070
           H          0.881262373883     1.936569382315     1.000000000000     1.007825032070

  Running in c1 symmetry.

  Rotational constants: A =     12.87950  B =      0.29064  C =      0.28602 [cm^-1]
  Rotational constants: A = 386117.67034  B =   8713.02523  C =   8574.66878 [MHz]
  Nuclear repulsion =    9.323051424250384

  Charge       = 0
  Multiplicity = 1
  Electrons    = 10
  Nalpha       = 5
  Nbeta        = 5

  ==> Algorithm <==

  SCF Algorithm Type is DF.
  DIIS enabled.
  MOM disabled.
  Fractional occupation disabled.
  Guess Type is READ.
  Energy threshold   = 1.00e-11
  Density threshold  = 1.00e-08
  Integral threshold = 0.00e+00

  ==> Primary Basis <==

  Basis Set: CC-PVDZ
    Blend: CC-PVDZ
    Number of shells: 12
    Number of basis function: 24
    Number of Cartesian functions: 25
    Spherical Harmonics?: true
    Max angular momentum: 2

   => Loading Basis Set <=

    Name: (CC-PVDZ AUX)
    Role: JKFIT
    Keyword: DF_BASIS_SCF
    atoms 1   entry O          line   220 file /home/psilocaluser/gits/hrw-direct/objdir4/stage/usr/local/psi4/share/psi4/basis/cc-pvdz-jkfit.gbs 
    atoms 2-3 entry H          line    50 file /home/psilocaluser/gits/hrw-direct/objdir4/stage/usr/local/psi4/share/psi4/basis/cc-pvdz-jkfit.gbs 

  Reading orbitals from file 180, no projection.

  ==> Pre-Iterations <==

   -------------------------------------------------------
    Irrep   Nso     Nmo     Nalpha   Nbeta   Ndocc  Nsocc
   -------------------------------------------------------
     A         24      24       0       0       0       0
   -------------------------------------------------------
    Total      24      24       5       5       5       0
   -------------------------------------------------------

  ==> Integral Setup <==

  ==> DFJK: Density-Fitted J/K Matrices <==

    J tasked:                  Yes
    K tasked:                  Yes
    wK tasked:                  No
    OpenMP threads:              1
    Integrals threads:           1
    Memory (MB):               375
    Algorithm:                Core
    Integral Cache:           NONE
    Schwarz Cutoff:          1E-12
    Fitting Condition:       1E-12

   => Auxiliary Basis Set <=

  Basis Set: (CC-PVDZ AUX)
    Blend: CC-PVDZ-JKFIT
    Number of shells: 42
    Number of basis function: 116
    Number of Cartesian functions: 131
    Spherical Harmonics?: true
    Max angular momentum: 3

  Minimum eigenvalue in the overlap matrix is 3.3249406998E-02.
  Using Symmetric Orthogonalization.

  SCF Guess: Orbitals guess was supplied from a previous computation.

  ==> Iterations <==

                           Total Energy        Delta E     RMS |[F,P]|

   @DF-RHF iter   0:   -76.03996676245519   -7.60400e+01   1.37464e-03 
   @DF-RHF iter   1:   -76.02700823692524    1.29585e-02   1.95024e-04 
   @DF-RHF iter   2:   -76.02701802080713   -9.78388e-06   1.02482e-04 DIIS
   @DF-RHF iter   3:   -76.02702012639675   -2.10559e-06   1.77477e-05 DIIS
   @DF-RHF iter   4:   -76.02702034412006   -2.17723e-07   5.47573e-06 DIIS
   @DF-RHF iter   5:   -76.02702036606068   -2.19406e-08   1.19851e-06 DIIS
   @DF-RHF iter   6:   -76.02702036732379   -1.26310e-09   1.70561e-07 DIIS
   @DF-RHF iter   7:   -76.02702036734225   -1.84599e-11   2.53894e-08 DIIS
   @DF-RHF iter   8:   -76.02702036734266   -4.12115e-13   3.31852e-09 DIIS

  ==> Post-Iterations <==

    Orbital Energies (a.u.)
    -----------------------

    Doubly Occupied:                                                      

       1A    -20.548128     2A     -1.343577     3A     -0.706324  
       4A     -0.569147     5A     -0.494147  

    Virtual:                                                              

       6A      0.187744     7A      0.258141     8A      0.798779  
       9A      0.867333    10A      1.162744    11A      1.200403  
      12A      1.252751    13A      1.442458    14A      1.480422  
      15A      1.677636    16A      1.864724    17A      1.950717  
      18A      2.484400    19A      2.524538    20A      3.298435  
      21A      3.352283    22A      3.529012    23A      3.880633  
      24A      4.163299  

    Final Occupation by Irrep:
              A 
    DOCC [     5 ]

  Energy converged.

  @DF-RHF Final Energy:   -76.02702036734266

   => Energetics <=

    Nuclear Repulsion Energy =              9.3230514242503837
    One-Electron Energy =                -123.3774999285616900
    Two-Electron Energy =                  38.0274281369686449
    DFT Exchange-Correlation Energy =       0.0000000000000000
    Empirical Dispersion Energy =           0.0000000000000000
    PCM Polarization Energy =               0.0000000000000000
    EFP Energy =                            0.0000000000000000
    Total Energy =                        -76.0270203673426579



Properties will be evaluated at   0.000000,   0.000000,   0.000000 Bohr

Properties computed using the SCF density matrix

  Nuclear Dipole Moment: (a.u.)
     X:    20.4427      Y:    20.4427      Z:    18.8973

  Electronic Dipole Moment: (a.u.)
     X:   -19.8739      Y:   -19.8739      Z:   -18.8973

  Dipole Moment: (a.u.)
     X:     0.5689      Y:     0.5689      Z:    -0.0000     Total:     0.8045

  Dipole Moment: (Debye)
     X:     1.4459      Y:     1.4459      Z:    -0.0000     Total:     2.0448


*** tstop() called on psinet at Mon May 15 16:00:40 2017
Module time:
	user time   =       0.21 seconds =       0.00 minutes
	system time =       0.01 seconds =       0.00 minutes
	total time  =          0 seconds =       0.00 minutes
Total time:
	user time   =       1.13 seconds =       0.02 minutes
	system time =       0.07 seconds =       0.00 minutes
	total time  =          1 seconds =       0.02 minutes

*** tstart() called on psinet
*** at Mon May 15 16:00:40 2017


         ------------------------------------------------------------
                                   SCF GRAD                          
                          Rob Parrish, Justin Turney,                
                       Andy Simmonett, and Alex Sokolov              
         ------------------------------------------------------------

  ==> Geometry <==

    Molecular point group: c1
    Full point group: C1

    Geometry (in Angstrom), charge = 0, multiplicity = 1:

       Center              X                  Y                   Z               Mass       
    ------------   -----------------  -----------------  -----------------  -----------------
           O          1.000000000000     1.000000000000     1.000000000000    15.994914619560
           H          1.936569385204     0.881262372556     1.000000000000     1.007825032070
           H          0.881262373883     1.936569382315     1.000000000000     1.007825032070

  Nuclear repulsion =    9.323051424250384

  ==> Basis Set <==

  Basis Set: CC-PVDZ
    Blend: CC-PVDZ
    Number of shells: 12
    Number of basis function: 24
    Number of Cartesian functions: 25
    Spherical Harmonics?: true
    Max angular momentum: 2

  ==> DFJKGrad: Density-Fitted SCF Gradients <==

    Gradient:                    1
    J tasked:                  Yes
    K tasked:                  Yes
    wK tasked:                  No
    OpenMP threads:              1
    Integrals threads:           1
    Memory (MB):               375
    Schwarz Cutoff:          0E+00
    Fitting Condition:       1E-12

   => Auxiliary Basis Set <=

  Basis Set: (CC-PVDZ AUX)
    Blend: CC-PVDZ-JKFIT
    Number of shells: 42
    Number of basis function: 116
    Number of Cartesian functions: 131
    Spherical Harmonics?: true
    Max angular momentum: 3


  -Total Gradient:
     Atom            X                  Y                   Z
    ------   -----------------  -----------------  -----------------
       1        0.001841156145     0.001841160213     0.000000000001
       2       -0.002619712806     0.000778556205     0.000000000000
       3        0.000778556662    -0.002619716418     0.000000000000


*** tstop() called on psinet at Mon May 15 16:00:40 2017
Module time:
	user time   =       0.12 seconds =       0.00 minutes
	system time =       0.01 seconds =       0.00 minutes
	total time  =          0 seconds =       0.00 minutes
Total time:
	user time   =       1.26 seconds =       0.02 minutes
	system time =       0.08 seconds =       0.00 minutes
	total time  =          1 seconds =       0.02 minutes

			-----------------------------------------
			 OPTKING 2.0: for geometry optimizations 
			  - R.A. King,  Bethel University        
			-----------------------------------------

	Previous internal coordinate definitions found.
	---Fragment 1 Geometry and Gradient---
	 O           1.8897261329        1.8897261329        1.8897261329
	 H           3.6595857754        1.6653445353        1.8897261329
	 H           1.6653445379        3.6595857699        1.8897261329
	             0.0018411561        0.0018411602        0.0000000000
	            -0.0026197128        0.0007785562        0.0000000000
	             0.0007785567       -0.0026197164        0.0000000000

	---Fragment 1 Intrafragment Coordinates---
	 - Coordinate -           - BOHR/RAD -       - ANG/DEG -
	 R(1,2)           =         1.784026	       0.944066
	 R(1,3)           =         1.784026	       0.944066
	 B(2,1,3)         =         1.823009	     104.450746
	*R(1,X)           =         1.889726	       1.000000
	*R(1,Y)           =         1.889726	       1.000000
	*R(1,Z)           =         1.889726	       1.000000

	Current energy   :       -76.0270203673

	Energy change for the previous step:
		Projected    :        -0.0002387247
		Actual       :        -0.0000807227

	Performing BFGS update.
	Previous computed or guess Hessian on step 1.
	Steps to be used in Hessian update: 2 1
	Taking RFO optimization step.
	Going to follow RFO solution 1.
	Using RFO vector 1.
	Norm of target step-size    0.00769
	Projected energy change by RFO approximation:        -0.0000296470

	Back-transformation to cartesian coordinates...
	Successfully converged to displaced geometry.

	Back-transformation to cartesian coordinates to adjust frozen coordinates...
	Successfully converged to displaced geometry.

	--- Internal Coordinate Step in ANG or DEG, aJ/ANG or AJ/DEG ---
	 ---------------------------------------------------------------------------
	   Coordinate                Previous        Force       Change         New 
	   ----------                --------       ------       ------       ------
	    1 R(1,2)          =      0.944066     0.022218     0.002708     0.946774
	    2 R(1,3)          =      0.944066     0.022218     0.002708     0.946774
	    3 B(2,1,3)        =    104.450746     0.000060     0.148309   104.599056
	    4 *R(1,X)         =      1.000000     0.000000     0.000000     1.000000
	    5 *R(1,Y)         =      1.000000     0.000000     0.000000     1.000000
	    6 *R(1,Z)         =      1.000000     0.000000     0.000000     1.000000
	 ---------------------------------------------------------------------------
	Successfully symmetrized geometry.

  ==> Convergence Check <==

  Measures of convergence in internal coordinates in au.
  Criteria marked as inactive (o), active & met (*), and active & unmet ( ).
  ---------------------------------------------------------------------------------------------
   Step     Total Energy     Delta E     MAX Force     RMS Force      MAX Disp      RMS Disp   
  ---------------------------------------------------------------------------------------------
    Convergence Criteria    1.00e-06 *    3.00e-04 *             o    1.20e-03 *             o
  ---------------------------------------------------------------------------------------------
      3     -76.02702037   -8.07e-05      2.70e-03      1.59e-03 o    5.12e-03      3.14e-03 o  ~
  ---------------------------------------------------------------------------------------------

	Writing optimization data to binary file.
	Structure for next step:
	Cartesian Geometry (in Angstrom)
	    O     1.0000000000   1.0000000000   1.0000000000
	    H     1.9391011853   0.8797062275   1.0000000000
	    H     0.8797062284   1.9391011855   1.0000000000
			--------------------------
			 OPTKING Finished Execution 
			--------------------------

    Structure for next step:
    Molecular point group: c1
    Full point group: C1

    Geometry (in Angstrom), charge = 0, multiplicity = 1:

    O            1.000000000000     1.000000000000     1.000000000000
    H            1.939101185309     0.879706227471     1.000000000000
    H            0.879706228409     1.939101185473     1.000000000000

gradient() will perform analytic gradient computation.

*** tstart() called on psinet
*** at Mon May 15 16:00:40 2017

   => Loading Basis Set <=

    Name: CC-PVDZ
    Role: ORBITAL
    Keyword: BASIS
    atoms 1   entry O          line   190 file /home/psilocaluser/gits/hrw-direct/objdir4/stage/usr/local/psi4/share/psi4/basis/cc-pvdz.gbs 
    atoms 2-3 entry H          line    20 file /home/psilocaluser/gits/hrw-direct/objdir4/stage/usr/local/psi4/share/psi4/basis/cc-pvdz.gbs 


         ---------------------------------------------------------
                                   SCF
            by Justin Turney, Rob Parrish, and Andy Simmonett
                              RHF Reference
                        1 Threads,    500 MiB Core
         ---------------------------------------------------------

  ==> Geometry <==

    Molecular point group: c1
    Full point group: C1

    Geometry (in Angstrom), charge = 0, multiplicity = 1:

       Center              X                  Y                   Z               Mass       
    ------------   -----------------  -----------------  -----------------  -----------------
           O          1.000000000000     1.000000000000     1.000000000000    15.994914619560
           H          1.939101185309     0.879706227471     1.000000000000     1.007825032070
           H          0.879706228409     1.939101185473     1.000000000000     1.007825032070

  Running in c1 symmetry.

  Rotational constants: A =     12.79017  B =      0.29061  C =      0.28595 [cm^-1]
  Rotational constants: A = 383439.74302  B =   8712.19274  C =   8572.65775 [MHz]
  Nuclear repulsion =    9.296029237283037

  Charge       = 0
  Multiplicity = 1
  Electrons    = 10
  Nalpha       = 5
  Nbeta        = 5

  ==> Algorithm <==

  SCF Algorithm Type is DF.
  DIIS enabled.
  MOM disabled.
  Fractional occupation disabled.
  Guess Type is READ.
  Energy threshold   = 1.00e-11
  Density threshold  = 1.00e-08
  Integral threshold = 0.00e+00

  ==> Primary Basis <==

  Basis Set: CC-PVDZ
    Blend: CC-PVDZ
    Number of shells: 12
    Number of basis function: 24
    Number of Cartesian functions: 25
    Spherical Harmonics?: true
    Max angular momentum: 2

   => Loading Basis Set <=

    Name: (CC-PVDZ AUX)
    Role: JKFIT
    Keyword: DF_BASIS_SCF
    atoms 1   entry O          line   220 file /home/psilocaluser/gits/hrw-direct/objdir4/stage/usr/local/psi4/share/psi4/basis/cc-pvdz-jkfit.gbs 
    atoms 2-3 entry H          line    50 file /home/psilocaluser/gits/hrw-direct/objdir4/stage/usr/local/psi4/share/psi4/basis/cc-pvdz-jkfit.gbs 

  Reading orbitals from file 180, no projection.

  ==> Pre-Iterations <==

   -------------------------------------------------------
    Irrep   Nso     Nmo     Nalpha   Nbeta   Ndocc  Nsocc
   -------------------------------------------------------
     A         24      24       0       0       0       0
   -------------------------------------------------------
    Total      24      24       5       5       5       0
   -------------------------------------------------------

  ==> Integral Setup <==

  ==> DFJK: Density-Fitted J/K Matrices <==

    J tasked:                  Yes
    K tasked:                  Yes
    wK tasked:                  No
    OpenMP threads:              1
    Integrals threads:           1
    Memory (MB):               375
    Algorithm:                Core
    Integral Cache:           NONE
    Schwarz Cutoff:          1E-12
    Fitting Condition:       1E-12

   => Auxiliary Basis Set <=

  Basis Set: (CC-PVDZ AUX)
    Blend: CC-PVDZ-JKFIT
    Number of shells: 42
    Number of basis function: 116
    Number of Cartesian functions: 131
    Spherical Harmonics?: true
    Max angular momentum: 3

  Minimum eigenvalue in the overlap matrix is 3.3456634973E-02.
  Using Symmetric Orthogonalization.

  SCF Guess: Orbitals guess was supplied from a previous computation.

  ==> Iterations <==

                           Total Energy        Delta E     RMS |[F,P]|

   @DF-RHF iter   0:   -76.02303529312036   -7.60230e+01   4.21767e-04 
   @DF-RHF iter   1:   -76.02703104764882   -3.99575e-03   6.70194e-05 
   @DF-RHF iter   2:   -76.02703201913684   -9.71488e-07   3.41631e-05 DIIS
   @DF-RHF iter   3:   -76.02703224157716   -2.22440e-07   4.45221e-06 DIIS
   @DF-RHF iter   4:   -76.02703225201144   -1.04343e-08   1.30713e-06 DIIS
   @DF-RHF iter   5:   -76.02703225297111   -9.59673e-10   2.63206e-07 DIIS
   @DF-RHF iter   6:   -76.02703225303011   -5.90035e-11   5.06400e-08 DIIS
   @DF-RHF iter   7:   -76.02703225303210   -1.98952e-12   7.08660e-09 DIIS

  ==> Post-Iterations <==

    Orbital Energies (a.u.)
    -----------------------

    Doubly Occupied:                                                      

       1A    -20.548530     2A     -1.342032     3A     -0.705134  
       4A     -0.568337     5A     -0.493887  

    Virtual:                                                              

       6A      0.187334     7A      0.257741     8A      0.797292  
       9A      0.864004    10A      1.162825    11A      1.200473  
      12A      1.252734    13A      1.444187    14A      1.479186  
      15A      1.677892    16A      1.865588    17A      1.946751  
      18A      2.478314    19A      2.517231    20A      3.295193  
      21A      3.350155    22A      3.524723    23A      3.878824  
      24A      4.159298  

    Final Occupation by Irrep:
              A 
    DOCC [     5 ]

  Energy converged.

  @DF-RHF Final Energy:   -76.02703225303210

   => Energetics <=

    Nuclear Repulsion Energy =              9.2960292372830367
    One-Electron Energy =                -123.3302841327136719
    Two-Electron Energy =                  38.0072226423985313
    DFT Exchange-Correlation Energy =       0.0000000000000000
    Empirical Dispersion Energy =           0.0000000000000000
    PCM Polarization Energy =               0.0000000000000000
    EFP Energy =                            0.0000000000000000
    Total Energy =                        -76.0270322530321039



Properties will be evaluated at   0.000000,   0.000000,   0.000000 Bohr

Properties computed using the SCF density matrix

  Nuclear Dipole Moment: (a.u.)
     X:    20.4446      Y:    20.4446      Z:    18.8973

  Electronic Dipole Moment: (a.u.)
     X:   -19.8756      Y:   -19.8756      Z:   -18.8973

  Dipole Moment: (a.u.)
     X:     0.5690      Y:     0.5690      Z:    -0.0000     Total:     0.8047

  Dipole Moment: (Debye)
     X:     1.4462      Y:     1.4462      Z:    -0.0000     Total:     2.0453


*** tstop() called on psinet at Mon May 15 16:00:41 2017
Module time:
	user time   =       0.19 seconds =       0.00 minutes
	system time =       0.01 seconds =       0.00 minutes
	total time  =          1 seconds =       0.02 minutes
Total time:
	user time   =       1.47 seconds =       0.02 minutes
	system time =       0.09 seconds =       0.00 minutes
	total time  =          2 seconds =       0.03 minutes

*** tstart() called on psinet
*** at Mon May 15 16:00:41 2017


         ------------------------------------------------------------
                                   SCF GRAD                          
                          Rob Parrish, Justin Turney,                
                       Andy Simmonett, and Alex Sokolov              
         ------------------------------------------------------------

  ==> Geometry <==

    Molecular point group: c1
    Full point group: C1

    Geometry (in Angstrom), charge = 0, multiplicity = 1:

       Center              X                  Y                   Z               Mass       
    ------------   -----------------  -----------------  -----------------  -----------------
           O          1.000000000000     1.000000000000     1.000000000000    15.994914619560
           H          1.939101185309     0.879706227471     1.000000000000     1.007825032070
           H          0.879706228409     1.939101185473     1.000000000000     1.007825032070

  Nuclear repulsion =    9.296029237283037

  ==> Basis Set <==

  Basis Set: CC-PVDZ
    Blend: CC-PVDZ
    Number of shells: 12
    Number of basis function: 24
    Number of Cartesian functions: 25
    Spherical Harmonics?: true
    Max angular momentum: 2

  ==> DFJKGrad: Density-Fitted SCF Gradients <==

    Gradient:                    1
    J tasked:                  Yes
    K tasked:                  Yes
    wK tasked:                  No
    OpenMP threads:              1
    Integrals threads:           1
    Memory (MB):               375
    Schwarz Cutoff:          0E+00
    Fitting Condition:       1E-12

   => Auxiliary Basis Set <=

  Basis Set: (CC-PVDZ AUX)
    Blend: CC-PVDZ-JKFIT
    Number of shells: 42
    Number of basis function: 116
    Number of Cartesian functions: 131
    Spherical Harmonics?: true
    Max angular momentum: 3


  -Total Gradient:
     Atom            X                  Y                   Z
    ------   -----------------  -----------------  -----------------
       1       -0.000494863810    -0.000494863857     0.000000000001
       2        0.000562008060    -0.000067144244     0.000000000000
       3       -0.000067144249     0.000562008102     0.000000000000


*** tstop() called on psinet at Mon May 15 16:00:41 2017
Module time:
	user time   =       0.12 seconds =       0.00 minutes
	system time =       0.01 seconds =       0.00 minutes
	total time  =          0 seconds =       0.00 minutes
Total time:
	user time   =       1.59 seconds =       0.03 minutes
	system time =       0.10 seconds =       0.00 minutes
	total time  =          2 seconds =       0.03 minutes

			-----------------------------------------
			 OPTKING 2.0: for geometry optimizations 
			  - R.A. King,  Bethel University        
			-----------------------------------------

	Previous internal coordinate definitions found.
	---Fragment 1 Geometry and Gradient---
	 O           1.8897261329        1.8897261329        1.8897261329
	 H           3.6643701842        1.6624038473        1.8897261329
	 H           1.6624038491        3.6643701845        1.8897261329
	            -0.0004948638       -0.0004948639        0.0000000000
	             0.0005620081       -0.0000671442        0.0000000000
	            -0.0000671442        0.0005620081        0.0000000000

	---Fragment 1 Intrafragment Coordinates---
	 - Coordinate -           - BOHR/RAD -       - ANG/DEG -
	 R(1,2)           =         1.789144	       0.946774
	 R(1,3)           =         1.789144	       0.946774
	 B(2,1,3)         =         1.825598	     104.599056
	*R(1,X)           =         1.889726	       1.000000
	*R(1,Y)           =         1.889726	       1.000000
	*R(1,Z)           =         1.889726	       1.000000

	Current energy   :       -76.0270322530

	Energy change for the previous step:
		Projected    :        -0.0000296470
		Actual       :        -0.0000118857

	Performing BFGS update.
	Previous computed or guess Hessian on step 1.
	Steps to be used in Hessian update: 3 2
	Taking RFO optimization step.
	Going to follow RFO solution 1.
	Using RFO vector 1.
	Norm of target step-size    0.00140
	Projected energy change by RFO approximation:        -0.0000010820

	Back-transformation to cartesian coordinates...
	Successfully converged to displaced geometry.

	Back-transformation to cartesian coordinates to adjust frozen coordinates...
	Successfully converged to displaced geometry.

	--- Internal Coordinate Step in ANG or DEG, aJ/ANG or AJ/DEG ---
	 ---------------------------------------------------------------------------
	   Coordinate                Previous        Force       Change         New 
	   ----------                --------       ------       ------       ------
	    1 R(1,2)          =      0.946774    -0.004663    -0.000504     0.946270
	    2 R(1,3)          =      0.946774    -0.004663    -0.000504     0.946270
	    3 B(2,1,3)        =    104.599056     0.000001     0.021885   104.620940
	    4 *R(1,X)         =      1.000000    -0.000000     0.000000     1.000000
	    5 *R(1,Y)         =      1.000000    -0.000000     0.000000     1.000000
	    6 *R(1,Z)         =      1.000000     0.000000     0.000000     1.000000
	 ---------------------------------------------------------------------------
	Successfully symmetrized geometry.

  ==> Convergence Check <==

  Measures of convergence in internal coordinates in au.
  Criteria marked as inactive (o), active & met (*), and active & unmet ( ).
  ---------------------------------------------------------------------------------------------
   Step     Total Energy     Delta E     MAX Force     RMS Force      MAX Disp      RMS Disp   
  ---------------------------------------------------------------------------------------------
    Convergence Criteria    1.00e-06 *    3.00e-04 *             o    1.20e-03 *             o
  ---------------------------------------------------------------------------------------------
      4     -76.02703225   -1.19e-05      5.66e-04      3.27e-04 o    9.53e-04 *    5.72e-04 o  ~
  ---------------------------------------------------------------------------------------------

	Writing optimization data to binary file.
	Structure for next step:
	Cartesian Geometry (in Angstrom)
	    O     1.0000000000   1.0000000000   1.0000000000
	    H     1.9385780246   0.8795910474   1.0000000000
	    H     0.8795910483   1.9385780250   1.0000000000
			--------------------------
			 OPTKING Finished Execution 
			--------------------------

    Structure for next step:
    Molecular point group: c1
    Full point group: C1

    Geometry (in Angstrom), charge = 0, multiplicity = 1:

    O            1.000000000000     1.000000000000     1.000000000000
    H            1.938578024646     0.879591047419     1.000000000000
    H            0.879591048334     1.938578024980     1.000000000000

gradient() will perform analytic gradient computation.

*** tstart() called on psinet
*** at Mon May 15 16:00:41 2017

   => Loading Basis Set <=

    Name: CC-PVDZ
    Role: ORBITAL
    Keyword: BASIS
    atoms 1   entry O          line   190 file /home/psilocaluser/gits/hrw-direct/objdir4/stage/usr/local/psi4/share/psi4/basis/cc-pvdz.gbs 
    atoms 2-3 entry H          line    20 file /home/psilocaluser/gits/hrw-direct/objdir4/stage/usr/local/psi4/share/psi4/basis/cc-pvdz.gbs 


         ---------------------------------------------------------
                                   SCF
            by Justin Turney, Rob Parrish, and Andy Simmonett
                              RHF Reference
                        1 Threads,    500 MiB Core
         ---------------------------------------------------------

  ==> Geometry <==

    Molecular point group: c1
    Full point group: C1

    Geometry (in Angstrom), charge = 0, multiplicity = 1:

       Center              X                  Y                   Z               Mass       
    ------------   -----------------  -----------------  -----------------  -----------------
           O          1.000000000000     1.000000000000     1.000000000000    15.994914619560
           H          1.938578024646     0.879591047419     1.000000000000     1.007825032070
           H          0.879591048334     1.938578024980     1.000000000000     1.007825032070

  Running in c1 symmetry.

  Rotational constants: A =     12.80136  B =      0.29063  C =      0.28597 [cm^-1]
  Rotational constants: A = 383775.04580  B =   8712.73743  C =   8573.27101 [MHz]
  Nuclear repulsion =    9.300930958167907

  Charge       = 0
  Multiplicity = 1
  Electrons    = 10
  Nalpha       = 5
  Nbeta        = 5

  ==> Algorithm <==

  SCF Algorithm Type is DF.
  DIIS enabled.
  MOM disabled.
  Fractional occupation disabled.
  Guess Type is READ.
  Energy threshold   = 1.00e-11
  Density threshold  = 1.00e-08
  Integral threshold = 0.00e+00

  ==> Primary Basis <==

  Basis Set: CC-PVDZ
    Blend: CC-PVDZ
    Number of shells: 12
    Number of basis function: 24
    Number of Cartesian functions: 25
    Spherical Harmonics?: true
    Max angular momentum: 2

   => Loading Basis Set <=

    Name: (CC-PVDZ AUX)
    Role: JKFIT
    Keyword: DF_BASIS_SCF
    atoms 1   entry O          line   220 file /home/psilocaluser/gits/hrw-direct/objdir4/stage/usr/local/psi4/share/psi4/basis/cc-pvdz-jkfit.gbs 
    atoms 2-3 entry H          line    50 file /home/psilocaluser/gits/hrw-direct/objdir4/stage/usr/local/psi4/share/psi4/basis/cc-pvdz-jkfit.gbs 

  Reading orbitals from file 180, no projection.

  ==> Pre-Iterations <==

   -------------------------------------------------------
    Irrep   Nso     Nmo     Nalpha   Nbeta   Ndocc  Nsocc
   -------------------------------------------------------
     A         24      24       0       0       0       0
   -------------------------------------------------------
    Total      24      24       5       5       5       0
   -------------------------------------------------------

  ==> Integral Setup <==

  ==> DFJK: Density-Fitted J/K Matrices <==

    J tasked:                  Yes
    K tasked:                  Yes
    wK tasked:                  No
    OpenMP threads:              1
    Integrals threads:           1
    Memory (MB):               375
    Algorithm:                Core
    Integral Cache:           NONE
    Schwarz Cutoff:          1E-12
    Fitting Condition:       1E-12

   => Auxiliary Basis Set <=

  Basis Set: (CC-PVDZ AUX)
    Blend: CC-PVDZ-JKFIT
    Number of shells: 42
    Number of basis function: 116
    Number of Cartesian functions: 131
    Spherical Harmonics?: true
    Max angular momentum: 3

  Minimum eigenvalue in the overlap matrix is 3.3424441106E-02.
  Using Symmetric Orthogonalization.

  SCF Guess: Orbitals guess was supplied from a previous computation.

  ==> Iterations <==

                           Total Energy        Delta E     RMS |[F,P]|

   @DF-RHF iter   0:   -76.02779242872771   -7.60278e+01   8.03553e-05 
   @DF-RHF iter   1:   -76.02703274162076    7.59687e-04   1.16533e-05 
   @DF-RHF iter   2:   -76.02703277525495   -3.36342e-08   6.14615e-06 DIIS
   @DF-RHF iter   3:   -76.02703278273205   -7.47710e-09   9.97978e-07 DIIS
   @DF-RHF iter   4:   -76.02703278340661   -6.74561e-10   3.11388e-07 DIIS
   @DF-RHF iter   5:   -76.02703278347623   -6.96190e-11   6.84019e-08 DIIS
   @DF-RHF iter   6:   -76.02703278348024   -4.00746e-12   1.01064e-08 DIIS
   @DF-RHF iter   7:   -76.02703278348028   -4.26326e-14   1.48671e-09 DIIS

  ==> Post-Iterations <==

    Orbital Energies (a.u.)
    -----------------------

    Doubly Occupied:                                                      

       1A    -20.548429     2A     -1.342278     3A     -0.705451  
       4A     -0.568386     5A     -0.493917  

    Virtual:                                                              

       6A      0.187422     7A      0.257809     8A      0.797742  
       9A      0.864392    10A      1.162770    11A      1.200473  
      12A      1.252687    13A      1.444315    14A      1.479251  
      15A      1.678126    16A      1.865537    17A      1.947190  
      18A      2.479593    19A      2.518489    20A      3.295525  
      21A      3.350745    22A      3.525287    23A      3.879577  
      24A      4.159745  

    Final Occupation by Irrep:
              A 
    DOCC [     5 ]

  Energy converged.

  @DF-RHF Final Energy:   -76.02703278348028

   => Energetics <=

    Nuclear Repulsion Energy =              9.3009309581679069
    One-Electron Energy =                -123.3390055024814416
    Two-Electron Energy =                  38.0110417608332440
    DFT Exchange-Correlation Energy =       0.0000000000000000
    Empirical Dispersion Energy =           0.0000000000000000
    PCM Polarization Energy =               0.0000000000000000
    EFP Energy =                            0.0000000000000000
    Total Energy =                        -76.0270327834802799



Properties will be evaluated at   0.000000,   0.000000,   0.000000 Bohr

Properties computed using the SCF density matrix

  Nuclear Dipole Moment: (a.u.)
     X:    20.4434      Y:    20.4434      Z:    18.8973

  Electronic Dipole Moment: (a.u.)
     X:   -19.8746      Y:   -19.8746      Z:   -18.8973

  Dipole Moment: (a.u.)
     X:     0.5688      Y:     0.5688      Z:    -0.0000     Total:     0.8043

  Dipole Moment: (Debye)
     X:     1.4456      Y:     1.4456      Z:    -0.0000     Total:     2.0444


*** tstop() called on psinet at Mon May 15 16:00:41 2017
Module time:
	user time   =       0.17 seconds =       0.00 minutes
	system time =       0.02 seconds =       0.00 minutes
	total time  =          0 seconds =       0.00 minutes
Total time:
	user time   =       1.77 seconds =       0.03 minutes
	system time =       0.12 seconds =       0.00 minutes
	total time  =          2 seconds =       0.03 minutes

*** tstart() called on psinet
*** at Mon May 15 16:00:41 2017


         ------------------------------------------------------------
                                   SCF GRAD                          
                          Rob Parrish, Justin Turney,                
                       Andy Simmonett, and Alex Sokolov              
         ------------------------------------------------------------

  ==> Geometry <==

    Molecular point group: c1
    Full point group: C1

    Geometry (in Angstrom), charge = 0, multiplicity = 1:

       Center              X                  Y                   Z               Mass       
    ------------   -----------------  -----------------  -----------------  -----------------
           O          1.000000000000     1.000000000000     1.000000000000    15.994914619560
           H          1.938578024646     0.879591047419     1.000000000000     1.007825032070
           H          0.879591048334     1.938578024980     1.000000000000     1.007825032070

  Nuclear repulsion =    9.300930958167907

  ==> Basis Set <==

  Basis Set: CC-PVDZ
    Blend: CC-PVDZ
    Number of shells: 12
    Number of basis function: 24
    Number of Cartesian functions: 25
    Spherical Harmonics?: true
    Max angular momentum: 2

  ==> DFJKGrad: Density-Fitted SCF Gradients <==

    Gradient:                    1
    J tasked:                  Yes
    K tasked:                  Yes
    wK tasked:                  No
    OpenMP threads:              1
    Integrals threads:           1
    Memory (MB):               375
    Schwarz Cutoff:          0E+00
    Fitting Condition:       1E-12

   => Auxiliary Basis Set <=

  Basis Set: (CC-PVDZ AUX)
    Blend: CC-PVDZ-JKFIT
    Number of shells: 42
    Number of basis function: 116
    Number of Cartesian functions: 131
    Spherical Harmonics?: true
    Max angular momentum: 3


  -Total Gradient:
     Atom            X                  Y                   Z
    ------   -----------------  -----------------  -----------------
       1        0.000011206146     0.000011205872     0.000000000001
       2       -0.000010913370    -0.000000292743     0.000000000000
       3       -0.000000292775    -0.000010913128     0.000000000000


*** tstop() called on psinet at Mon May 15 16:00:41 2017
Module time:
	user time   =       0.12 seconds =       0.00 minutes
	system time =       0.00 seconds =       0.00 minutes
	total time  =          0 seconds =       0.00 minutes
Total time:
	user time   =       1.89 seconds =       0.03 minutes
	system time =       0.12 seconds =       0.00 minutes
	total time  =          2 seconds =       0.03 minutes

			-----------------------------------------
			 OPTKING 2.0: for geometry optimizations 
			  - R.A. King,  Bethel University        
			-----------------------------------------

	Previous internal coordinate definitions found.
	---Fragment 1 Geometry and Gradient---
	 O           1.8897261329        1.8897261329        1.8897261329
	 H           3.6633815538        1.6621861886        1.8897261329
	 H           1.6621861903        3.6633815544        1.8897261329
	             0.0000112061        0.0000112059        0.0000000000
	            -0.0000109134       -0.0000002927        0.0000000000
	            -0.0000002928       -0.0000109131        0.0000000000

	---Fragment 1 Intrafragment Coordinates---
	 - Coordinate -           - BOHR/RAD -       - ANG/DEG -
	 R(1,2)           =         1.788191	       0.946270
	 R(1,3)           =         1.788191	       0.946270
	 B(2,1,3)         =         1.825980	     104.620940
	*R(1,X)           =         1.889726	       1.000000
	*R(1,Y)           =         1.889726	       1.000000
	*R(1,Z)           =         1.889726	       1.000000

	Current energy   :       -76.0270327835

	Energy change for the previous step:
		Projected    :        -0.0000010820
		Actual       :        -0.0000005304

	Performing BFGS update.
	Previous computed or guess Hessian on step 1.
	Steps to be used in Hessian update: 4 3
	Taking RFO optimization step.
	Going to follow RFO solution 1.
	Using RFO vector 1.
	Norm of target step-size    0.00003
	Projected energy change by RFO approximation:        -0.0000000005

	Back-transformation to cartesian coordinates...
	Successfully converged to displaced geometry.

	Back-transformation to cartesian coordinates to adjust frozen coordinates...
	Successfully converged to displaced geometry.

	--- Internal Coordinate Step in ANG or DEG, aJ/ANG or AJ/DEG ---
	 ---------------------------------------------------------------------------
	   Coordinate                Previous        Force       Change         New 
	   ----------                --------       ------       ------       ------
	    1 R(1,2)          =      0.946270     0.000089     0.000010     0.946280
	    2 R(1,3)          =      0.946270     0.000089     0.000010     0.946280
	    3 B(2,1,3)        =    104.620940    -0.000000    -0.001255   104.619686
	    4 *R(1,X)         =      1.000000    -0.000000     0.000000     1.000000
	    5 *R(1,Y)         =      1.000000    -0.000000     0.000000     1.000000
	    6 *R(1,Z)         =      1.000000     0.000000     0.000000     1.000000
	 ---------------------------------------------------------------------------
	Successfully symmetrized geometry.

  ==> Convergence Check <==

  Measures of convergence in internal coordinates in au.
  Criteria marked as inactive (o), active & met (*), and active & unmet ( ).
  ---------------------------------------------------------------------------------------------
   Step     Total Energy     Delta E     MAX Force     RMS Force      MAX Disp      RMS Disp   
  ---------------------------------------------------------------------------------------------
    Convergence Criteria    1.00e-06 *    3.00e-04 *             o    1.20e-03 *             o
  ---------------------------------------------------------------------------------------------
      5     -76.02703278   -5.30e-07 *    1.08e-05 *    6.35e-06 o    2.19e-05 *    1.38e-05 o  ~
  ---------------------------------------------------------------------------------------------


  **** Optimization is complete! (in 5 steps) ****

  ==> Optimization Summary <==

  Measures of convergence in internal coordinates in au.
  --------------------------------------------------------------------------------------------------------------- ~
   Step         Total Energy             Delta E       MAX Force       RMS Force        MAX Disp        RMS Disp  ~
  --------------------------------------------------------------------------------------------------------------- ~
      1     -76.016761425613    -76.016761425613      0.04430770      0.03111820      0.24317376      0.11190340  ~
      2     -76.026939644639     -0.010178219026      0.00694415      0.00405274      0.01625493      0.01008427  ~
      3     -76.027020367343     -0.000080722704      0.00269683      0.00159008      0.00511778      0.00313803  ~
      4     -76.027032253032     -0.000011885689      0.00056598      0.00032679      0.00095293      0.00057185  ~
      5     -76.027032783480     -0.000000530448      0.00001079      0.00000635      0.00002190      0.00001384  ~
  --------------------------------------------------------------------------------------------------------------- ~

	Writing optimization data to binary file.
	Final energy is    -76.0270327834803
	Final (previous) structure:
	Cartesian Geometry (in Angstrom)
	    O     1.0000000000   1.0000000000   1.0000000000
	    H     1.9385780246   0.8795910474   1.0000000000
	    H     0.8795910483   1.9385780250   1.0000000000
	Saving final (previous) structure.
			--------------------------
			 OPTKING Finished Execution 
			--------------------------

    Final optimized geometry and variables:
    Molecular point group: c1
    Full point group: C1

    Geometry (in Angstrom), charge = 0, multiplicity = 1:

    O            1.000000000000     1.000000000000     1.000000000000
    H            1.938578024646     0.879591047419     1.000000000000
    H            0.879591048334     1.938578024980     1.000000000000

	Cleaning optimization helper files.
	SCF Optimized energy..............................................PASSED
	X Frozen coordinate...............................................PASSED
	Y Frozen coordinate...............................................PASSED
	Z Frozen coordinate...............................................PASSED

*** Psi4 exiting successfully. Buy a developer a beer!
