
    -----------------------------------------------------------------------
          Psi4: An Open-Source Ab Initio Electronic Structure Package
                               Psi4 1.1rc3.dev5 

                         Git: Rev {master} 3fbd859 


    R. M. Parrish, L. A. Burns, D. G. A. Smith, A. C. Simmonett,
    A. E. DePrince III, E. G. Hohenstein, U. Bozkaya, A. Yu. Sokolov,
    R. Di Remigio, R. M. Richard, J. F. Gonthier, A. M. James,
    H. R. McAlexander, A. Kumar, M. Saitow, X. Wang, B. P. Pritchard,
    P. Verma, H. F. Schaefer III, K. Patkowski, R. A. King, E. F. Valeev,
    F. A. Evangelista, J. M. Turney, T. D. Crawford, and C. D. Sherrill,
    J. Chem. Theory Comput. in press (2017).
    (doi: 10.1021/acs.jctc.7b00174)

    -----------------------------------------------------------------------


    Psi4 started on: Monday, 15 May 2017 03:35PM

    Process ID:  13699
    PSIDATADIR: /home/psilocaluser/gits/hrw-direct/objdir4/stage/usr/local/psi4/share/psi4
    Memory:     500.0 MiB
    Threads:    1
    
  ==> Input File <==

--------------------------------------------------------------------------
#! DF-CCSD cc-pVDZ gradients for the H2O molecule.

ref_vals = [                                                             #TEST
             [  0.000000000000,    -0.00000000004556,     0.01125855952669],  #TEST
             [  0.000000000000,     0.00201761388675,    -0.00562927978099],  #TEST
             [  0.000000000000,    -0.00201761384119,    -0.00562927974570]   #TEST
           ]                                                             #TEST
ref = psi4.Matrix(3, 3)                                                #TEST
ref.set(ref_vals)

molecule h2o {
0 1
o
h 1 0.958
h 1 0.958 2 104.4776 
symmetry c1
}

set {
  basis cc-pvdz
  df_basis_scf cc-pvdz-jkfit
  df_basis_cc cc-pvdz-ri
  guess sad
  scf_type df
  freeze_core true
  cc_type df
}

grad = gradient('ccd')

compare_matrices(ref, grad, 5, "Analytic gradients")  #TEST


--------------------------------------------------------------------------
gradient() will perform analytic gradient computation.

*** tstart() called on psinet
*** at Mon May 15 15:35:34 2017

   => Loading Basis Set <=

    Name: CC-PVDZ
    Role: ORBITAL
    Keyword: BASIS
    atoms 1   entry O          line   190 file /home/psilocaluser/gits/hrw-direct/objdir4/stage/usr/local/psi4/share/psi4/basis/cc-pvdz.gbs 
    atoms 2-3 entry H          line    20 file /home/psilocaluser/gits/hrw-direct/objdir4/stage/usr/local/psi4/share/psi4/basis/cc-pvdz.gbs 


         ---------------------------------------------------------
                                   SCF
            by Justin Turney, Rob Parrish, and Andy Simmonett
                              RHF Reference
                        1 Threads,    500 MiB Core
         ---------------------------------------------------------

  ==> Geometry <==

    Molecular point group: c1
    Full point group: C2v

    Geometry (in Angstrom), charge = 0, multiplicity = 1:

       Center              X                  Y                   Z               Mass       
    ------------   -----------------  -----------------  -----------------  -----------------
           O          0.000000000000     0.000000000000    -0.065655108074    15.994914619560
           H          0.000000000000    -0.757365949175     0.520997104936     1.007825032070
           H          0.000000000000     0.757365949175     0.520997104936     1.007825032070

  Running in c1 symmetry.

  Rotational constants: A =     27.36310  B =     14.58041  C =      9.51197 [cm^-1]
  Rotational constants: A = 820325.16776  B = 437109.76453  C = 285161.58706 [MHz]
  Nuclear repulsion =    9.187386421477592

  Charge       = 0
  Multiplicity = 1
  Electrons    = 10
  Nalpha       = 5
  Nbeta        = 5

  ==> Algorithm <==

  SCF Algorithm Type is DF.
  DIIS enabled.
  MOM disabled.
  Fractional occupation disabled.
  Guess Type is SAD.
  Energy threshold   = 1.00e-10
  Density threshold  = 1.00e-10
  Integral threshold = 0.00e+00

  ==> Primary Basis <==

  Basis Set: CC-PVDZ
    Blend: CC-PVDZ
    Number of shells: 12
    Number of basis function: 24
    Number of Cartesian functions: 25
    Spherical Harmonics?: true
    Max angular momentum: 2

   => Loading Basis Set <=

    Name: CC-PVDZ-JKFIT
    Role: JKFIT
    Keyword: DF_BASIS_SCF
    atoms 1   entry O          line   220 file /home/psilocaluser/gits/hrw-direct/objdir4/stage/usr/local/psi4/share/psi4/basis/cc-pvdz-jkfit.gbs 
    atoms 2-3 entry H          line    50 file /home/psilocaluser/gits/hrw-direct/objdir4/stage/usr/local/psi4/share/psi4/basis/cc-pvdz-jkfit.gbs 

  ==> Pre-Iterations <==

   -------------------------------------------------------
    Irrep   Nso     Nmo     Nalpha   Nbeta   Ndocc  Nsocc
   -------------------------------------------------------
     A         24      24       0       0       0       0
   -------------------------------------------------------
    Total      24      24       5       5       5       0
   -------------------------------------------------------

  ==> Integral Setup <==

  ==> DFJK: Density-Fitted J/K Matrices <==

    J tasked:                  Yes
    K tasked:                  Yes
    wK tasked:                  No
    OpenMP threads:              1
    Integrals threads:           1
    Memory (MB):               375
    Algorithm:                Core
    Integral Cache:           SAVE
    Schwarz Cutoff:          1E-12
    Fitting Condition:       1E-12

   => Auxiliary Basis Set <=

  Basis Set: CC-PVDZ-JKFIT
    Blend: CC-PVDZ-JKFIT
    Number of shells: 42
    Number of basis function: 116
    Number of Cartesian functions: 131
    Spherical Harmonics?: true
    Max angular momentum: 3

  Minimum eigenvalue in the overlap matrix is 3.4230868664E-02.
  Using Symmetric Orthogonalization.

  SCF Guess: Superposition of Atomic Densities via on-the-fly atomic UHF.

  ==> Iterations <==

                           Total Energy        Delta E     RMS |[F,P]|

   @DF-RHF iter   0:   -76.05124131707881   -7.60512e+01   7.05721e-02 
   @DF-RHF iter   1:   -75.98268109612502    6.85602e-02   1.27030e-02 
   @DF-RHF iter   2:   -76.01796198002032   -3.52809e-02   6.22730e-03 DIIS
   @DF-RHF iter   3:   -76.02598528615204   -8.02331e-03   1.19025e-03 DIIS
   @DF-RHF iter   4:   -76.02666667525563   -6.81389e-04   3.27864e-04 DIIS
   @DF-RHF iter   5:   -76.02673656003468   -6.98848e-05   6.32151e-05 DIIS
   @DF-RHF iter   6:   -76.02673999414142   -3.43411e-06   1.35687e-05 DIIS
   @DF-RHF iter   7:   -76.02674017093882   -1.76797e-07   2.91763e-06 DIIS
   @DF-RHF iter   8:   -76.02674017941325   -8.47443e-09   6.56497e-07 DIIS
   @DF-RHF iter   9:   -76.02674017977012   -3.56863e-10   1.32813e-07 DIIS
   @DF-RHF iter  10:   -76.02674017978481   -1.46940e-11   2.89913e-08 DIIS
   @DF-RHF iter  11:   -76.02674017978538   -5.68434e-13   3.61026e-09 DIIS
   @DF-RHF iter  12:   -76.02674017978532    5.68434e-14   7.95216e-10 DIIS
   @DF-RHF iter  13:   -76.02674017978543   -1.13687e-13   2.65575e-10 DIIS
   @DF-RHF iter  14:   -76.02674017978541    2.84217e-14   6.55463e-11 DIIS

  ==> Post-Iterations <==

    Orbital Energies (a.u.)
    -----------------------

    Doubly Occupied:                                                      

       1A    -20.550585     2A     -1.336342     3A     -0.698830  
       4A     -0.566503     5A     -0.493099  

    Virtual:                                                              

       6A      0.185441     7A      0.256144     8A      0.788691  
       9A      0.853812    10A      1.163733    11A      1.200441  
      12A      1.253476    13A      1.444765    14A      1.476603  
      15A      1.674917    16A      1.867631    17A      1.934918  
      18A      2.451189    19A      2.488875    20A      3.285846  
      21A      3.338551    22A      3.510393    23A      3.865411  
      24A      4.147172  

    Final Occupation by Irrep:
              A 
    DOCC [     5 ]

  Energy converged.

  @DF-RHF Final Energy:   -76.02674017978541

   => Energetics <=

    Nuclear Repulsion Energy =              9.1873864214775924
    One-Electron Energy =                -123.1375342580428622
    Two-Electron Energy =                  37.9234076567798510
    DFT Exchange-Correlation Energy =       0.0000000000000000
    Empirical Dispersion Energy =           0.0000000000000000
    PCM Polarization Energy =               0.0000000000000000
    EFP Energy =                            0.0000000000000000
    Total Energy =                        -76.0267401797854063



Properties will be evaluated at   0.000000,   0.000000,   0.000000 Bohr

Properties computed using the SCF density matrix

  Nuclear Dipole Moment: (a.u.)
     X:     0.0000      Y:     0.0000      Z:     0.9765

  Electronic Dipole Moment: (a.u.)
     X:     0.0000      Y:    -0.0000      Z:    -0.1669

  Dipole Moment: (a.u.)
     X:     0.0000      Y:    -0.0000      Z:     0.8097     Total:     0.8097

  Dipole Moment: (Debye)
     X:     0.0000      Y:    -0.0000      Z:     2.0580     Total:     2.0580


*** tstop() called on psinet at Mon May 15 15:35:35 2017
Module time:
	user time   =       0.43 seconds =       0.01 minutes
	system time =       0.02 seconds =       0.00 minutes
	total time  =          1 seconds =       0.02 minutes
Total time:
	user time   =       0.43 seconds =       0.01 minutes
	system time =       0.02 seconds =       0.00 minutes
	total time  =          1 seconds =       0.02 minutes
   => Loading Basis Set <=

    Name: CC-PVDZ-JKFIT
    Role: JKFIT
    Keyword: DF_BASIS_SCF
    atoms 1   entry O          line   220 file /home/psilocaluser/gits/hrw-direct/objdir4/stage/usr/local/psi4/share/psi4/basis/cc-pvdz-jkfit.gbs 
    atoms 2-3 entry H          line    50 file /home/psilocaluser/gits/hrw-direct/objdir4/stage/usr/local/psi4/share/psi4/basis/cc-pvdz-jkfit.gbs 

   => Loading Basis Set <=

    Name: CC-PVDZ-RI
    Role: RIFIT
    Keyword: DF_BASIS_CC
    atoms 1   entry O          line   234 file /home/psilocaluser/gits/hrw-direct/objdir4/stage/usr/local/psi4/share/psi4/basis/cc-pvdz-ri.gbs 
    atoms 2-3 entry H          line    18 file /home/psilocaluser/gits/hrw-direct/objdir4/stage/usr/local/psi4/share/psi4/basis/cc-pvdz-ri.gbs 


*** tstart() called on psinet
*** at Mon May 15 15:35:35 2017



  Options:
  ----------------------------------------------------------------------------
  ACTIVE                      => [  ]             
  BASIS_RELATIVISTIC          => (empty)          
  BENCH                       => 0                
  CC_DIIS_MAX_VECS            => 6                
  CC_DIIS_MIN_VECS            => 2                
  CC_LAMBDA                   => TRUE            !
  CC_MAXITER                  => 50               
  CC_TYPE                     => DF              !
  CHOLESKY                    => FALSE            
  CHOLESKY_TOLERANCE          => 0.0001           
  CI_TYPE                     => CONV             
  COMPUT_S2                   => FALSE            
  CUBEPROP_BASIS_FUNCTIONS    => [  ]             
  CUBEPROP_FILEPATH           => .                
  CUBEPROP_ORBITALS           => [  ]             
  CUBEPROP_TASKS              => [  ]             
  CUBIC_BASIS_TOLERANCE       => 1e-12            
  CUBIC_BLOCK_MAX_POINTS      => 1000             
  CUBIC_GRID_OVERAGE          => [  ]             
  CUBIC_GRID_SPACING          => [  ]             
  CUTOFF                      => 8                
  DEBUG                       => 0                
  DERTYPE                     => FIRST           !
  DF_BASIS_CC                 => CC-PVDZ-RI      !
  DIE_IF_NOT_CONVERGED        => TRUE             
  DKH_ORDER                   => 2                
  DOCC                        => [  ]             
  DO_DIIS                     => TRUE             
  DO_LEVEL_SHIFT              => TRUE             
  DO_SCS                      => FALSE           !
  DO_SOS                      => FALSE           !
  E3_SCALE                    => 0.25             
  EKT_IP                      => FALSE            
  EXTERNAL_POTENTIAL_SYMMETRY => FALSE            
  E_CONVERGENCE               => 1e-08           !
  FREEZE_CORE                 => TRUE            !
  FROZEN_DOCC                 => [  ]             
  FROZEN_UOCC                 => [  ]             
  HESS_TYPE                   => HF               
  INTEGRAL_CUTOFF             => 9                
  INTEGRAL_PACKAGE            => LIBINT           
  LEVEL_SHIFT                 => 0.02             
  LINEQ_SOLVER                => CDGESV           
  LITERAL_CFOUR               => (empty)          
  MAT_NUM_COLUMN_PRINT        => 5                
  MAX_MOGRAD_CONVERGENCE      => 0.001            
  MOLDEN_WITH_VIRTUAL         => TRUE             
  MOLDEN_WRITE                => FALSE            
  MO_DIIS_NUM_VECS            => 6                
  MO_MAXITER                  => 50               
  MO_STEP_MAX                 => 0.5              
  MP2_AMP_TYPE                => DIRECT           
  MP2_OS_SCALE                => 1.2              
  MP2_SOS_SCALE               => 1.3              
  MP2_SOS_SCALE2              => 1.2              
  MP2_SS_SCALE                => 0.333333         
  MP2_TYPE                    => DF               
  MP_TYPE                     => CONV             
  NAT_ORBS                    => FALSE            
  NUM_FROZEN_DOCC             => 0                
  NUM_FROZEN_UOCC             => 0                
  OCC_ORBS_PRINT              => FALSE            
  OEPROP                      => FALSE            
  OO_SCALE                    => 0.01             
  OPT_METHOD                  => QNR              
  ORB_OPT                     => FALSE           !
  ORB_RESP_SOLVER             => PCG              
  ORTH_TYPE                   => MGS              
  PCG_BETA_TYPE               => FLETCHER_REEVES  
  PCG_CONVERGENCE             => 1e-06            
  PCG_MAXITER                 => 50               
  PCM                         => FALSE            
  PCM_CC_TYPE                 => PTE              
  PCM_SCF_TYPE                => TOTAL            
  PPL_TYPE                    => AUTO             
  PRINT                       => 1                
  PRINT_NOONS                 => 3                
  PROPERTIES                  => [  ]             
  PROPERTIES_ORIGIN           => [  ]             
  PUREAM                      => TRUE             
  QCHF                        => FALSE            
  QC_MODULE                   => (empty)          
  RAS1                        => [  ]             
  RAS2                        => [  ]             
  RAS3                        => [  ]             
  RAS4                        => [  ]             
  READ_SCF_3INDEX             => TRUE             
  REGULARIZATION              => FALSE            
  REG_PARAM                   => 0.4              
  RELATIVISTIC                => NO               
  RESTRICTED_DOCC             => [  ]             
  RESTRICTED_UOCC             => [  ]             
  RMS_MOGRAD_CONVERGENCE      => 1e-06            
  R_CONVERGENCE               => 1e-05            
  SCS_TYPE                    => SCS              
  SOCC                        => [  ]             
  SOS_TYPE                    => SOS              
  TRIPLES_IABC_TYPE           => DISK             
  UNITS                       => ANGSTROMS        
  WFN                         => SCF              
  WFN_TYPE                    => DF-CCD          !
  WRITER_FILE_LABEL           => (empty)          


 ============================================================================== 
 ============================================================================== 
 ============================================================================== 

                       DF-CCD   
              Program Written by Ugur Bozkaya
              Latest Revision April 17, 2016

 ============================================================================== 
 ============================================================================== 
 ============================================================================== 

	MO spaces... 

	 FC   OCC   VIR   FV 
	----------------------
	  1    4    19    0

	Number of basis functions in the DF-CC basis:  84
	Reading DF integrals from disk ...
	Number of basis functions in the DF-HF basis: 116

	Available memory                      :    500.00 MB 
	Memory requirement for 3-index ints   :      0.29 MB 
	Memory requirement for DF-CC int trans:      0.89 MB 
	Memory requirement for CC contractions:      0.28 MB 
	Total memory requirement for DF+CC int:      0.57 MB 
	Memory requirement for Wabef term     :      0.56 MB 
	Memory for high mem Wabef algorithm   :      0.83 MB 
	I will use the HIGH_MEM Wabef algorithm! 

	Computing DF-MP2 energy ... 
	======================================================================= 
	Nuclear Repulsion Energy (a.u.)    :     9.18738642147759
	DF-HF Energy (a.u.)                :   -76.02674017978541
	REF Energy (a.u.)                  :   -76.02674017978541
	DF-MP2 Correlation Energy (a.u.)   :    -0.20165224256007
	DF-MP2 Total Energy (a.u.)         :   -76.22839242234548
	======================================================================= 

 ============================================================================== 
 ================ Performing DF-CCD iterations... ============================= 
 ============================================================================== 

  Iter       E_corr                  DE                 T2 RMS      
  ----   ----------------      ----------------       ----------    
   1      -0.2069556925         -0.0053034499          3.09e-04  
   2      -0.2104678588         -0.0035121663          1.05e-04  
   3      -0.2105979014         -0.0001300425          1.93e-05  
   4      -0.2106312415         -0.0000333401          4.64e-06  
   5      -0.2106368351         -0.0000055936          8.58e-07  
   6      -0.2106366744         0.0000001606          1.75e-07  
   7      -0.2106369222         -0.0000002477          3.55e-08  
   8      -0.2106368405         0.0000000817          7.37e-09  
   9      -0.2106368325         0.0000000080          1.27e-09  

 ============================================================================== 
 ===================== DF-CCD ITERATIONS ARE CONVERGED ======================== 
 ============================================================================== 

	======================================================================= 
	================ CCD FINAL RESULTS ==================================== 
	======================================================================= 
	Nuclear Repulsion Energy (a.u.)    :     9.18738642147759
	SCF Energy (a.u.)                  :   -76.02674017978541
	REF Energy (a.u.)                  :   -76.02674017978541
	DF-CCD Correlation Energy (a.u.)   :    -0.21063683245709
	DF-CCD Total Energy (a.u.)         :   -76.23737701224249
	======================================================================= 


*** tstop() called on psinet at Mon May 15 15:35:35 2017
Module time:
	user time   =       0.13 seconds =       0.00 minutes
	system time =       0.05 seconds =       0.00 minutes
	total time  =          0 seconds =       0.00 minutes
Total time:
	user time   =       0.63 seconds =       0.01 minutes
	system time =       0.07 seconds =       0.00 minutes
	total time  =          1 seconds =       0.02 minutes

*** tstart() called on psinet
*** at Mon May 15 15:35:35 2017


 ============================================================================== 
 ============================================================================== 
 ============================================================================== 

                       DF-CCD-Lambda   
              Program Written by Ugur Bozkaya
              Latest Revision September 4, 2015

 ============================================================================== 
 ============================================================================== 
 ============================================================================== 

	Solving Lambda amplitude equations...

 ============================================================================== 
 ================ Performing DF-CCDL iterations... ============================ 
 ============================================================================== 

  Iter       E_corr                  DE                 L2 RMS      
  ----   ----------------      ----------------       ----------    
   1      -0.2080104779         0.0026263546          4.32e-05  
   2      -0.2078285475         0.0001819304          6.73e-06  
   3      -0.2077874016         0.0000411458          1.58e-06  
   4      -0.2077880750         -0.0000006733          2.60e-07  
   5      -0.2077877716         0.0000003034          5.83e-08  
   6      -0.2077876815         0.0000000901          1.15e-08  
   7      -0.2077876780         0.0000000034          2.25e-09  

 ============================================================================== 
 ===================== DF-CCDL ITERATIONS ARE CONVERGED ======================= 
 ============================================================================== 

	Computing 3-index intermediates...

*** tstop() called on psinet at Mon May 15 15:35:35 2017
Module time:
	user time   =       0.04 seconds =       0.00 minutes
	system time =       0.06 seconds =       0.00 minutes
	total time  =          0 seconds =       0.00 minutes
Total time:
	user time   =       0.67 seconds =       0.01 minutes
	system time =       0.13 seconds =       0.00 minutes
	total time  =          1 seconds =       0.02 minutes

*** tstart() called on psinet
*** at Mon May 15 15:35:35 2017


 ============================================================================== 
 ============================================================================== 
 ============================================================================== 

                         DFPDM   
              Particle Density Matrix Code   
               for Density-Fitted Methods       
                   by Ugur Bozkaya
              Latest Revision August 17, 2015

 ============================================================================== 
 ============================================================================== 
 ============================================================================== 

	Computing unrelaxed response density matrices...

	Forming independent-pairs...
	Number of independent-pairs:  95
	Computing the generalized Fock matrix (GFM)...
	Computing the orbital gradient...
	Forming effective orbital gradient...
	Solving orbital Z-vector equations...

	            PCG Solver 
	   ------------------------------ 
	Iter     RMS Z Vector        RMS Residual  
	----    ---------------    ---------------
	  1         2.47e-04         1.37e-04
	  2         4.14e-05         5.10e-05
	  3         2.58e-05         9.08e-06
	  4         3.16e-06         2.12e-06
	  5         5.13e-07         3.45e-07

	Computing the relaxed PDMs and GFM...

*** tstop() called on psinet at Mon May 15 15:35:35 2017
Module time:
	user time   =       0.02 seconds =       0.00 minutes
	system time =       0.01 seconds =       0.00 minutes
	total time  =          0 seconds =       0.00 minutes
Total time:
	user time   =       0.69 seconds =       0.01 minutes
	system time =       0.14 seconds =       0.00 minutes
	total time  =          1 seconds =       0.02 minutes

*** tstart() called on psinet
*** at Mon May 15 15:35:35 2017


 ============================================================================== 
 ============================================================================== 
 ============================================================================== 

                         DFGRAD   
            A General Analytic Gradients Code   
               for Density-Fitted Methods       
                   by Ugur Bozkaya
              Latest Revision October 7, 2015

 ============================================================================== 
 ============================================================================== 
 ============================================================================== 

	Analytic gradients computation is starting...
	Forming Gamma^tilde...
	Backtransforming OPDM, TPDM, and GFM to the AO basis...
	Computing analytic gradients...

  -Nuclear Gradient:
     Atom            X                  Y                   Z
    ------   -----------------  -----------------  -----------------
       1        0.000000000000     0.000000000000     2.989554195418
       2        0.000000000000     2.051800004663    -1.494777097709
       3        0.000000000000    -2.051800004663    -1.494777097709


  -Kinetic Gradient:
     Atom            X                  Y                   Z
    ------   -----------------  -----------------  -----------------
       1        0.000000000001     0.000000000009     0.891335758007
       2       -0.000000000000     0.593472675146    -0.445667878998
       3       -0.000000000001    -0.593472675155    -0.445667879008


  -Potential Gradient:
     Atom            X                  Y                   Z
    ------   -----------------  -----------------  -----------------
       1       -0.000000000008    -0.000000000003    -8.374507880190
       2        0.000000000003    -5.582582154420     4.187253940075
       3        0.000000000005     5.582582154423     4.187253940114


  -Overlap Gradient:
     Atom            X                  Y                   Z
    ------   -----------------  -----------------  -----------------
       1        0.000000000011     0.000000000005     0.473538538940
       2       -0.000000000002     0.288834873005    -0.236769312703
       3       -0.000000000010    -0.288834873010    -0.236769226238


  -One-Electron Gradient:
     Atom            X                  Y                   Z
    ------   -----------------  -----------------  -----------------
       1       -0.000000000006     0.000000000006    -7.483172122183
       2        0.000000000002    -4.989109479274     3.741586061077
       3        0.000000000004     4.989109479268     3.741586061106


  -Two-Electron Gradient:
     Atom            X                  Y                   Z
    ------   -----------------  -----------------  -----------------
       1       -0.000000000005    -0.000000000014     4.031333684846
       2       -0.000000000000     2.650490544428    -2.015666842413
       3        0.000000000005    -2.650490544414    -2.015666842433


  -Total Gradient:
     Atom            X                  Y                   Z
    ------   -----------------  -----------------  -----------------
       1        0.000000000000    -0.000000000003     0.011254297022
       2        0.000000000000     0.002015942823    -0.005627191747
       3       -0.000000000000    -0.002015942820    -0.005627105274


*** tstop() called on psinet at Mon May 15 15:35:35 2017
Module time:
	user time   =       0.15 seconds =       0.00 minutes
	system time =       0.03 seconds =       0.00 minutes
	total time  =          0 seconds =       0.00 minutes
Total time:
	user time   =       0.84 seconds =       0.01 minutes
	system time =       0.17 seconds =       0.00 minutes
	total time  =          1 seconds =       0.02 minutes
	Analytic gradients................................................PASSED

*** Psi4 exiting successfully. Buy a developer a beer!
