    -----------------------------------------------------------------------
          Psi4: An Open-Source Ab Initio Electronic Structure Package
                              Psi4 0.5 Driver

                          Git: Rev {master} dbe9080

    J. M. Turney, A. C. Simmonett, R. M. Parrish, E. G. Hohenstein,
    F. A. Evangelista, J. T. Fermann, B. J. Mintz, L. A. Burns, J. J. Wilke,
    M. L. Abrams, N. J. Russ, M. L. Leininger, C. L. Janssen, E. T. Seidl,
    W. D. Allen, H. F. Schaefer, R. A. King, E. F. Valeev, C. D. Sherrill,
    and T. D. Crawford, WIREs Comput. Mol. Sci. 2, 556-565 (2012)
    (doi: 10.1002/wcms.93)

                         Additional Contributions by
    A. E. DePrince, M. Saitow, U. Bozkaya, A. Yu. Sokolov
    -----------------------------------------------------------------------


    Psi4 started on: Mon Mar 14 15:22:13 2016

    Process ID:  11583
    PSI4DATADIR: /home/dsmith/Gits/dgas_psi/share
    Memory level set to 256.000 MB

  ==> Input File <==

--------------------------------------------------------------------------
#! DCFT calculation for the triplet O2 using DC-06, DC-12 and CEPA0 functionals. 
#! Only two-step algorithm is tested.

memory 250 mb

refscf      = -149.65367728294785   #TEST
refmp2      = -150.17316961260252   #TEST

# DC-06
refdcftscf  = -149.08581589084218   #TEST
refdcft     = -150.190274002583237  #TEST

# DC-12                             #TEST
refdcftxscf = -149.101073338708972  #TEST
refdcftx    = -150.185859013565732  #TEST

#CEPA0
refdcftcepa = -150.188254445548893  #TEST

molecule OO {
0 3
O
O 1 R

units bohr
R = 2.000
}

set globals {
    r_convergence 12
    d_convergence 12
    ao_basis    none
    algorithm   twostep
    basis       cc-pcvtz
    reference   uhf 
}

set dcft_functional dc-06
energy('dcft')

compare_values(refscf, get_variable("SCF TOTAL ENERGY"), 10, "SCF Energy");                                       #TEST
compare_values(refmp2, get_variable("MP2 TOTAL ENERGY"), 10, "MP2 Energy");                                             #TEST
compare_values(refdcftscf, get_variable("DCFT SCF ENERGY"), 10, "DC-06 SCF Energy (two-step, ao_basis=none)");     #TEST
compare_values(refdcft, get_variable("DCFT TOTAL ENERGY"), 10, "DC-06 Energy (two-step, ao_basis=none)");                #TEST

set dcft_functional dc-12
energy('dcft')

compare_values(refdcftxscf, get_variable("DCFT SCF ENERGY"), 10, "DC-12 SCF Energy (two-step, ao_basis=none)");     #TEST
compare_values(refdcftx, get_variable("DCFT TOTAL ENERGY"), 10, "DC-12 Energy (two-step, ao_basis=none)");                #TEST

set dcft_functional cepa0
energy('dcft')

compare_values(refdcftcepa, get_variable("DCFT TOTAL ENERGY"), 10, "CEPA0 Energy (two-step, ao_basis=none)");                #TEST
--------------------------------------------------------------------------

  Memory set to 250.000 MiB by Python script.

*** tstart() called on ds1.sherrill.chemistry.gatech.edu
*** at Mon Mar 14 15:22:14 2016


         ---------------------------------------------------------
                                   SCF
            by Justin Turney, Rob Parrish, and Andy Simmonett
                              UHF Reference
                        1 Threads,    250 MiB Core
         ---------------------------------------------------------

  ==> Geometry <==

    Molecular point group: d2h
    Full point group: D_inf_h

    Geometry (in Bohr), charge = 0, multiplicity = 3:

       Center              X                  Y                   Z               Mass       
    ------------   -----------------  -----------------  -----------------  -----------------
           O          0.000000000000     0.000000000000    -1.000000000000    15.994914619560
           O          0.000000000000     0.000000000000     1.000000000000    15.994914619560

  Running in d2h symmetry.

  Rotational constants: A = ************  B =      1.88184  C =      1.88184 [cm^-1]
  Rotational constants: A = ************  B =  56416.09372  C =  56416.09372 [MHz]
  Nuclear repulsion =   32.000000000000000

  Charge       = 0
  Multiplicity = 3
  Electrons    = 16
  Nalpha       = 9
  Nbeta        = 7

  ==> Algorithm <==

  SCF Algorithm Type is PK.
  DIIS enabled.
  MOM disabled.
  Fractional occupation disabled.
  Guess Type is CORE.
  Energy threshold   = 1.00e-08
  Density threshold  = 1.00e-12
  Integral threshold = 0.00e+00

  ==> Primary Basis <==

  Basis Set: CC-PCVTZ
    Number of shells: 30
    Number of basis function: 86
    Number of Cartesian functions: 98
    Spherical Harmonics?: true
    Max angular momentum: 3

  ==> Pre-Iterations <==

   -------------------------------------------------------
    Irrep   Nso     Nmo     Nalpha   Nbeta   Ndocc  Nsocc
   -------------------------------------------------------
     Ag        19      19       0       0       0       0
     B1g        4       4       0       0       0       0
     B2g       10      10       0       0       0       0
     B3g       10      10       0       0       0       0
     Au         4       4       0       0       0       0
     B1u       19      19       0       0       0       0
     B2u       10      10       0       0       0       0
     B3u       10      10       0       0       0       0
   -------------------------------------------------------
    Total      86      86       9       7       7       2
   -------------------------------------------------------

  ==> Integral Setup <==

	Batch   1 pq = [       0,     620] index = [             0,192510]
  ==> DiskJK: Disk-Based J/K Matrices <==

    J tasked:                  Yes
    K tasked:                  Yes
    wK tasked:                  No
    Memory (MB):               178
    Schwarz Cutoff:          1E-12

  Minimum eigenvalue in the overlap matrix is 1.6797415199E-03.
  Using Symmetric Orthogonalization.
  SCF Guess: Core (One-Electron) Hamiltonian.

  ==> Iterations <==

                        Total Energy        Delta E     RMS |[F,P]|

    Occupation by irrep:
             Ag   B1g   B2g   B3g    Au   B1u   B2u   B3u 
    DOCC [     3,    0,    0,    0,    0,    2,    1,    1 ]
    SOCC [     0,    0,    1,    1,    0,    0,    0,    0 ]

   @UHF iter   1:  -129.30094738986725   -1.29301e+02   3.22153e-01 
   @UHF iter   2:  -139.10256307548201   -9.80162e+00   1.36257e-01 DIIS
   @UHF iter   3:  -148.87964672378911   -9.77708e+00   4.97577e-02 DIIS
   @UHF iter   4:  -149.63315736777710   -7.53511e-01   6.98237e-03 DIIS
   @UHF iter   5:  -149.65331133654081   -2.01540e-02   7.48648e-04 DIIS
   @UHF iter   6:  -149.65365051649687   -3.39180e-04   1.78281e-04 DIIS
   @UHF iter   7:  -149.65367639665371   -2.58802e-05   3.43598e-05 DIIS
   @UHF iter   8:  -149.65367726640602   -8.69752e-07   4.43249e-06 DIIS
   @UHF iter   9:  -149.65367728282735   -1.64213e-08   4.16868e-07 DIIS
   @UHF iter  10:  -149.65367728294240   -1.15051e-10   7.26841e-08 DIIS
   @UHF iter  11:  -149.65367728294711   -4.71800e-12   1.71238e-08 DIIS
   @UHF iter  12:  -149.65367728294731   -1.98952e-13   4.36878e-09 DIIS
   @UHF iter  13:  -149.65367728294720    1.13687e-13   9.01183e-10 DIIS
   @UHF iter  14:  -149.65367728294729   -8.52651e-14   1.14052e-10 DIIS
   @UHF iter  15:  -149.65367728294737   -8.52651e-14   1.65939e-11 DIIS
   @UHF iter  16:  -149.65367728294731    5.68434e-14   2.46513e-12 DIIS
   @UHF iter  17:  -149.65367728294740   -8.52651e-14   4.18176e-13 DIIS

  ==> Post-Iterations <==

   @Spin Contamination Metric:   2.987006734E-02
   @S^2 Expected:                2.000000000E+00
   @S^2 Observed:                2.029870067E+00
   @S   Expected:                1.000000000E+00
   @S   Observed:                1.000000000E+00

    Orbital Energies (a.u.)
    -----------------------

    Alpha Occupied:                                                       

       1Ag   -20.720693     1B1u  -20.719199     2Ag    -1.857588  
       2B1u   -1.147190     1B2u   -0.903173     1B3u   -0.903173  
       3Ag    -0.812143     1B3g   -0.480847     1B2g   -0.480847  

    Alpha Virtual:                                                        

       3B1u    0.456848     2B2u    0.661966     2B3u    0.661966  
       4Ag     0.700746     5Ag     0.736877     2B3g    0.798297  
       2B2g    0.798297     4B1u    0.934468     5B1u    1.294683  
       1B1g    1.410878     6Ag     1.410878     3B3u    1.642980  
       3B2u    1.642980     1Au     1.926335     6B1u    1.926335  
       7Ag     2.350885     7B1u    2.473959     3B3g    2.533963  
       3B2g    2.533963     4B2u    3.758443     4B3u    3.758443  
       8Ag     4.054153     4B3g    4.127305     4B2g    4.127305  
       9Ag     4.629772     8B1u    4.757626    10Ag     4.934414  
       2B1g    4.934414     5B2u    5.147096     5B3u    5.147096  
       6B3u    5.207130     6B2u    5.207130     5B3g    5.663376  
       5B2g    5.663376    11Ag     5.915955     9B1u    6.143614  
      10B1u    6.196397    12Ag     6.489150     3B1g    6.489150  
       2Au     6.490437    11B1u    6.490437     3Au     6.745606  
      12B1u    6.745606     6B3g    6.758688     6B2g    6.758688  
       7B2u    7.104799     7B3u    7.104799    13Ag     8.255031  
       7B3g    8.280988     7B2g    8.280988    13B1u   10.563284  
       8B2u   25.804117     8B3u   25.804117     8B3g   26.111344  
       8B2g   26.111344    14B1u   26.693303    14Ag    26.844820  
      15Ag    28.480459    15B1u   29.264886     4B1g   43.653236  
      16Ag    43.653236    17Ag    43.667021     9B3u   43.696920  
       9B2u   43.696920     4Au    43.713001    16B1u   43.713001  
       9B3g   43.891605     9B2g   43.891605    17B1u   45.126952  
      10B2u  138.046258    10B3u  138.046258    10B2g  138.273431  
      10B3g  138.273431    18B1u  138.923484    18Ag   138.997772  
      19Ag   148.312478    19B1u  149.957793  

    Beta Occupied:                                                        

       1Ag   -20.668520     1B1u  -20.666223     2Ag    -1.749125  
       2B1u   -0.941842     3Ag    -0.735793     1B3u   -0.658607  
       1B2u   -0.658607  

    Beta Virtual:                                                         

       1B2g    0.179248     1B3g    0.179248     3B1u    0.486962  
       4Ag     0.700525     2B3u    0.714166     2B2u    0.714166  
       5Ag     0.761262     2B2g    0.898322     2B3g    0.898322  
       4B1u    1.004004     5B1u    1.336539     6Ag     1.460834  
       1B1g    1.460834     3B3u    1.712865     3B2u    1.712865  
       6B1u    2.025454     1Au     2.025454     7Ag     2.385724  
       7B1u    2.496188     3B2g    2.586066     3B3g    2.586066  
       4B3u    3.870683     4B2u    3.870683     8Ag     4.079587  
       4B2g    4.229786     4B3g    4.229786     9Ag     4.673500  
       8B1u    4.803585    10Ag     4.969376     2B1g    4.969376  
       5B3u    5.184033     5B2u    5.184033     6B3u    5.266404  
       6B2u    5.266404     5B2g    5.733192     5B3g    5.733192  
      11Ag     5.986382     9B1u    6.177330    10B1u    6.235652  
       2Au     6.563732    11B1u    6.563732     3B1g    6.616303  
      12Ag     6.616303     6B2g    6.823096     6B3g    6.823096  
       3Au     6.846637    12B1u    6.846637     7B3u    7.163785  
       7B2u    7.163785    13Ag     8.277347     7B2g    8.320332  
       7B3g    8.320332    13B1u   10.609186     8B3u   25.859160  
       8B2u   25.859160     8B2g   26.165829     8B3g   26.165829  
      14B1u   26.712254    14Ag    26.867372    15Ag    28.510788  
      15B1u   29.293521    16Ag    43.689739     4B1g   43.705286  
      17Ag    43.705286     9B3u   43.726805     9B2u   43.726805  
       4Au    43.764904    16B1u   43.764904     9B2g   43.921398  
       9B3g   43.921398    17B1u   45.149393    10B2u  138.059683  
      10B3u  138.059683    10B2g  138.286808    10B3g  138.286808  
      18B1u  138.928984    18Ag   139.003355    19Ag   148.323082  
      19B1u  149.967937  

    Final Occupation by Irrep:
             Ag   B1g   B2g   B3g    Au   B1u   B2u   B3u 
    DOCC [     3,    0,    0,    0,    0,    2,    1,    1 ]
    SOCC [     0,    0,    1,    1,    0,    0,    0,    0 ]

  Energy converged.

  @UHF Final Energy:  -149.65367728294740

   => Energetics <=

    Nuclear Repulsion Energy =             32.0000000000000000
    One-Electron Energy =                -269.2037835000345467
    Two-Electron Energy =                  87.5501062170871478
    DFT Exchange-Correlation Energy =       0.0000000000000000
    Empirical Dispersion Energy =           0.0000000000000000
    PCM Polarization Energy =               0.0000000000000000
    EFP Energy =                            0.0000000000000000
    Total Energy =                       -149.6536772829473989

    Alert: EFP and PCM quantities not currently incorporated into SCF psivars.

Properties will be evaluated at   0.000000,   0.000000,   0.000000 Bohr
  ==> Properties <==


Properties computed using the SCF density matrix

  Nuclear Dipole Moment: (a.u.)
     X:     0.0000      Y:     0.0000      Z:     0.0000

  Electronic Dipole Moment: (a.u.)
     X:     0.0000      Y:     0.0000      Z:     0.0000

  Dipole Moment: (a.u.)
     X:     0.0000      Y:     0.0000      Z:     0.0000     Total:     0.0000

  Dipole Moment: (Debye)
     X:     0.0000      Y:     0.0000      Z:     0.0000     Total:     0.0000


  Saving occupied orbitals to File 180.

  UHF NO Occupations:
  HONO-2 :    1B2u 1.9945325
  HONO-1 :    1B2g 1.0000000
  HONO-0 :    1B3g 1.0000000
  LUNO+0 :    2B2u 0.0054675
  LUNO+1 :    2B3u 0.0054675
  LUNO+2 :    3B1u 0.0029640
  LUNO+3 :    4 Ag 0.0010074


*** tstop() called on ds1.sherrill.chemistry.gatech.edu at Mon Mar 14 15:22:14 2016
Module time:
	user time   =       0.40 seconds =       0.01 minutes
	system time =       0.04 seconds =       0.00 minutes
	total time  =          0 seconds =       0.00 minutes
Total time:
	user time   =       0.40 seconds =       0.01 minutes
	system time =       0.04 seconds =       0.00 minutes
	total time  =          0 seconds =       0.00 minutes

*** tstart() called on ds1.sherrill.chemistry.gatech.edu
*** at Mon Mar 14 15:22:14 2016



	***********************************************************************************
	*                        Density Cumulant Functional Theory                       *
	*                by Alexander Sokolov, Andy Simmonett, and Xiao Wang              *
	***********************************************************************************


	Transforming two-electron integrals (transformation type: unrestricted)...
	Computing MP2 amplitude guess...

	*Total Hartree-Fock energy        = -149.653677282947399
	 Alpha - Alpha MP2 energy         =   -0.068673352579460
	 Alpha - Beta  MP2 energy         =   -0.389193273762697
	 Beta  - Beta  MP2 energy         =   -0.061625703312491
	 Total MP2 correlation energy     =   -0.519492329654649
	*Total MP2 energy                 = -150.173169612602038

	DCFT Functional:    		 DC-06
	DCFT Type:          		 CONV
	Algorithm:          		 TWOSTEP
	AO-Basis Integrals: 		 NONE

	*=================================================================================*
	* Cycle  RMS [F, Kappa]   RMS Lambda Error   delta E        Total Energy     DIIS *
	*---------------------------------------------------------------------------------*
	                          *** Macro Iteration 1 ***
	Cumulant Iterations
	* 1        1.482e-13         9.540e-04     -5.502e-01   -150.723358775500259  S   *
	* 2        1.482e-13         1.709e-04     -2.487e-02   -150.748225019444504  S   *
	* 3        1.482e-13         6.367e-05     -7.382e-03   -150.755606845025966  S/E *
	* 4        1.482e-13         1.614e-05     -1.430e-03   -150.757036526890317  S/E *
	* 5        1.482e-13         4.148e-06     -2.610e-04   -150.757297507036668  S/E *
	* 6        1.482e-13         9.711e-07     -1.374e-05   -150.757311248733600  S/E *
	* 7        1.482e-13         2.227e-07     -9.394e-07   -150.757312188104521  S/E *
	* 8        1.482e-13         5.826e-08      3.122e-08   -150.757312156880630  S/E *
	* 9        1.482e-13         1.660e-08      8.939e-08   -150.757312067490176  S/E *
	* 10       1.482e-13         5.867e-09     -2.608e-08   -150.757312093568345  S/E *
	* 11       1.482e-13         1.620e-09     -1.347e-10   -150.757312093703007  S/E *
	* 12       1.482e-13         4.960e-10     -2.656e-09   -150.757312096359072  S/E *
	* 13       1.482e-13         1.620e-10     -6.931e-09   -150.757312103290133  S/E *
	* 14       1.482e-13         5.936e-11     -3.719e-09   -150.757312107008659  S/E *
	* 15       1.482e-13         2.143e-11     -1.283e-09   -150.757312108291870  S/E *
	* 16       1.482e-13         6.780e-12     -7.597e-11   -150.757312108367842  S/E *
	* 17       1.482e-13         2.041e-12      1.265e-11   -150.757312108355194  S/E *
	* 18       1.482e-13         6.394e-13      1.339e-11   -150.757312108341807  S/E *
	Orbital Updates
	* 1        2.653e-04         6.394e-13      5.675e-01   -150.189831096322422  S   *
	* 2        8.405e-05         6.394e-13     -3.183e-05   -150.189862929266553  S   *
	* 3        2.928e-05         6.394e-13     -3.525e-06   -150.189866454749904  S   *
	* 4        1.194e-05         6.394e-13     -5.361e-07   -150.189866990873668  S/E *
	* 5        2.258e-06         6.394e-13     -1.212e-07   -150.189867112023990  S/E *
	* 6        3.912e-07         6.394e-13     -5.906e-09   -150.189867117930305  S/E *
	* 7        7.459e-08         6.394e-13     -1.448e-10   -150.189867118075114  S/E *
	* 8        2.097e-08         6.394e-13     -5.002e-12   -150.189867118080116  S/E *
	* 9        2.108e-09         6.394e-13     -3.695e-13   -150.189867118080485  S/E *
	* 10       3.538e-10         6.394e-13      2.842e-14   -150.189867118080457  S/E *
	* 11       7.793e-11         6.394e-13      5.684e-14   -150.189867118080400  S/E *
	* 12       2.447e-11         6.394e-13      0.000e+00   -150.189867118080400  S/E *
	* 13       5.838e-12         6.394e-13     -2.842e-14   -150.189867118080429  S/E *
	* 14       1.542e-12         6.394e-13      0.000e+00   -150.189867118080429  S/E *
	* 15       4.088e-13         6.394e-13      1.137e-13   -150.189867118080315  S/E *
	                          *** Macro Iteration 2 ***
	Cumulant Iterations
	* 1        4.088e-13         4.903e-05     -7.875e-04   -150.190654632341648  S   *
	* 2        4.088e-13         6.388e-06     -2.040e-05   -150.190675037231131  S   *
	* 3        4.088e-13         1.573e-06     -1.533e-05   -150.190690365393010  S/E *
	* 4        4.088e-13         2.259e-07     -7.601e-06   -150.190697966199821  S/E *
	* 5        4.088e-13         5.721e-08     -3.127e-06   -150.190701093503435  S/E *
	* 6        4.088e-13         1.582e-08     -1.030e-06   -150.190702123750128  S/E *
	* 7        4.088e-13         4.177e-09     -2.114e-07   -150.190702335130624  S/E *
	* 8        4.088e-13         1.203e-09     -2.361e-08   -150.190702358744460  S/E *
	* 9        4.088e-13         3.521e-10     -4.017e-09   -150.190702362761044  S/E *
	* 10       4.088e-13         9.063e-11     -1.588e-09   -150.190702364348681  S/E *
	* 11       4.088e-13         2.579e-11     -8.624e-10   -150.190702365211081  S/E *
	* 12       4.088e-13         7.728e-12     -3.512e-10   -150.190702365562316  S/E *
	* 13       4.088e-13         2.344e-12     -1.239e-10   -150.190702365686178  S/E *
	* 14       4.088e-13         7.713e-13     -4.212e-11   -150.190702365728299  S/E *
	Orbital Updates
	* 1        2.169e-06         7.713e-13      4.223e-04   -150.190280020141074  S   *
	* 2        8.464e-07         7.713e-13     -3.029e-09   -150.190280023170487  S   *
	* 3        3.632e-07         7.713e-13     -5.153e-10   -150.190280023685801  S   *
	* 4        1.640e-07         7.713e-13     -1.026e-10   -150.190280023788375  S/E *
	* 5        9.382e-09         7.713e-13     -2.908e-11   -150.190280023817451  S/E *
	* 6        2.222e-09         7.713e-13     -8.527e-14   -150.190280023817536  S/E *
	* 7        3.658e-10         7.713e-13      2.842e-14   -150.190280023817508  S/E *
	* 8        3.546e-11         7.713e-13     -1.705e-13   -150.190280023817678  S/E *
	* 9        7.708e-12         7.713e-13      3.126e-13   -150.190280023817365  S/E *
	* 10       1.690e-12         7.713e-13     -2.274e-13   -150.190280023817593  S/E *
	* 11       3.547e-13         7.713e-13      2.274e-13   -150.190280023817365  S/E *
	                          *** Macro Iteration 3 ***
	Cumulant Iterations
	* 1        3.547e-13         2.232e-07      1.163e-05   -150.190268395644608  S   *
	* 2        3.547e-13         2.510e-08     -1.349e-08   -150.190268409135001  S   *
	* 3        3.547e-13         6.211e-09      3.957e-07   -150.190268013447479  S/E *
	* 4        3.547e-13         1.549e-09      7.741e-08   -150.190267936037571  S/E *
	* 5        3.547e-13         5.072e-10      3.935e-08   -150.190267896691068  S/E *
	* 6        3.547e-13         1.306e-10      6.395e-09   -150.190267890296525  S/E *
	* 7        3.547e-13         3.308e-11      9.029e-10   -150.190267889393596  S/E *
	* 8        3.547e-13         8.221e-12     -2.785e-12   -150.190267889396381  S/E *
	* 9        3.547e-13         2.298e-12     -4.590e-11   -150.190267889442282  S/E *
	* 10       3.547e-13         6.773e-13     -9.607e-12   -150.190267889451889  S/E *
	Orbital Updates
	* 1        2.818e-08         6.773e-13     -6.026e-06   -150.190273915106786  S   *
	* 2        1.297e-08         6.773e-13     -7.390e-13   -150.190273915107525  S   *
	* 3        6.149e-09         6.773e-13     -1.990e-13   -150.190273915107724  S   *
	* 4        2.955e-09         6.773e-13      0.000e+00   -150.190273915107724  S/E *
	* 5        1.656e-10         6.773e-13     -2.842e-14   -150.190273915107753  S/E *
	* 6        3.488e-11         6.773e-13     -2.842e-14   -150.190273915107781  S/E *
	* 7        8.624e-12         6.773e-13      0.000e+00   -150.190273915107781  S/E *
	* 8        1.145e-12         6.773e-13      5.684e-14   -150.190273915107724  S/E *
	* 9        1.251e-13         6.773e-13     -8.527e-14   -150.190273915107809  S/E *
	                          *** Macro Iteration 4 ***
	Cumulant Iterations
	* 1        1.251e-13         3.672e-09     -1.683e-07   -150.190274083415318  S   *
	* 2        1.251e-13         4.576e-10      3.465e-10   -150.190274083068829  S   *
	* 3        1.251e-13         1.118e-10     -6.183e-09   -150.190274089251830  S/E *
	* 4        1.251e-13         2.524e-11     -1.062e-09   -150.190274090313693  S/E *
	* 5        1.251e-13         8.179e-12     -6.691e-10   -150.190274090982797  S/E *
	* 6        1.251e-13         2.192e-12     -1.205e-10   -150.190274091103248  S/E *
	* 7        1.251e-13         5.732e-13     -2.279e-11   -150.190274091126042  S/E *
	Orbital Updates
	* 1        5.016e-10         5.732e-13      8.704e-08   -150.190274004086831  S   *
	* 2        2.403e-10         5.732e-13      1.990e-13   -150.190274004086632  S   *
	* 3        1.174e-10         5.732e-13      5.684e-14   -150.190274004086575  S   *
	* 4        5.759e-11         5.732e-13     -2.842e-14   -150.190274004086604  S/E *
	* 5        3.166e-12         5.732e-13      1.137e-13   -150.190274004086490  S/E *
	* 6        9.619e-13         5.732e-13      0.000e+00   -150.190274004086490  S/E *
	* 7        1.986e-13         5.732e-13      2.842e-14   -150.190274004086461  S/E *
	                          *** Macro Iteration 5 ***
	Cumulant Iterations
	* 1        1.986e-13         6.808e-11      2.867e-09   -150.190274001219478  S   *
	* 2        1.986e-13         8.708e-12      2.785e-12   -150.190274001216693  S   *
	* 3        1.986e-13         2.154e-12      1.071e-10   -150.190274001109572  S/E *
	* 4        1.986e-13         4.415e-13      1.685e-11   -150.190274001092718  S/E *
	Orbital Updates
	* 1        9.978e-12         4.415e-13     -1.467e-09   -150.190274002560074  S   *
	* 2        4.780e-12         4.415e-13     -5.684e-14   -150.190274002560130  S   *
	* 3        2.351e-12         4.415e-13      1.421e-13   -150.190274002559988  S   *
	* 4        1.164e-12         4.415e-13      2.842e-14   -150.190274002559960  S/E *
	* 5        1.007e-13         4.415e-13     -1.137e-13   -150.190274002560074  S/E *
	                          *** Macro Iteration 6 ***
	Cumulant Iterations
	* 1        1.007e-13         1.361e-12     -4.385e-11   -150.190274002603928  S   *
	* 2        1.007e-13         1.896e-13      1.705e-12   -150.190274002602223  S   *
	Orbital Updates
	* 1        2.111e-13         1.896e-13      1.887e-11   -150.190274002583351  S   *
	*=================================================================================*

	*   DC-06 SCF Energy                                 =    -149.085815890839797
	*   DC-06 Lambda Energy                              =      -1.104458111743564
	*   DC-06 Total Energy                               =    -150.190274002583351

	Orbital occupations:
		Alpha occupied orbitals
		   1Ag       0.9995     1B1u      0.9995     2Ag       0.9939     2B1u      0.9907  
		   1B2u      0.9882     1B3u      0.9882     1B3g      0.9840     1B2g      0.9840  
		   3Ag       0.9809  

		Beta occupied orbitals
		   1Ag       0.9995     1B1u      0.9994     2Ag       0.9906     2B1u      0.9833  
		   3Ag       0.9813     1B3u      0.9688     1B2u      0.9688  

		Alpha virtual orbitals
		   3B1u      0.0161     2B3u      0.0077     2B2u      0.0077     4Ag       0.0059  
		   2B3g      0.0059     2B2g      0.0059     4B1u      0.0044     5Ag       0.0040  
		   1B1g      0.0040     3B3u      0.0036     3B2u      0.0036     6Ag       0.0033  
		   5B1u      0.0032     1Au       0.0032     6B1u      0.0014     3B3g      0.0012  
		   3B2g      0.0012     7Ag       0.0010     4B3u      0.0005     4B2u      0.0005  
		   4B3g      0.0004     4B2g      0.0004     2B1g      0.0003     8Ag       0.0003  
		   9Ag       0.0003     7B1u      0.0003     5B3u      0.0003     5B2u      0.0003  
		   6B3u      0.0002     6B2u      0.0002    10Ag       0.0002     5B2g      0.0002  
		   5B3g      0.0002     8B1u      0.0002    11Ag       0.0002     2Au       0.0002  
		   9B1u      0.0002     3B1g      0.0002    12Ag       0.0002     7B3u      0.0002  
		   7B2u      0.0002    10B1u      0.0001     6B2g      0.0001     6B3g      0.0001  
		  11B1u      0.0001     3Au       0.0001    12B1u      0.0001     8B3u      0.0001  
		   8B2u      0.0001     7B2g      0.0001     7B3g      0.0001    13Ag       0.0001  
		  13B1u      0.0001    14Ag       0.0001     8B3g      0.0000     8B2g      0.0000  
		  15Ag       0.0000    14B1u      0.0000     4B1g      0.0000    16Ag       0.0000  
		  15B1u      0.0000     4Au       0.0000    16B1u      0.0000     9B2u      0.0000  
		   9B3u      0.0000     9B3g      0.0000     9B2g      0.0000    17Ag       0.0000  
		  17B1u      0.0000    10B3u      0.0000    10B2u      0.0000    10B2g      0.0000  
		  10B3g      0.0000    18Ag       0.0000    19Ag       0.0000    18B1u      0.0000  
		  19B1u      0.0000  

		Beta virtual orbitals
		   1B3g      0.0251     1B2g      0.0251     3B1u      0.0125     4Ag       0.0059  
		   4B1u      0.0044     2B3u      0.0042     2B2u      0.0042     5Ag       0.0035  
		   6Ag       0.0029     1B1g      0.0029     3B3u      0.0025     3B2u      0.0025  
		   2B2g      0.0012     2B3g      0.0012     5B1u      0.0012     6B1u      0.0010  
		   1Au       0.0010     7Ag       0.0008     3B2g      0.0005     3B3g      0.0005  
		   8Ag       0.0003     4B3u      0.0003     4B2u      0.0003     9Ag       0.0002  
		   7B1u      0.0002     5B3u      0.0002     5B2u      0.0002    10Ag       0.0002  
		   2B1g      0.0002    11Ag       0.0002     6B3u      0.0002     6B2u      0.0002  
		   8B1u      0.0002     4B2g      0.0002     4B3g      0.0002     3B1g      0.0001  
		  12Ag       0.0001     9B1u      0.0001     5B2g      0.0001     5B3g      0.0001  
		  10B1u      0.0001     2Au       0.0001     7B2u      0.0001     7B3u      0.0001  
		   6B2g      0.0001     6B3g      0.0001    11B1u      0.0001    13Ag       0.0001  
		  12B1u      0.0001     3Au       0.0001     8B3u      0.0001     8B2u      0.0001  
		  13B1u      0.0001    14Ag       0.0001     7B2g      0.0000     7B3g      0.0000  
		  15Ag       0.0000     8B3g      0.0000     8B2g      0.0000    14B1u      0.0000  
		  15B1u      0.0000     9B3u      0.0000     9B2u      0.0000    16Ag       0.0000  
		   9B3g      0.0000     9B2g      0.0000     4B1g      0.0000    17Ag       0.0000  
		   4Au       0.0000    16B1u      0.0000    17B1u      0.0000    10B3u      0.0000  
		  10B2u      0.0000    18Ag       0.0000    10B2g      0.0000    10B3g      0.0000  
		  19Ag       0.0000    18B1u      0.0000    19B1u      0.0000  


*** tstop() called on ds1.sherrill.chemistry.gatech.edu at Mon Mar 14 15:22:31 2016
Module time:
	user time   =      11.12 seconds =       0.19 minutes
	system time =       4.62 seconds =       0.08 minutes
	total time  =         17 seconds =       0.28 minutes
Total time:
	user time   =      11.52 seconds =       0.19 minutes
	system time =       4.66 seconds =       0.08 minutes
	total time  =         17 seconds =       0.28 minutes
	SCF Energy........................................................PASSED
	MP2 Energy........................................................PASSED
	DC-06 SCF Energy (two-step, ao_basis=none)........................PASSED
	DC-06 Energy (two-step, ao_basis=none)............................PASSED

*** tstart() called on ds1.sherrill.chemistry.gatech.edu
*** at Mon Mar 14 15:22:31 2016


         ---------------------------------------------------------
                                   SCF
            by Justin Turney, Rob Parrish, and Andy Simmonett
                              UHF Reference
                        1 Threads,    250 MiB Core
         ---------------------------------------------------------

  ==> Geometry <==

    Molecular point group: d2h
    Full point group: D_inf_h

    Geometry (in Bohr), charge = 0, multiplicity = 3:

       Center              X                  Y                   Z               Mass       
    ------------   -----------------  -----------------  -----------------  -----------------
           O          0.000000000000     0.000000000000    -1.000000000000    15.994914619560
           O          0.000000000000     0.000000000000     1.000000000000    15.994914619560

  Running in d2h symmetry.

  Rotational constants: A = ************  B =      1.88184  C =      1.88184 [cm^-1]
  Rotational constants: A = ************  B =  56416.09372  C =  56416.09372 [MHz]
  Nuclear repulsion =   32.000000000000000

  Charge       = 0
  Multiplicity = 3
  Electrons    = 16
  Nalpha       = 9
  Nbeta        = 7

  ==> Algorithm <==

  SCF Algorithm Type is PK.
  DIIS enabled.
  MOM disabled.
  Fractional occupation disabled.
  Guess Type is CORE.
  Energy threshold   = 1.00e-08
  Density threshold  = 1.00e-12
  Integral threshold = 0.00e+00

  ==> Primary Basis <==

  Basis Set: CC-PCVTZ
    Number of shells: 30
    Number of basis function: 86
    Number of Cartesian functions: 98
    Spherical Harmonics?: true
    Max angular momentum: 3

  ==> Pre-Iterations <==

   -------------------------------------------------------
    Irrep   Nso     Nmo     Nalpha   Nbeta   Ndocc  Nsocc
   -------------------------------------------------------
     Ag        19      19       0       0       0       0
     B1g        4       4       0       0       0       0
     B2g       10      10       0       0       0       0
     B3g       10      10       0       0       0       0
     Au         4       4       0       0       0       0
     B1u       19      19       0       0       0       0
     B2u       10      10       0       0       0       0
     B3u       10      10       0       0       0       0
   -------------------------------------------------------
    Total      86      86       9       7       7       2
   -------------------------------------------------------

  ==> Integral Setup <==

	Batch   1 pq = [       0,     620] index = [             0,192510]
  ==> DiskJK: Disk-Based J/K Matrices <==

    J tasked:                  Yes
    K tasked:                  Yes
    wK tasked:                  No
    Memory (MB):               178
    Schwarz Cutoff:          1E-12

  Minimum eigenvalue in the overlap matrix is 1.6797415199E-03.
  Using Symmetric Orthogonalization.
  SCF Guess: Core (One-Electron) Hamiltonian.

  ==> Iterations <==

                        Total Energy        Delta E     RMS |[F,P]|

    Occupation by irrep:
             Ag   B1g   B2g   B3g    Au   B1u   B2u   B3u 
    DOCC [     3,    0,    0,    0,    0,    2,    1,    1 ]
    SOCC [     0,    0,    1,    1,    0,    0,    0,    0 ]

   @UHF iter   1:  -129.30094738986725   -1.29301e+02   3.22153e-01 
   @UHF iter   2:  -139.10256307548218   -9.80162e+00   1.36257e-01 DIIS
   @UHF iter   3:  -148.87964672378922   -9.77708e+00   4.97577e-02 DIIS
   @UHF iter   4:  -149.63315736777716   -7.53511e-01   6.98237e-03 DIIS
   @UHF iter   5:  -149.65331133654081   -2.01540e-02   7.48648e-04 DIIS
   @UHF iter   6:  -149.65365051649692   -3.39180e-04   1.78281e-04 DIIS
   @UHF iter   7:  -149.65367639665376   -2.58802e-05   3.43598e-05 DIIS
   @UHF iter   8:  -149.65367726640599   -8.69752e-07   4.43249e-06 DIIS
   @UHF iter   9:  -149.65367728282752   -1.64215e-08   4.16868e-07 DIIS
   @UHF iter  10:  -149.65367728294240   -1.14881e-10   7.26841e-08 DIIS
   @UHF iter  11:  -149.65367728294689   -4.49063e-12   1.71238e-08 DIIS
   @UHF iter  12:  -149.65367728294726   -3.69482e-13   4.36878e-09 DIIS
   @UHF iter  13:  -149.65367728294729   -2.84217e-14   9.01182e-10 DIIS
   @UHF iter  14:  -149.65367728294746   -1.70530e-13   1.14052e-10 DIIS
   @UHF iter  15:  -149.65367728294729    1.70530e-13   1.65940e-11 DIIS
   @UHF iter  16:  -149.65367728294743   -1.42109e-13   2.46518e-12 DIIS
   @UHF iter  17:  -149.65367728294731    1.13687e-13   4.17620e-13 DIIS

  ==> Post-Iterations <==

   @Spin Contamination Metric:   2.987006734E-02
   @S^2 Expected:                2.000000000E+00
   @S^2 Observed:                2.029870067E+00
   @S   Expected:                1.000000000E+00
   @S   Observed:                1.000000000E+00

    Orbital Energies (a.u.)
    -----------------------

    Alpha Occupied:                                                       

       1Ag   -20.720693     1B1u  -20.719199     2Ag    -1.857588  
       2B1u   -1.147190     1B2u   -0.903173     1B3u   -0.903173  
       3Ag    -0.812143     1B3g   -0.480847     1B2g   -0.480847  

    Alpha Virtual:                                                        

       3B1u    0.456848     2B2u    0.661966     2B3u    0.661966  
       4Ag     0.700746     5Ag     0.736877     2B3g    0.798297  
       2B2g    0.798297     4B1u    0.934468     5B1u    1.294683  
       1B1g    1.410878     6Ag     1.410878     3B3u    1.642980  
       3B2u    1.642980     1Au     1.926335     6B1u    1.926335  
       7Ag     2.350885     7B1u    2.473959     3B3g    2.533963  
       3B2g    2.533963     4B2u    3.758443     4B3u    3.758443  
       8Ag     4.054153     4B3g    4.127305     4B2g    4.127305  
       9Ag     4.629772     8B1u    4.757626     2B1g    4.934414  
      10Ag     4.934414     5B2u    5.147096     5B3u    5.147096  
       6B3u    5.207130     6B2u    5.207130     5B2g    5.663376  
       5B3g    5.663376    11Ag     5.915955     9B1u    6.143614  
      10B1u    6.196397     3B1g    6.489150    12Ag     6.489150  
      11B1u    6.490437     2Au     6.490437     3Au     6.745606  
      12B1u    6.745606     6B3g    6.758688     6B2g    6.758688  
       7B2u    7.104799     7B3u    7.104799    13Ag     8.255031  
       7B3g    8.280988     7B2g    8.280988    13B1u   10.563284  
       8B2u   25.804117     8B3u   25.804117     8B3g   26.111344  
       8B2g   26.111344    14B1u   26.693303    14Ag    26.844820  
      15Ag    28.480459    15B1u   29.264886     4B1g   43.653236  
      16Ag    43.653236    17Ag    43.667021     9B3u   43.696920  
       9B2u   43.696920     4Au    43.713001    16B1u   43.713001  
       9B3g   43.891605     9B2g   43.891605    17B1u   45.126952  
      10B2u  138.046258    10B3u  138.046258    10B2g  138.273431  
      10B3g  138.273431    18B1u  138.923484    18Ag   138.997772  
      19Ag   148.312478    19B1u  149.957793  

    Beta Occupied:                                                        

       1Ag   -20.668520     1B1u  -20.666223     2Ag    -1.749125  
       2B1u   -0.941842     3Ag    -0.735793     1B3u   -0.658607  
       1B2u   -0.658607  

    Beta Virtual:                                                         

       1B2g    0.179248     1B3g    0.179248     3B1u    0.486962  
       4Ag     0.700525     2B3u    0.714166     2B2u    0.714166  
       5Ag     0.761262     2B2g    0.898322     2B3g    0.898322  
       4B1u    1.004004     5B1u    1.336539     1B1g    1.460834  
       6Ag     1.460834     3B3u    1.712865     3B2u    1.712865  
       1Au     2.025454     6B1u    2.025454     7Ag     2.385724  
       7B1u    2.496188     3B2g    2.586066     3B3g    2.586066  
       4B3u    3.870683     4B2u    3.870683     8Ag     4.079587  
       4B2g    4.229786     4B3g    4.229786     9Ag     4.673500  
       8B1u    4.803585     2B1g    4.969376    10Ag     4.969376  
       5B3u    5.184033     5B2u    5.184033     6B3u    5.266404  
       6B2u    5.266404     5B2g    5.733192     5B3g    5.733192  
      11Ag     5.986382     9B1u    6.177330    10B1u    6.235652  
      11B1u    6.563732     2Au     6.563732    12Ag     6.616303  
       3B1g    6.616303     6B2g    6.823096     6B3g    6.823096  
       3Au     6.846637    12B1u    6.846637     7B3u    7.163785  
       7B2u    7.163785    13Ag     8.277347     7B2g    8.320332  
       7B3g    8.320332    13B1u   10.609186     8B3u   25.859160  
       8B2u   25.859160     8B2g   26.165829     8B3g   26.165829  
      14B1u   26.712254    14Ag    26.867372    15Ag    28.510788  
      15B1u   29.293521    16Ag    43.689739     4B1g   43.705286  
      17Ag    43.705286     9B3u   43.726805     9B2u   43.726805  
       4Au    43.764904    16B1u   43.764904     9B2g   43.921398  
       9B3g   43.921398    17B1u   45.149393    10B2u  138.059683  
      10B3u  138.059683    10B2g  138.286808    10B3g  138.286808  
      18B1u  138.928984    18Ag   139.003355    19Ag   148.323082  
      19B1u  149.967937  

    Final Occupation by Irrep:
             Ag   B1g   B2g   B3g    Au   B1u   B2u   B3u 
    DOCC [     3,    0,    0,    0,    0,    2,    1,    1 ]
    SOCC [     0,    0,    1,    1,    0,    0,    0,    0 ]

  Energy converged.

  @UHF Final Energy:  -149.65367728294731

   => Energetics <=

    Nuclear Repulsion Energy =             32.0000000000000000
    One-Electron Energy =                -269.2037835000342625
    Two-Electron Energy =                  87.5501062170869346
    DFT Exchange-Correlation Energy =       0.0000000000000000
    Empirical Dispersion Energy =           0.0000000000000000
    PCM Polarization Energy =               0.0000000000000000
    EFP Energy =                            0.0000000000000000
    Total Energy =                       -149.6536772829473421

    Alert: EFP and PCM quantities not currently incorporated into SCF psivars.

Properties will be evaluated at   0.000000,   0.000000,   0.000000 Bohr
  ==> Properties <==


Properties computed using the SCF density matrix

  Nuclear Dipole Moment: (a.u.)
     X:     0.0000      Y:     0.0000      Z:     0.0000

  Electronic Dipole Moment: (a.u.)
     X:     0.0000      Y:     0.0000      Z:     0.0000

  Dipole Moment: (a.u.)
     X:     0.0000      Y:     0.0000      Z:     0.0000     Total:     0.0000

  Dipole Moment: (Debye)
     X:     0.0000      Y:     0.0000      Z:     0.0000     Total:     0.0000


  Saving occupied orbitals to File 180.

  UHF NO Occupations:
  HONO-2 :    1B2u 1.9945325
  HONO-1 :    1B2g 1.0000000
  HONO-0 :    1B3g 1.0000000
  LUNO+0 :    2B2u 0.0054675
  LUNO+1 :    2B3u 0.0054675
  LUNO+2 :    3B1u 0.0029640
  LUNO+3 :    4 Ag 0.0010074


*** tstop() called on ds1.sherrill.chemistry.gatech.edu at Mon Mar 14 15:22:31 2016
Module time:
	user time   =       0.42 seconds =       0.01 minutes
	system time =       0.03 seconds =       0.00 minutes
	total time  =          0 seconds =       0.00 minutes
Total time:
	user time   =      11.98 seconds =       0.20 minutes
	system time =       4.69 seconds =       0.08 minutes
	total time  =         17 seconds =       0.28 minutes

*** tstart() called on ds1.sherrill.chemistry.gatech.edu
*** at Mon Mar 14 15:22:31 2016



	***********************************************************************************
	*                        Density Cumulant Functional Theory                       *
	*                by Alexander Sokolov, Andy Simmonett, and Xiao Wang              *
	***********************************************************************************


	Transforming two-electron integrals (transformation type: unrestricted)...
	Computing MP2 amplitude guess...

	*Total Hartree-Fock energy        = -149.653677282947314
	 Alpha - Alpha MP2 energy         =   -0.067987065399404
	 Alpha - Beta  MP2 energy         =   -0.384514154438722
	 Beta  - Beta  MP2 energy         =   -0.060015283041880
	 Total MP2 correlation energy     =   -0.512516502880006
	*Total MP2 energy                 = -150.166193785827318

	DCFT Functional:    		 DC-12
	DCFT Type:          		 CONV
	Algorithm:          		 TWOSTEP
	AO-Basis Integrals: 		 NONE

	*=================================================================================*
	* Cycle  RMS [F, Kappa]   RMS Lambda Error   delta E        Total Energy     DIIS *
	*---------------------------------------------------------------------------------*
	                          *** Macro Iteration 1 ***
	Cumulant Iterations
	* 1        1.487e-13         9.455e-04     -5.418e-01   -150.708016120070596  S   *
	* 2        1.487e-13         1.635e-04     -2.358e-02   -150.731600831625371  S   *
	* 3        1.487e-13         5.624e-05     -4.916e-03   -150.736516644766880  S/E *
	* 4        1.487e-13         1.385e-05     -1.031e-03   -150.737547750340980  S/E *
	* 5        1.487e-13         3.244e-06     -1.857e-04   -150.737733454803418  S/E *
	* 6        1.487e-13         6.964e-07      1.160e-06   -150.737732294780614  S/E *
	* 7        1.487e-13         1.465e-07     -2.918e-06   -150.737735212322889  S/E *
	* 8        1.487e-13         3.325e-08      3.745e-08   -150.737735174877173  S/E *
	* 9        1.487e-13         6.813e-09     -6.156e-08   -150.737735236433537  S/E *
	* 10       1.487e-13         1.820e-09      1.325e-08   -150.737735223187201  S/E *
	* 11       1.487e-13         4.991e-10     -6.663e-09   -150.737735229850387  S/E *
	* 12       1.487e-13         1.476e-10     -5.077e-09   -150.737735234927015  S/E *
	* 13       1.487e-13         4.675e-11     -6.984e-10   -150.737735235625422  S/E *
	* 14       1.487e-13         1.423e-11     -8.111e-10   -150.737735236436549  S/E *
	* 15       1.487e-13         4.694e-12     -3.826e-11   -150.737735236474805  S/E *
	* 16       1.487e-13         1.294e-12     -7.628e-11   -150.737735236551089  S/E *
	* 17       1.487e-13         3.254e-13      3.382e-12   -150.737735236547707  S/E *
	Orbital Updates
	* 1        2.448e-04         3.254e-13      5.523e-01   -150.185447745431276  S   *
	* 2        7.651e-05         3.254e-13     -2.703e-05   -150.185474778960838  S   *
	* 3        2.678e-05         3.254e-13     -3.007e-06   -150.185477785888509  S   *
	* 4        1.097e-05         3.254e-13     -4.609e-07   -150.185478246741951  S/E *
	* 5        2.060e-06         3.254e-13     -1.053e-07   -150.185478352011074  S/E *
	* 6        3.644e-07         3.254e-13     -4.832e-09   -150.185478356842680  S/E *
	* 7        7.073e-08         3.254e-13     -1.259e-10   -150.185478356968531  S/E *
	* 8        1.956e-08         3.254e-13     -4.547e-12   -150.185478356973078  S/E *
	* 9        2.039e-09         3.254e-13     -8.527e-14   -150.185478356973164  S/E *
	* 10       3.323e-10         3.254e-13     -2.842e-14   -150.185478356973192  S/E *
	* 11       7.594e-11         3.254e-13     -2.274e-13   -150.185478356973420  S/E *
	* 12       2.454e-11         3.254e-13      1.137e-13   -150.185478356973306  S/E *
	* 13       6.157e-12         3.254e-13      0.000e+00   -150.185478356973306  S/E *
	* 14       1.691e-12         3.254e-13      1.421e-13   -150.185478356973164  S/E *
	* 15       4.311e-13         3.254e-13     -1.421e-13   -150.185478356973306  S/E *
	                          *** Macro Iteration 2 ***
	Cumulant Iterations
	* 1        4.311e-13         4.662e-05     -7.173e-04   -150.186195672219640  S   *
	* 2        4.311e-13         5.818e-06     -5.846e-06   -150.186201517756814  S   *
	* 3        4.311e-13         1.373e-06     -8.270e-06   -150.186209787503287  S/E *
	* 4        4.311e-13         1.922e-07     -3.930e-06   -150.186213717983151  S/E *
	* 5        4.311e-13         4.595e-08     -1.919e-06   -150.186215636532182  S/E *
	* 6        4.311e-13         1.200e-08     -4.734e-07   -150.186216109968399  S/E *
	* 7        4.311e-13         2.985e-09     -1.237e-07   -150.186216233710667  S/E *
	* 8        4.311e-13         7.995e-10      2.714e-09   -150.186216230996820  S/E *
	* 9        4.311e-13         2.218e-10     -2.141e-09   -150.186216233137515  S/E *
	* 10       4.311e-13         5.465e-11      2.736e-10   -150.186216232863927  S/E *
	* 11       4.311e-13         1.443e-11     -3.390e-10   -150.186216233202941  S/E *
	* 12       4.311e-13         3.860e-12     -1.124e-10   -150.186216233315321  S/E *
	* 13       4.311e-13         9.802e-13     -3.686e-11   -150.186216233352184  S/E *
	Orbital Updates
	* 1        1.961e-06         9.802e-13      3.519e-04   -150.185864337324745  S   *
	* 2        7.723e-07         9.802e-13     -2.528e-09   -150.185864339852884  S   *
	* 3        3.320e-07         9.802e-13     -4.322e-10   -150.185864340285121  S   *
	* 4        1.503e-07         9.802e-13     -8.657e-11   -150.185864340371694  S/E *
	* 5        8.257e-09         9.802e-13     -2.439e-11   -150.185864340396080  S/E *
	* 6        1.997e-09         9.802e-13      0.000e+00   -150.185864340396080  S/E *
	* 7        2.930e-10         9.802e-13     -1.990e-13   -150.185864340396279  S/E *
	* 8        3.061e-11         9.802e-13      2.842e-14   -150.185864340396250  S/E *
	* 9        6.719e-12         9.802e-13      5.684e-14   -150.185864340396193  S/E *
	* 10       1.301e-12         9.802e-13     -1.137e-13   -150.185864340396307  S/E *
	* 11       2.977e-13         9.802e-13      5.684e-14   -150.185864340396250  S/E *
	                          *** Macro Iteration 3 ***
	Cumulant Iterations
	* 1        2.977e-13         2.039e-07      1.038e-05   -150.185853961768771  S   *
	* 2        2.977e-13         2.232e-08     -4.007e-07   -150.185854362470224  S   *
	* 3        2.977e-13         4.958e-09      2.779e-07   -150.185854084574970  S/E *
	* 4        2.977e-13         1.134e-09      1.928e-08   -150.185854065298258  S/E *
	* 5        2.977e-13         3.119e-10      1.807e-08   -150.185854047232766  S/E *
	* 6        2.977e-13         7.739e-11      3.157e-09   -150.185854044075313  S/E *
	* 7        2.977e-13         1.816e-11      7.057e-10   -150.185854043369631  S/E *
	* 8        2.977e-13         4.081e-12      7.594e-11   -150.185854043293688  S/E *
	* 9        2.977e-13         1.008e-12     -1.563e-12   -150.185854043295251  S/E *
	* 10       2.977e-13         2.377e-13      1.705e-13   -150.185854043295080  S/E *
	Orbital Updates
	* 1        2.485e-08         2.377e-13     -4.895e-06   -150.185858938762891  S   *
	* 2        1.141e-08         2.377e-13     -5.684e-13   -150.185858938763459  S   *
	* 3        5.402e-09         2.377e-13      8.527e-14   -150.185858938763374  S   *
	* 4        2.593e-09         2.377e-13     -2.558e-13   -150.185858938763630  S/E *
	* 5        1.380e-10         2.377e-13     -2.842e-14   -150.185858938763658  S/E *
	* 6        2.764e-11         2.377e-13      5.684e-14   -150.185858938763602  S/E *
	* 7        6.739e-12         2.377e-13      5.684e-14   -150.185858938763545  S/E *
	* 8        8.262e-13         2.377e-13      0.000e+00   -150.185858938763545  S/E *
	                          *** Macro Iteration 4 ***
	Cumulant Iterations
	* 1        8.262e-13         3.175e-09     -1.452e-07   -150.185859083922537  S   *
	* 2        8.262e-13         3.827e-10      5.715e-09   -150.185859078207869  S   *
	* 3        8.262e-13         8.630e-11     -4.323e-09   -150.185859082531238  S/E *
	* 4        8.262e-13         1.813e-11     -1.644e-10   -150.185859082695686  S/E *
	* 5        8.262e-13         5.019e-12     -2.937e-10   -150.185859082989367  S/E *
	* 6        8.262e-13         1.241e-12     -5.065e-11   -150.185859083040015  S/E *
	* 7        8.262e-13         2.941e-13     -1.290e-11   -150.185859083052918  S/E *
	Orbital Updates
	* 1        4.174e-10         2.941e-13      6.826e-08   -150.185859014790225  S   *
	* 2        2.004e-10         2.941e-13      2.842e-14   -150.185859014790196  S   *
	* 3        9.790e-11         2.941e-13     -1.990e-13   -150.185859014790395  S   *
	* 4        4.800e-11         2.941e-13      1.421e-13   -150.185859014790253  S/E *
	* 5        2.521e-12         2.941e-13     -2.274e-13   -150.185859014790481  S/E *
	* 6        7.739e-13         2.941e-13      1.137e-13   -150.185859014790367  S/E *
	                          *** Macro Iteration 5 ***
	Cumulant Iterations
	* 1        7.739e-13         5.628e-11      2.355e-09   -150.185859012435628  S   *
	* 2        7.739e-13         6.974e-12     -8.362e-11   -150.185859012519245  S   *
	* 3        7.739e-13         1.613e-12      7.228e-11   -150.185859012446969  S/E *
	* 4        7.739e-13         3.140e-13      1.307e-12   -150.185859012445661  S/E *
	Orbital Updates
	* 1        7.804e-12         3.140e-13     -1.100e-09   -150.185859013545894  S   *
	* 2        3.761e-12         3.140e-13     -1.705e-13   -150.185859013546064  S   *
	* 3        1.852e-12         3.140e-13      1.421e-13   -150.185859013545922  S   *
	* 4        9.175e-13         3.140e-13     -1.421e-13   -150.185859013546064  S/E *
	* 5        7.928e-14         3.140e-13      1.137e-13   -150.185859013545951  S/E *
	                          *** Macro Iteration 6 ***
	Cumulant Iterations
	* 1        7.928e-14         1.071e-12     -3.627e-11   -150.185859013582217  S   *
	* 2        7.928e-14         1.386e-13      1.933e-12   -150.185859013580284  S   *
	Orbital Updates
	* 1        1.622e-13         1.386e-13      1.486e-11   -150.185859013565420  S   *
	*=================================================================================*

	*   DC-12 SCF Energy                                 =    -149.101073338708318
	*   DC-12 Lambda Energy                              =      -1.084785674857105
	*   DC-12 Total Energy                               =    -150.185859013565420

	Orbital occupations:
		Alpha occupied orbitals
		   1Ag       0.9995     1B1u      0.9995     2Ag       0.9941     2B1u      0.9910  
		   1B3u      0.9886     1B2u      0.9886     1B3g      0.9845     1B2g      0.9845  
		   3Ag       0.9815  

		Beta occupied orbitals
		   1Ag       0.9995     1B1u      0.9994     2Ag       0.9909     2B1u      0.9839  
		   3Ag       0.9819     1B2u      0.9708     1B3u      0.9708  

		Alpha virtual orbitals
		   3B1u      0.0153     2B2u      0.0073     2B3u      0.0073     2B2g      0.0057  
		   2B3g      0.0057     4Ag       0.0057     4B1u      0.0042     5Ag       0.0039  
		   1B1g      0.0039     3B3u      0.0035     3B2u      0.0035     6Ag       0.0032  
		   5B1u      0.0031     1Au       0.0031     6B1u      0.0014     3B2g      0.0012  
		   3B3g      0.0012     7Ag       0.0010     4B2u      0.0005     4B3u      0.0005  
		   4B3g      0.0004     4B2g      0.0004     8Ag       0.0003     2B1g      0.0003  
		   9Ag       0.0003     7B1u      0.0003     5B2u      0.0003     5B3u      0.0003  
		   6B3u      0.0002     6B2u      0.0002    10Ag       0.0002     5B3g      0.0002  
		   5B2g      0.0002     8B1u      0.0002    11Ag       0.0002     2Au       0.0002  
		   9B1u      0.0002     3B1g      0.0002    12Ag       0.0002     7B2u      0.0002  
		   7B3u      0.0002    10B1u      0.0001     6B2g      0.0001     6B3g      0.0001  
		   3Au       0.0001    11B1u      0.0001    12B1u      0.0001     8B3u      0.0001  
		   8B2u      0.0001     7B2g      0.0001     7B3g      0.0001    13Ag       0.0001  
		  13B1u      0.0001    14Ag       0.0001     8B2g      0.0000     8B3g      0.0000  
		  15Ag       0.0000    14B1u      0.0000     4B1g      0.0000    16Ag       0.0000  
		  15B1u      0.0000     4Au       0.0000    16B1u      0.0000     9B3u      0.0000  
		   9B2u      0.0000     9B3g      0.0000     9B2g      0.0000    17Ag       0.0000  
		  17B1u      0.0000    10B3u      0.0000    10B2u      0.0000    10B2g      0.0000  
		  10B3g      0.0000    18Ag       0.0000    19Ag       0.0000    18B1u      0.0000  
		  19B1u      0.0000  

		Beta virtual orbitals
		   1B2g      0.0230     1B3g      0.0230     3B1u      0.0119     4Ag       0.0057  
		   4B1u      0.0042     2B2u      0.0040     2B3u      0.0040     5Ag       0.0034  
		   1B1g      0.0028     6Ag       0.0028     3B3u      0.0025     3B2u      0.0025  
		   2B2g      0.0012     2B3g      0.0012     5B1u      0.0011     1Au       0.0010  
		   6B1u      0.0010     7Ag       0.0007     3B3g      0.0005     3B2g      0.0005  
		   8Ag       0.0003     4B2u      0.0003     4B3u      0.0003     9Ag       0.0002  
		   7B1u      0.0002     5B2u      0.0002     5B3u      0.0002    10Ag       0.0002  
		   2B1g      0.0002    11Ag       0.0002     6B2u      0.0002     6B3u      0.0002  
		   8B1u      0.0002     4B3g      0.0001     4B2g      0.0001     3B1g      0.0001  
		  12Ag       0.0001     9B1u      0.0001     5B3g      0.0001     5B2g      0.0001  
		   2Au       0.0001    10B1u      0.0001     7B2u      0.0001     7B3u      0.0001  
		   6B2g      0.0001     6B3g      0.0001    11B1u      0.0001    13Ag       0.0001  
		  12B1u      0.0001     3Au       0.0001     8B2u      0.0001     8B3u      0.0001  
		  13B1u      0.0001    14Ag       0.0001     7B3g      0.0000     7B2g      0.0000  
		  15Ag       0.0000     8B3g      0.0000     8B2g      0.0000    14B1u      0.0000  
		   9B3u      0.0000     9B2u      0.0000    15B1u      0.0000    16Ag       0.0000  
		   9B2g      0.0000     9B3g      0.0000     4B1g      0.0000    17Ag       0.0000  
		  16B1u      0.0000     4Au       0.0000    17B1u      0.0000    10B2u      0.0000  
		  10B3u      0.0000    18Ag       0.0000    10B2g      0.0000    10B3g      0.0000  
		  19Ag       0.0000    18B1u      0.0000    19B1u      0.0000  


*** tstop() called on ds1.sherrill.chemistry.gatech.edu at Mon Mar 14 15:22:48 2016
Module time:
	user time   =      11.06 seconds =       0.18 minutes
	system time =       4.58 seconds =       0.08 minutes
	total time  =         17 seconds =       0.28 minutes
Total time:
	user time   =      23.04 seconds =       0.38 minutes
	system time =       9.27 seconds =       0.15 minutes
	total time  =         34 seconds =       0.57 minutes
	DC-12 SCF Energy (two-step, ao_basis=none)........................PASSED
	DC-12 Energy (two-step, ao_basis=none)............................PASSED

*** tstart() called on ds1.sherrill.chemistry.gatech.edu
*** at Mon Mar 14 15:22:48 2016


         ---------------------------------------------------------
                                   SCF
            by Justin Turney, Rob Parrish, and Andy Simmonett
                              UHF Reference
                        1 Threads,    250 MiB Core
         ---------------------------------------------------------

  ==> Geometry <==

    Molecular point group: d2h
    Full point group: D_inf_h

    Geometry (in Bohr), charge = 0, multiplicity = 3:

       Center              X                  Y                   Z               Mass       
    ------------   -----------------  -----------------  -----------------  -----------------
           O          0.000000000000     0.000000000000    -1.000000000000    15.994914619560
           O          0.000000000000     0.000000000000     1.000000000000    15.994914619560

  Running in d2h symmetry.

  Rotational constants: A = ************  B =      1.88184  C =      1.88184 [cm^-1]
  Rotational constants: A = ************  B =  56416.09372  C =  56416.09372 [MHz]
  Nuclear repulsion =   32.000000000000000

  Charge       = 0
  Multiplicity = 3
  Electrons    = 16
  Nalpha       = 9
  Nbeta        = 7

  ==> Algorithm <==

  SCF Algorithm Type is PK.
  DIIS enabled.
  MOM disabled.
  Fractional occupation disabled.
  Guess Type is CORE.
  Energy threshold   = 1.00e-08
  Density threshold  = 1.00e-12
  Integral threshold = 0.00e+00

  ==> Primary Basis <==

  Basis Set: CC-PCVTZ
    Number of shells: 30
    Number of basis function: 86
    Number of Cartesian functions: 98
    Spherical Harmonics?: true
    Max angular momentum: 3

  ==> Pre-Iterations <==

   -------------------------------------------------------
    Irrep   Nso     Nmo     Nalpha   Nbeta   Ndocc  Nsocc
   -------------------------------------------------------
     Ag        19      19       0       0       0       0
     B1g        4       4       0       0       0       0
     B2g       10      10       0       0       0       0
     B3g       10      10       0       0       0       0
     Au         4       4       0       0       0       0
     B1u       19      19       0       0       0       0
     B2u       10      10       0       0       0       0
     B3u       10      10       0       0       0       0
   -------------------------------------------------------
    Total      86      86       9       7       7       2
   -------------------------------------------------------

  ==> Integral Setup <==

	Batch   1 pq = [       0,     620] index = [             0,192510]
  ==> DiskJK: Disk-Based J/K Matrices <==

    J tasked:                  Yes
    K tasked:                  Yes
    wK tasked:                  No
    Memory (MB):               178
    Schwarz Cutoff:          1E-12

  Minimum eigenvalue in the overlap matrix is 1.6797415199E-03.
  Using Symmetric Orthogonalization.
  SCF Guess: Core (One-Electron) Hamiltonian.

  ==> Iterations <==

                        Total Energy        Delta E     RMS |[F,P]|

    Occupation by irrep:
             Ag   B1g   B2g   B3g    Au   B1u   B2u   B3u 
    DOCC [     3,    0,    0,    0,    0,    2,    1,    1 ]
    SOCC [     0,    0,    1,    1,    0,    0,    0,    0 ]

   @UHF iter   1:  -129.30094738986725   -1.29301e+02   3.22153e-01 
   @UHF iter   2:  -139.10256307548201   -9.80162e+00   1.36257e-01 DIIS
   @UHF iter   3:  -148.87964672378911   -9.77708e+00   4.97577e-02 DIIS
   @UHF iter   4:  -149.63315736777710   -7.53511e-01   6.98237e-03 DIIS
   @UHF iter   5:  -149.65331133654081   -2.01540e-02   7.48648e-04 DIIS
   @UHF iter   6:  -149.65365051649687   -3.39180e-04   1.78281e-04 DIIS
   @UHF iter   7:  -149.65367639665371   -2.58802e-05   3.43598e-05 DIIS
   @UHF iter   8:  -149.65367726640602   -8.69752e-07   4.43249e-06 DIIS
   @UHF iter   9:  -149.65367728282735   -1.64213e-08   4.16868e-07 DIIS
   @UHF iter  10:  -149.65367728294240   -1.15051e-10   7.26841e-08 DIIS
   @UHF iter  11:  -149.65367728294706   -4.66116e-12   1.71238e-08 DIIS
   @UHF iter  12:  -149.65367728294729   -2.27374e-13   4.36878e-09 DIIS
   @UHF iter  13:  -149.65367728294740   -1.13687e-13   9.01182e-10 DIIS
   @UHF iter  14:  -149.65367728294729    1.13687e-13   1.14052e-10 DIIS
   @UHF iter  15:  -149.65367728294740   -1.13687e-13   1.65939e-11 DIIS
   @UHF iter  16:  -149.65367728294726    1.42109e-13   2.46493e-12 DIIS
   @UHF iter  17:  -149.65367728294746   -1.98952e-13   4.17754e-13 DIIS

  ==> Post-Iterations <==

   @Spin Contamination Metric:   2.987006734E-02
   @S^2 Expected:                2.000000000E+00
   @S^2 Observed:                2.029870067E+00
   @S   Expected:                1.000000000E+00
   @S   Observed:                1.000000000E+00

    Orbital Energies (a.u.)
    -----------------------

    Alpha Occupied:                                                       

       1Ag   -20.720693     1B1u  -20.719199     2Ag    -1.857588  
       2B1u   -1.147190     1B2u   -0.903173     1B3u   -0.903173  
       3Ag    -0.812143     1B3g   -0.480847     1B2g   -0.480847  

    Alpha Virtual:                                                        

       3B1u    0.456848     2B2u    0.661966     2B3u    0.661966  
       4Ag     0.700746     5Ag     0.736877     2B3g    0.798297  
       2B2g    0.798297     4B1u    0.934468     5B1u    1.294683  
       1B1g    1.410878     6Ag     1.410878     3B3u    1.642980  
       3B2u    1.642980     6B1u    1.926335     1Au     1.926335  
       7Ag     2.350885     7B1u    2.473959     3B3g    2.533963  
       3B2g    2.533963     4B2u    3.758443     4B3u    3.758443  
       8Ag     4.054153     4B3g    4.127305     4B2g    4.127305  
       9Ag     4.629772     8B1u    4.757626     2B1g    4.934414  
      10Ag     4.934414     5B2u    5.147096     5B3u    5.147096  
       6B3u    5.207130     6B2u    5.207130     5B3g    5.663376  
       5B2g    5.663376    11Ag     5.915955     9B1u    6.143614  
      10B1u    6.196397    12Ag     6.489150     3B1g    6.489150  
      11B1u    6.490437     2Au     6.490437    12B1u    6.745606  
       3Au     6.745606     6B3g    6.758688     6B2g    6.758688  
       7B2u    7.104799     7B3u    7.104799    13Ag     8.255031  
       7B3g    8.280988     7B2g    8.280988    13B1u   10.563284  
       8B2u   25.804117     8B3u   25.804117     8B3g   26.111344  
       8B2g   26.111344    14B1u   26.693303    14Ag    26.844820  
      15Ag    28.480459    15B1u   29.264886     4B1g   43.653236  
      16Ag    43.653236    17Ag    43.667021     9B2u   43.696920  
       9B3u   43.696920     4Au    43.713001    16B1u   43.713001  
       9B3g   43.891605     9B2g   43.891605    17B1u   45.126952  
      10B2u  138.046258    10B3u  138.046258    10B2g  138.273431  
      10B3g  138.273431    18B1u  138.923484    18Ag   138.997772  
      19Ag   148.312478    19B1u  149.957793  

    Beta Occupied:                                                        

       1Ag   -20.668520     1B1u  -20.666223     2Ag    -1.749125  
       2B1u   -0.941842     3Ag    -0.735793     1B3u   -0.658607  
       1B2u   -0.658607  

    Beta Virtual:                                                         

       1B2g    0.179248     1B3g    0.179248     3B1u    0.486962  
       4Ag     0.700525     2B3u    0.714166     2B2u    0.714166  
       5Ag     0.761262     2B2g    0.898322     2B3g    0.898322  
       4B1u    1.004004     5B1u    1.336539     1B1g    1.460834  
       6Ag     1.460834     3B3u    1.712865     3B2u    1.712865  
       1Au     2.025454     6B1u    2.025454     7Ag     2.385724  
       7B1u    2.496188     3B2g    2.586066     3B3g    2.586066  
       4B3u    3.870683     4B2u    3.870683     8Ag     4.079587  
       4B2g    4.229786     4B3g    4.229786     9Ag     4.673500  
       8B1u    4.803585     2B1g    4.969376    10Ag     4.969376  
       5B3u    5.184033     5B2u    5.184033     6B3u    5.266404  
       6B2u    5.266404     5B3g    5.733192     5B2g    5.733192  
      11Ag     5.986382     9B1u    6.177330    10B1u    6.235652  
      11B1u    6.563732     2Au     6.563732    12Ag     6.616303  
       3B1g    6.616303     6B2g    6.823096     6B3g    6.823096  
       3Au     6.846637    12B1u    6.846637     7B3u    7.163785  
       7B2u    7.163785    13Ag     8.277347     7B2g    8.320332  
       7B3g    8.320332    13B1u   10.609186     8B3u   25.859160  
       8B2u   25.859160     8B2g   26.165829     8B3g   26.165829  
      14B1u   26.712254    14Ag    26.867372    15Ag    28.510788  
      15B1u   29.293521    16Ag    43.689739     4B1g   43.705286  
      17Ag    43.705286     9B3u   43.726805     9B2u   43.726805  
       4Au    43.764904    16B1u   43.764904     9B2g   43.921398  
       9B3g   43.921398    17B1u   45.149393    10B2u  138.059683  
      10B3u  138.059683    10B2g  138.286808    10B3g  138.286808  
      18B1u  138.928984    18Ag   139.003355    19Ag   148.323082  
      19B1u  149.967937  

    Final Occupation by Irrep:
             Ag   B1g   B2g   B3g    Au   B1u   B2u   B3u 
    DOCC [     3,    0,    0,    0,    0,    2,    1,    1 ]
    SOCC [     0,    0,    1,    1,    0,    0,    0,    0 ]

  Energy converged.

  @UHF Final Energy:  -149.65367728294746

   => Energetics <=

    Nuclear Repulsion Energy =             32.0000000000000000
    One-Electron Energy =                -269.2037835000346604
    Two-Electron Energy =                  87.5501062170871904
    DFT Exchange-Correlation Energy =       0.0000000000000000
    Empirical Dispersion Energy =           0.0000000000000000
    PCM Polarization Energy =               0.0000000000000000
    EFP Energy =                            0.0000000000000000
    Total Energy =                       -149.6536772829474558

    Alert: EFP and PCM quantities not currently incorporated into SCF psivars.

Properties will be evaluated at   0.000000,   0.000000,   0.000000 Bohr
  ==> Properties <==


Properties computed using the SCF density matrix

  Nuclear Dipole Moment: (a.u.)
     X:     0.0000      Y:     0.0000      Z:     0.0000

  Electronic Dipole Moment: (a.u.)
     X:     0.0000      Y:     0.0000      Z:     0.0000

  Dipole Moment: (a.u.)
     X:     0.0000      Y:     0.0000      Z:     0.0000     Total:     0.0000

  Dipole Moment: (Debye)
     X:     0.0000      Y:     0.0000      Z:     0.0000     Total:     0.0000


  Saving occupied orbitals to File 180.

  UHF NO Occupations:
  HONO-2 :    1B2u 1.9945325
  HONO-1 :    1B2g 1.0000000
  HONO-0 :    1B3g 1.0000000
  LUNO+0 :    2B2u 0.0054675
  LUNO+1 :    2B3u 0.0054675
  LUNO+2 :    3B1u 0.0029640
  LUNO+3 :    4 Ag 0.0010074


*** tstop() called on ds1.sherrill.chemistry.gatech.edu at Mon Mar 14 15:22:48 2016
Module time:
	user time   =       0.41 seconds =       0.01 minutes
	system time =       0.04 seconds =       0.00 minutes
	total time  =          0 seconds =       0.00 minutes
Total time:
	user time   =      23.48 seconds =       0.39 minutes
	system time =       9.31 seconds =       0.16 minutes
	total time  =         34 seconds =       0.57 minutes

*** tstart() called on ds1.sherrill.chemistry.gatech.edu
*** at Mon Mar 14 15:22:48 2016



	***********************************************************************************
	*                        Density Cumulant Functional Theory                       *
	*                by Alexander Sokolov, Andy Simmonett, and Xiao Wang              *
	***********************************************************************************


	Transforming two-electron integrals (transformation type: unrestricted)...
	Computing MP2 amplitude guess...

	*Total Hartree-Fock energy        = -149.653677282947456
	 Alpha - Alpha MP2 energy         =   -0.068673352579460
	 Alpha - Beta  MP2 energy         =   -0.389193273762697
	 Beta  - Beta  MP2 energy         =   -0.061625703312491
	 Total MP2 correlation energy     =   -0.519492329654649
	*Total MP2 energy                 = -150.173169612602095

	DCFT Functional:    		 CEPA0
	DCFT Type:          		 CONV
	Algorithm:          		 TWOSTEP
	AO-Basis Integrals: 		 NONE

	*=================================================================================*
	* Cycle  RMS [F, Kappa]   RMS Lambda Error   delta E        Total Energy     DIIS *
	*---------------------------------------------------------------------------------*
	                          *** Macro Iteration 1 ***
	Cumulant Iterations
	* 1        1.514e-13         9.535e-04     -6.044e-03   -150.179213393502977  S   *
	* 2        1.514e-13         1.659e-04     -7.353e-03   -150.186566820414214  S   *
	* 3        1.514e-13         5.923e-05     -1.750e-03   -150.188316896872834  S/E *
	* 4        1.514e-13         1.460e-05      8.896e-05   -150.188227937164612  S/E *
	* 5        1.514e-13         3.526e-06     -2.939e-05   -150.188257331046884  S/E *
	* 6        1.514e-13         7.905e-07      3.049e-06   -150.188254281854853  S/E *
	* 7        1.514e-13         1.761e-07     -1.167e-07   -150.188254398549873  S/E *
	* 8        1.514e-13         4.143e-08     -1.614e-08   -150.188254414687293  S/E *
	* 9        1.514e-13         9.888e-09     -2.119e-08   -150.188254435881618  S/E *
	* 10       1.514e-13         3.018e-09     -4.737e-09   -150.188254440618948  S/E *
	* 11       1.514e-13         9.063e-10     -2.842e-09   -150.188254443461261  S/E *
	* 12       1.514e-13         3.025e-10     -1.234e-09   -150.188254444695474  S/E *
	* 13       1.514e-13         1.015e-10     -5.846e-10   -150.188254445280052  S/E *
	* 14       1.514e-13         3.418e-11     -2.119e-10   -150.188254445491992  S/E *
	* 15       1.514e-13         1.187e-11     -6.523e-11   -150.188254445557220  S/E *
	* 16       1.514e-13         3.594e-12      5.485e-12   -150.188254445551735  S/E *
	* 17       1.514e-13         1.008e-12      1.108e-12   -150.188254445550626  S/E *
	* 18       1.514e-13         2.776e-13      1.108e-12   -150.188254445549518  S/E *
	*=================================================================================*

	*   CEPA0 SCF Energy                                 =    -149.653677282947456
	*   CEPA0 Lambda Energy                              =      -0.534577162602060
	*   CEPA0 Total Energy                               =    -150.188254445549518

	Orbital occupations:
		Alpha occupied orbitals
		   1B3u      1.0000     1B2u      1.0000     1B1u      1.0000     2B1u      1.0000  
		   1B3g      1.0000     1B2g      1.0000     1Ag       1.0000     2Ag       1.0000  
		   3Ag       1.0000  

		Beta occupied orbitals
		   1B3u      1.0000     1B2u      1.0000     1B1u      1.0000     2B1u      1.0000  
		   1Ag       1.0000     2Ag       1.0000     3Ag       1.0000  

		Alpha virtual orbitals
		   2B3u      0.0000     3B3u      0.0000     4B3u      0.0000     5B3u      0.0000  
		   6B3u      0.0000     7B3u      0.0000     8B3u      0.0000     9B3u      0.0000  
		  10B3u      0.0000     2B2u      0.0000     3B2u      0.0000     4B2u      0.0000  
		   5B2u      0.0000     6B2u      0.0000     7B2u      0.0000     8B2u      0.0000  
		   9B2u      0.0000    10B2u      0.0000     3B1u      0.0000     4B1u      0.0000  
		   5B1u      0.0000     6B1u      0.0000     7B1u      0.0000     8B1u      0.0000  
		   9B1u      0.0000    10B1u      0.0000    11B1u      0.0000    12B1u      0.0000  
		  13B1u      0.0000    14B1u      0.0000    15B1u      0.0000    16B1u      0.0000  
		  17B1u      0.0000    18B1u      0.0000    19B1u      0.0000     1Au       0.0000  
		   2Au       0.0000     3Au       0.0000     4Au       0.0000     2B3g      0.0000  
		   3B3g      0.0000     4B3g      0.0000     5B3g      0.0000     6B3g      0.0000  
		   7B3g      0.0000     8B3g      0.0000     9B3g      0.0000    10B3g      0.0000  
		   2B2g      0.0000     3B2g      0.0000     4B2g      0.0000     5B2g      0.0000  
		   6B2g      0.0000     7B2g      0.0000     8B2g      0.0000     9B2g      0.0000  
		  10B2g      0.0000     1B1g      0.0000     2B1g      0.0000     3B1g      0.0000  
		   4B1g      0.0000     4Ag       0.0000     5Ag       0.0000     6Ag       0.0000  
		   7Ag       0.0000     8Ag       0.0000     9Ag       0.0000    10Ag       0.0000  
		  11Ag       0.0000    12Ag       0.0000    13Ag       0.0000    14Ag       0.0000  
		  15Ag       0.0000    16Ag       0.0000    17Ag       0.0000    18Ag       0.0000  
		  19Ag       0.0000  

		Beta virtual orbitals
		   2B3u      0.0000     3B3u      0.0000     4B3u      0.0000     5B3u      0.0000  
		   6B3u      0.0000     7B3u      0.0000     8B3u      0.0000     9B3u      0.0000  
		  10B3u      0.0000     2B2u      0.0000     3B2u      0.0000     4B2u      0.0000  
		   5B2u      0.0000     6B2u      0.0000     7B2u      0.0000     8B2u      0.0000  
		   9B2u      0.0000    10B2u      0.0000     3B1u      0.0000     4B1u      0.0000  
		   5B1u      0.0000     6B1u      0.0000     7B1u      0.0000     8B1u      0.0000  
		   9B1u      0.0000    10B1u      0.0000    11B1u      0.0000    12B1u      0.0000  
		  13B1u      0.0000    14B1u      0.0000    15B1u      0.0000    16B1u      0.0000  
		  17B1u      0.0000    18B1u      0.0000    19B1u      0.0000     1Au       0.0000  
		   2Au       0.0000     3Au       0.0000     4Au       0.0000     1B3g      0.0000  
		   2B3g      0.0000     3B3g      0.0000     4B3g      0.0000     5B3g      0.0000  
		   6B3g      0.0000     7B3g      0.0000     8B3g      0.0000     9B3g      0.0000  
		  10B3g      0.0000     1B2g      0.0000     2B2g      0.0000     3B2g      0.0000  
		   4B2g      0.0000     5B2g      0.0000     6B2g      0.0000     7B2g      0.0000  
		   8B2g      0.0000     9B2g      0.0000    10B2g      0.0000     1B1g      0.0000  
		   2B1g      0.0000     3B1g      0.0000     4B1g      0.0000     4Ag       0.0000  
		   5Ag       0.0000     6Ag       0.0000     7Ag       0.0000     8Ag       0.0000  
		   9Ag       0.0000    10Ag       0.0000    11Ag       0.0000    12Ag       0.0000  
		  13Ag       0.0000    14Ag       0.0000    15Ag       0.0000    16Ag       0.0000  
		  17Ag       0.0000    18Ag       0.0000    19Ag       0.0000  

	 OPDM trace: 	 16.000000		Deviation: 	0.0000e+00
	 TPDM trace: 	239.611763		Deviation: 	3.8824e-01

*** tstop() called on ds1.sherrill.chemistry.gatech.edu at Mon Mar 14 15:22:51 2016
Module time:
	user time   =       1.57 seconds =       0.03 minutes
	system time =       0.95 seconds =       0.02 minutes
	total time  =          3 seconds =       0.05 minutes
Total time:
	user time   =      25.05 seconds =       0.42 minutes
	system time =      10.26 seconds =       0.17 minutes
	total time  =         37 seconds =       0.62 minutes
	CEPA0 Energy (two-step, ao_basis=none)............................PASSED

*** PSI4 exiting successfully. Buy a developer a beer!
