    -----------------------------------------------------------------------
          Psi4: An Open-Source Ab Initio Electronic Structure Package
                              Psi4 0.3.457 Driver

                          Git: Rev {master} 009e3d0 dirty

    J. M. Turney, A. C. Simmonett, R. M. Parrish, E. G. Hohenstein,
    F. A. Evangelista, J. T. Fermann, B. J. Mintz, L. A. Burns, J. J. Wilke,
    M. L. Abrams, N. J. Russ, M. L. Leininger, C. L. Janssen, E. T. Seidl,
    W. D. Allen, H. F. Schaefer, R. A. King, E. F. Valeev, C. D. Sherrill,
    and T. D. Crawford, WIREs Comput. Mol. Sci. 2, 556-565 (2012)
    (doi: 10.1002/wcms.93)

                         Additional Contributions by
    A. E. DePrince, M. Saitow, U. Bozkaya, A. Yu. Sokolov
    -----------------------------------------------------------------------


    Psi4 started on: Sat Jan 16 16:51:18 2016

    Process ID:   7243
    PSI4DATADIR: /usr/local/psi4/share/psi
    Memory level set to 256.000 MB

  ==> Input File <==

--------------------------------------------------------------------------
#! Transition-state optimizations of HOOH to both torsional transition states.
TORS_ENERGY      = -150.78530699  #TEST
ZERO_TORS_ENERGY = -150.77391414  #TEST

# Optimization to 180 degree torsion from 120
molecule h2o {
 H
 O 1 0.95
 O 2 1.40 1 105.0
 H 3 0.95 2 105.0 1 120.0
}
set globals {
  basis cc-pvdz
  docc [5, 4]
  opt_type ts
  intrafrag_step_limit 0.1
}

thisenergy = optimize('scf')
compare_values(TORS_ENERGY, thisenergy, 6, "cc-pVDZ RHF transition-state opt. of HOOH (dihedral=180), energy") #TEST

# Optimization to 0 degree torsion from 100
molecule h2o {
 H
 O 1 0.95
 O 2 1.40 1 105.0
 H 3 0.95 2 105.0 1 100.0
}

thisenergy = optimize('scf')
compare_values(ZERO_TORS_ENERGY, thisenergy, 6, "cc-pVDZ RHF transition-state opt. of HOOH (dihedral=0), energy") #TEST

--------------------------------------------------------------------------
gradient() will perform analytic gradient computation.

*** tstart() called on gimli.chem.bethel.edu
*** at Sat Jan 16 16:51:19 2016

    There are an even number of electrons - assuming singlet.
    Specify the multiplicity with the MULTP option in the
    input if this is incorrect


         ---------------------------------------------------------
                                   SCF
            by Justin Turney, Rob Parrish, and Andy Simmonett
                              RHF Reference
                        8 Threads,    256 MiB Core
         ---------------------------------------------------------

  ==> Geometry <==

    Molecular point group: c2
    Full point group: C2

    Geometry (in Angstrom), charge = 0, multiplicity = 1:

       Center              X                  Y                   Z               Mass       
    ------------   -----------------  -----------------  -----------------  -----------------
           H          0.987932131277     0.741760367715     0.431618855697     1.007825032070
           O          0.158231237066     0.681881863387    -0.027195911790    15.994914619560
           O         -0.158231237066    -0.681881863387    -0.027195911790    15.994914619560
           H         -0.987932131277    -0.741760367715     0.431618855697     1.007825032070

  Running in c2 symmetry.

  Rotational constants: A =     11.00600  B =      0.93560  C =      0.89901 [cm^-1]
  Rotational constants: A = 329951.70020  B =  28048.57280  C =  26951.62306 [MHz]
  Nuclear repulsion =   37.810711389329363

  Charge       = 0
  Multiplicity = 1
  Electrons    = 18
  Nalpha       = 9
  Nbeta        = 9

  ==> Algorithm <==

  SCF Algorithm Type is DF.
  DIIS enabled.
  MOM disabled.
  Fractional occupation disabled.
  Guess Type is CORE.
  Energy threshold   = 1.00e-08
  Density threshold  = 1.00e-08
  Integral threshold = 0.00e+00

  ==> Primary Basis <==

  Basis Set: CC-PVDZ
    Number of shells: 18
    Number of basis function: 38
    Number of Cartesian functions: 40
    Spherical Harmonics?: true
    Max angular momentum: 2

  ==> Pre-Iterations <==

   -------------------------------------------------------
    Irrep   Nso     Nmo     Nalpha   Nbeta   Ndocc  Nsocc
   -------------------------------------------------------
     A         19      19       5       5       5       0
     B         19      19       4       4       4       0
   -------------------------------------------------------
    Total      38      38       9       9       9       0
   -------------------------------------------------------

  ==> Integral Setup <==

  ==> DFJK: Density-Fitted J/K Matrices <==

    J tasked:                  Yes
    K tasked:                  Yes
    wK tasked:                  No
    OpenMP threads:              8
    Integrals threads:           8
    Memory (MB):               183
    Algorithm:                Core
    Integral Cache:           NONE
    Schwarz Cutoff:          1E-12
    Fitting Condition:       1E-12

   => Auxiliary Basis Set <=

  Basis Set: 
    Number of shells: 66
    Number of basis function: 186
    Number of Cartesian functions: 212
    Spherical Harmonics?: true
    Max angular momentum: 3

  Minimum eigenvalue in the overlap matrix is 2.2663983585E-02.
  Using Symmetric Orthogonalization.
  SCF Guess: Core (One-Electron) Hamiltonian.

  ==> Iterations <==

                           Total Energy        Delta E     RMS |[F,P]|

   @DF-RHF iter   1:  -139.25709401020168   -1.39257e+02   1.45802e-01 
   @DF-RHF iter   2:  -142.43697440819784   -3.17988e+00   1.33438e-01 DIIS
   @DF-RHF iter   3:  -150.59289517837209   -8.15592e+00   2.47875e-02 DIIS
   @DF-RHF iter   4:  -150.77296640339802   -1.80071e-01   5.21652e-03 DIIS
   @DF-RHF iter   5:  -150.78483408241971   -1.18677e-02   1.00492e-03 DIIS
   @DF-RHF iter   6:  -150.78569641243712   -8.62330e-04   3.54082e-04 DIIS
   @DF-RHF iter   7:  -150.78580272171274   -1.06309e-04   8.67968e-05 DIIS
   @DF-RHF iter   8:  -150.78581133191813   -8.61021e-06   3.06107e-05 DIIS
   @DF-RHF iter   9:  -150.78581278351459   -1.45160e-06   1.16713e-05 DIIS
   @DF-RHF iter  10:  -150.78581304655381   -2.63039e-07   2.44604e-06 DIIS
   @DF-RHF iter  11:  -150.78581305245683   -5.90302e-09   4.52669e-07 DIIS
   @DF-RHF iter  12:  -150.78581305267545   -2.18620e-10   7.31237e-08 DIIS
   @DF-RHF iter  13:  -150.78581305268037   -4.91696e-12   2.20678e-08 DIIS
   @DF-RHF iter  14:  -150.78581305268085   -4.83169e-13   3.15623e-09 DIIS

  ==> Post-Iterations <==

    Orbital Energies (a.u.)
    -----------------------

    Doubly Occupied:                                                      

       1A    -20.616532     1B    -20.616201     2A     -1.490230  
       2B     -1.205744     3A     -0.723612     3B     -0.707098  
       4A     -0.614095     5A     -0.504510     4B     -0.463123  

    Virtual:                                                              

       6A      0.193329     5B      0.196108     6B      0.344756  
       7B      0.824919     7A      0.841534     8B      1.121809  
       8A      1.147457     9A      1.153567     9B      1.228578  
      10B      1.279840    10A      1.331025    11B      1.486824  
      11A      1.517440    12B      1.649746    12A      1.694101  
      13A      1.933239    13B      2.034402    14B      2.469976  
      14A      2.471576    15A      2.709254    16A      2.816542  
      15B      2.879506    17A      3.251007    16B      3.303246  
      17B      3.506940    18A      3.597379    18B      3.944127  
      19A      3.976989    19B      4.262207  

    Final Occupation by Irrep:
              A     B 
    DOCC [     5,    4 ]

  Energy converged.

  @DF-RHF Final Energy:  -150.78581305268085

   => Energetics <=

    Nuclear Repulsion Energy =             37.8107113893293629
    One-Electron Energy =                -283.3107584975819009
    Two-Electron Energy =                  94.7142340555717226
    DFT Exchange-Correlation Energy =       0.0000000000000000
    Empirical Dispersion Energy =           0.0000000000000000
    PCM Polarization Energy =               0.0000000000000000
    EFP Energy =                            0.0000000000000000
    Total Energy =                       -150.7858130526808225

    Alert: EFP and PCM quantities not currently incorporated into SCF psivars.

Properties will be evaluated at   0.000000,   0.000000,   0.000000 Bohr
  ==> Properties <==


Properties computed using the SCF density matrix

  Nuclear Dipole Moment: (a.u.)
     X:     0.0000      Y:     0.0000      Z:     0.8090

  Electronic Dipole Moment: (a.u.)
     X:     0.0000      Y:     0.0000      Z:    -0.1133

  Dipole Moment: (a.u.)
     X:     0.0000      Y:     0.0000      Z:     0.6957     Total:     0.6957

  Dipole Moment: (Debye)
     X:     0.0000      Y:     0.0000      Z:     1.7682     Total:     1.7682


  Saving occupied orbitals to File 180.

*** tstop() called on gimli.chem.bethel.edu at Sat Jan 16 16:51:19 2016
Module time:
	user time   =       0.77 seconds =       0.01 minutes
	system time =       0.01 seconds =       0.00 minutes
	total time  =          0 seconds =       0.00 minutes
Total time:
	user time   =       0.77 seconds =       0.01 minutes
	system time =       0.01 seconds =       0.00 minutes
	total time  =          0 seconds =       0.00 minutes

*** tstart() called on gimli.chem.bethel.edu
*** at Sat Jan 16 16:51:19 2016


         ------------------------------------------------------------
                                   SCF GRAD                          
                          Rob Parrish, Justin Turney,                
                       Andy Simmonett, and Alex Sokolov              
         ------------------------------------------------------------

  ==> Geometry <==

    Molecular point group: c2
    Full point group: C2

    Geometry (in Angstrom), charge = 0, multiplicity = 1:

       Center              X                  Y                   Z               Mass       
    ------------   -----------------  -----------------  -----------------  -----------------
           H          0.987932131277     0.741760367715     0.431618855697     1.007825032070
           O          0.158231237066     0.681881863387    -0.027195911790    15.994914619560
           O         -0.158231237066    -0.681881863387    -0.027195911790    15.994914619560
           H         -0.987932131277    -0.741760367715     0.431618855697     1.007825032070

  Nuclear repulsion =   37.810711389329363

  ==> Basis Set <==

  Basis Set: CC-PVDZ
    Number of shells: 18
    Number of basis function: 38
    Number of Cartesian functions: 40
    Spherical Harmonics?: true
    Max angular momentum: 2

  ==> DFJKGrad: Density-Fitted SCF Gradients <==

    Gradient:                    1
    J tasked:                  Yes
    K tasked:                  Yes
    wK tasked:                  No
    OpenMP threads:              8
    Integrals threads:           8
    Memory (MB):               183
    Schwarz Cutoff:          0E+00
    Fitting Condition:       1E-12

   => Auxiliary Basis Set <=

  Basis Set: 
    Number of shells: 66
    Number of basis function: 186
    Number of Cartesian functions: 212
    Spherical Harmonics?: true
    Max angular momentum: 3


  -Total Gradient:
     Atom            X                  Y                   Z
    ------   -----------------  -----------------  -----------------
       1        0.002188955541     0.008300289760    -0.000945154610
       2        0.009933916158     0.001247000504     0.000945154610
       3       -0.009933916130    -0.001247000498     0.000945154596
       4       -0.002188955569    -0.008300289765    -0.000945154596


*** tstop() called on gimli.chem.bethel.edu at Sat Jan 16 16:51:20 2016
Module time:
	user time   =       1.05 seconds =       0.02 minutes
	system time =       0.07 seconds =       0.00 minutes
	total time  =          1 seconds =       0.02 minutes
Total time:
	user time   =       1.82 seconds =       0.03 minutes
	system time =       0.08 seconds =       0.00 minutes
	total time  =          1 seconds =       0.02 minutes
CURRENT ENERGY: -150.7858130527

			-----------------------------------------
			 OPTKING 2.0: for geometry optimizations 
			  - R.A. King,  Bethel University        
			-----------------------------------------

	Internal coordinates to be generated automatically.
	Detected frag with atoms:  1 2 3 4
	---Fragment 1 Bond Connectivity---
	 1 : 2
	 2 : 1 3
	 3 : 2 4
	 4 : 3

	---Fragment 1 Geometry and Gradient---
	 H           1.8669211660        1.4017239512        0.8156414311
	 O           0.2990137037        1.2885699768       -0.0513928252
	 O          -0.2990137037       -1.2885699768       -0.0513928252
	 H          -1.8669211660       -1.4017239512        0.8156414311
	             0.0021889555        0.0083002898       -0.0009451546
	             0.0099339162        0.0012470005        0.0009451546
	            -0.0099339161       -0.0012470005        0.0009451546
	            -0.0021889556       -0.0083002898       -0.0009451546

	Previous optimization step data not found.  Starting new optimization.

	---Fragment 1 Intrafragment Coordinates---
	 - Coordinate -           - BOHR/RAD -       - ANG/DEG -
	 R(1,2)           =         1.795240	       0.950000
	 R(2,3)           =         2.645617	       1.400000
	 R(3,4)           =         1.795240	       0.950000
	 B(1,2,3)         =         1.832596	     105.000000
	 B(2,3,4)         =         1.832596	     105.000000
	 D(1,2,3,4)       =         2.094395	     120.000000

	Current energy   :      -150.7858130527

	Generating empirical Hessian (Schlegel '84) for each fragment.
	Taking PRFO optimization step.
	Maximizing along 1 lowest eigenvalue of Hessian.

 RFO min eigenvalues
 -0.003087  0.160000  0.162754  0.456524  0.576811  0.576825

 RFO max eigenvalues
 -0.000854  0.003154
	Change in coordinate exceeds step limit of    0.10000.
	Scaling displacements by    0.05192
	Norm of target step-size    0.10000

	Back-transformation to cartesian coordinates...
	Successfully converged to displaced geometry.

	--- Internal Coordinate Step in ANG or DEG, aJ/ANG or AJ/DEG ---
	 ---------------------------------------------------------------------------
	   Coordinate                Previous        Force       Change         New 
	   ----------                --------       ------       ------       ------
	    1 R(1,2)          =      0.950000    -0.016300    -0.000094     0.949906
	    2 R(2,3)          =      1.400000    -0.099198    -0.000720     1.399280
	    3 R(3,4)          =      0.950000    -0.016300    -0.000094     0.949906
	    4 B(1,2,3)        =    105.000000    -0.001141    -0.273498   104.726502
	    5 B(2,3,4)        =    105.000000    -0.001141    -0.273498   104.726502
	    6 D(1,2,3,4)      =    120.000000    -0.000029     5.715958   125.715958
	 ---------------------------------------------------------------------------

  ==> Convergence Check <==

  Measures of convergence in internal coordinates in au.
  Criteria marked as inactive (o), active & met (*), and active & unmet ( ).
  --------------------------------------------------------------------------------------------- ~
   Step     Total Energy     Delta E     MAX Force     RMS Force      MAX Disp      RMS Disp    ~
  --------------------------------------------------------------------------------------------- ~
    Convergence Criteria    1.00e-06 *    3.00e-04 *             o    1.20e-03 *             o  ~
  --------------------------------------------------------------------------------------------- ~
      1    -150.78581305   -1.51e+02      1.50e-02      1.00e-02 o    9.98e-02      4.08e-02 o  ~
  ---------------------------------------------------------------------------------------------

	Writing optimization data to binary file.
	Structure for next step:
	Cartesian Geometry (in Angstrom)
	    H     0.9998698062   0.7445207193   0.4117663544
	    O     0.1496109816   0.6834563229  -0.0073434105
	    O    -0.1496109816  -0.6834563229  -0.0073434105
	    H    -0.9998698062  -0.7445207193   0.4117663544
			--------------------------
			 OPTKING Finished Execution 
			--------------------------

    Structure for next step:
    Molecular point group: c2
    Full point group: C2

    Geometry (in Angstrom), charge = 0, multiplicity = 1:

    H       
    O             1    0.949906
    O             2    1.399280      1  104.726502
    H             3    0.949906      2  104.726502      1  125.715958

gradient() will perform analytic gradient computation.

*** tstart() called on gimli.chem.bethel.edu
*** at Sat Jan 16 16:51:20 2016

    There are an even number of electrons - assuming singlet.
    Specify the multiplicity with the MULTP option in the
    input if this is incorrect


         ---------------------------------------------------------
                                   SCF
            by Justin Turney, Rob Parrish, and Andy Simmonett
                              RHF Reference
                        8 Threads,    256 MiB Core
         ---------------------------------------------------------

  ==> Geometry <==

    Molecular point group: c2
    Full point group: C2

    Geometry (in Angstrom), charge = 0, multiplicity = 1:

       Center              X                  Y                   Z               Mass       
    ------------   -----------------  -----------------  -----------------  -----------------
           H          1.010385067941     0.730186787918     0.394267338307     1.007825032070
           O          0.159341914371     0.681253363647    -0.024842426629    15.994914619560
           O         -0.159341914371    -0.681253363647    -0.024842426629    15.994914619560
           H         -1.010385067941    -0.730186787918     0.394267338307     1.007825032070

  Running in c2 symmetry.

  Rotational constants: A =     11.00223  B =      0.94044  C =      0.89710 [cm^-1]
  Rotational constants: A = 329838.48494  B =  28193.69131  C =  26894.28537 [MHz]
  Nuclear repulsion =   37.831559606672634

  Charge       = 0
  Multiplicity = 1
  Electrons    = 18
  Nalpha       = 9
  Nbeta        = 9

  ==> Algorithm <==

  SCF Algorithm Type is DF.
  DIIS enabled.
  MOM disabled.
  Fractional occupation disabled.
  Guess Type is READ.
  Energy threshold   = 1.00e-08
  Density threshold  = 1.00e-08
  Integral threshold = 0.00e+00

  ==> Primary Basis <==

  Basis Set: CC-PVDZ
    Number of shells: 18
    Number of basis function: 38
    Number of Cartesian functions: 40
    Spherical Harmonics?: true
    Max angular momentum: 2

  ==> Pre-Iterations <==

   -------------------------------------------------------
    Irrep   Nso     Nmo     Nalpha   Nbeta   Ndocc  Nsocc
   -------------------------------------------------------
     A         19      19       5       5       5       0
     B         19      19       4       4       4       0
   -------------------------------------------------------
    Total      38      38       9       9       9       0
   -------------------------------------------------------

  ==> Integral Setup <==

  ==> DFJK: Density-Fitted J/K Matrices <==

    J tasked:                  Yes
    K tasked:                  Yes
    wK tasked:                  No
    OpenMP threads:              8
    Integrals threads:           8
    Memory (MB):               183
    Algorithm:                Core
    Integral Cache:           NONE
    Schwarz Cutoff:          1E-12
    Fitting Condition:       1E-12

   => Auxiliary Basis Set <=

  Basis Set: 
    Number of shells: 66
    Number of basis function: 186
    Number of Cartesian functions: 212
    Spherical Harmonics?: true
    Max angular momentum: 3

  Minimum eigenvalue in the overlap matrix is 2.2503443425E-02.
  Using Symmetric Orthogonalization.
  SCF Guess: Reading in previously saved MOs, projecting if necessary.

  Using orbitals from previous SCF, no projection.
  Recomputing DOCC and SOCC from number of alpha and beta electrons from previous calculation.
              A     B 
    DOCC [     5,    4 ]

  ==> Iterations <==

                           Total Energy        Delta E     RMS |[F,P]|

   @DF-RHF iter   0:  -150.78494643443273   -1.50785e+02   1.41081e-03 
   @DF-RHF iter   1:  -150.78568286776070   -7.36433e-04   3.81965e-04 
   @DF-RHF iter   2:  -150.78576014276996   -7.72750e-05   1.31952e-04 DIIS
   @DF-RHF iter   3:  -150.78577751954882   -1.73768e-05   5.06191e-05 DIIS
   @DF-RHF iter   4:  -150.78578032359036   -2.80404e-06   1.43481e-05 DIIS
   @DF-RHF iter   5:  -150.78578050303662   -1.79446e-07   3.50702e-06 DIIS
   @DF-RHF iter   6:  -150.78578051367126   -1.06346e-08   5.70877e-07 DIIS
   @DF-RHF iter   7:  -150.78578051404901   -3.77753e-10   2.21626e-07 DIIS
   @DF-RHF iter   8:  -150.78578051413538   -8.63736e-11   7.87387e-08 DIIS
   @DF-RHF iter   9:  -150.78578051414777   -1.23919e-11   9.10723e-09 DIIS

  ==> Post-Iterations <==

    Orbital Energies (a.u.)
    -----------------------

    Doubly Occupied:                                                      

       1A    -20.616025     1B    -20.615694     2A     -1.490528  
       2B     -1.205359     3A     -0.719256     3B     -0.710028  
       4A     -0.615785     5A     -0.508238     4B     -0.458723  

    Virtual:                                                              

       6A      0.194172     5B      0.196449     6B      0.345028  
       7B      0.822821     7A      0.843543     8B      1.120736  
       8A      1.140975     9A      1.152573     9B      1.230968  
      10B      1.279385    10A      1.334215    11B      1.488545  
      11A      1.521847    12B      1.644863    12A      1.703523  
      13A      1.929571    13B      2.042558    14A      2.467968  
      14B      2.472170    15A      2.692417    16A      2.815025  
      15B      2.894738    17A      3.263042    16B      3.294240  
      17B      3.497971    18A      3.602515    18B      3.949642  
      19A      3.973238    19B      4.267470  

    Final Occupation by Irrep:
              A     B 
    DOCC [     5,    4 ]

  Energy converged.

  @DF-RHF Final Energy:  -150.78578051414777

   => Energetics <=

    Nuclear Repulsion Energy =             37.8315596066726343
    One-Electron Energy =                -283.3554087262116923
    Two-Electron Energy =                  94.7380686053912484
    DFT Exchange-Correlation Energy =       0.0000000000000000
    Empirical Dispersion Energy =           0.0000000000000000
    PCM Polarization Energy =               0.0000000000000000
    EFP Energy =                            0.0000000000000000
    Total Energy =                       -150.7857805141478025

    Alert: EFP and PCM quantities not currently incorporated into SCF psivars.

Properties will be evaluated at   0.000000,   0.000000,   0.000000 Bohr
  ==> Properties <==


Properties computed using the SCF density matrix

  Nuclear Dipole Moment: (a.u.)
     X:    -0.0000      Y:     0.0000      Z:     0.7390

  Electronic Dipole Moment: (a.u.)
     X:     0.0000      Y:     0.0000      Z:    -0.1023

  Dipole Moment: (a.u.)
     X:    -0.0000      Y:     0.0000      Z:     0.6367     Total:     0.6367

  Dipole Moment: (Debye)
     X:    -0.0000      Y:     0.0000      Z:     1.6184     Total:     1.6184


  Saving occupied orbitals to File 180.

*** tstop() called on gimli.chem.bethel.edu at Sat Jan 16 16:51:20 2016
Module time:
	user time   =       0.73 seconds =       0.01 minutes
	system time =       0.01 seconds =       0.00 minutes
	total time  =          0 seconds =       0.00 minutes
Total time:
	user time   =       2.57 seconds =       0.04 minutes
	system time =       0.09 seconds =       0.00 minutes
	total time  =          1 seconds =       0.02 minutes

*** tstart() called on gimli.chem.bethel.edu
*** at Sat Jan 16 16:51:20 2016


         ------------------------------------------------------------
                                   SCF GRAD                          
                          Rob Parrish, Justin Turney,                
                       Andy Simmonett, and Alex Sokolov              
         ------------------------------------------------------------

  ==> Geometry <==

    Molecular point group: c2
    Full point group: C2

    Geometry (in Angstrom), charge = 0, multiplicity = 1:

       Center              X                  Y                   Z               Mass       
    ------------   -----------------  -----------------  -----------------  -----------------
           H          1.010385067941     0.730186787918     0.394267338307     1.007825032070
           O          0.159341914371     0.681253363647    -0.024842426629    15.994914619560
           O         -0.159341914371    -0.681253363647    -0.024842426629    15.994914619560
           H         -1.010385067941    -0.730186787918     0.394267338307     1.007825032070

  Nuclear repulsion =   37.831559606672613

  ==> Basis Set <==

  Basis Set: CC-PVDZ
    Number of shells: 18
    Number of basis function: 38
    Number of Cartesian functions: 40
    Spherical Harmonics?: true
    Max angular momentum: 2

  ==> DFJKGrad: Density-Fitted SCF Gradients <==

    Gradient:                    1
    J tasked:                  Yes
    K tasked:                  Yes
    wK tasked:                  No
    OpenMP threads:              8
    Integrals threads:           8
    Memory (MB):               183
    Schwarz Cutoff:          0E+00
    Fitting Condition:       1E-12

   => Auxiliary Basis Set <=

  Basis Set: 
    Number of shells: 66
    Number of basis function: 186
    Number of Cartesian functions: 212
    Spherical Harmonics?: true
    Max angular momentum: 3


  -Total Gradient:
     Atom            X                  Y                   Z
    ------   -----------------  -----------------  -----------------
       1        0.002457533806     0.008091184577    -0.001104731833
       2        0.009342402849    -0.000101706352     0.001104731834
       3       -0.009342402824     0.000101706356     0.001104731821
       4       -0.002457533830    -0.008091184581    -0.001104731822


*** tstop() called on gimli.chem.bethel.edu at Sat Jan 16 16:51:21 2016
Module time:
	user time   =       1.02 seconds =       0.02 minutes
	system time =       0.08 seconds =       0.00 minutes
	total time  =          1 seconds =       0.02 minutes
Total time:
	user time   =       3.59 seconds =       0.06 minutes
	system time =       0.17 seconds =       0.00 minutes
	total time  =          2 seconds =       0.03 minutes
CURRENT ENERGY: -150.7857805141

			-----------------------------------------
			 OPTKING 2.0: for geometry optimizations 
			  - R.A. King,  Bethel University        
			-----------------------------------------

	Previous internal coordinate definitions found.
	---Fragment 1 Geometry and Gradient---
	 H           1.9093510672        1.3798530550        0.7450572925
	 O           0.3011125797        1.2873822844       -0.0469453828
	 O          -0.3011125797       -1.2873822844       -0.0469453828
	 H          -1.9093510672       -1.3798530550        0.7450572925
	             0.0024575338        0.0080911846       -0.0011047318
	             0.0093424028       -0.0001017064        0.0011047318
	            -0.0093424028        0.0001017064        0.0011047318
	            -0.0024575338       -0.0080911846       -0.0011047318

	---Fragment 1 Intrafragment Coordinates---
	 - Coordinate -           - BOHR/RAD -       - ANG/DEG -
	 R(1,2)           =         1.795063	       0.949906
	 R(2,3)           =         2.644256	       1.399280
	 R(3,4)           =         1.795063	       0.949906
	 B(1,2,3)         =         1.827822	     104.726502
	 B(2,3,4)         =         1.827822	     104.726502
	 D(1,2,3,4)       =         2.194157	     125.715958

	Current energy   :      -150.7857805141

	Energy change for the previous step:
		Projected    :         0.0000005007
		Actual       :         0.0000325385

	Performing Bofill update.
	Previous computed or guess Hessian on step 1.
	Steps to be used in Hessian update: 1
	Taking PRFO optimization step.
	Maximizing along 1 lowest eigenvalue of Hessian.

 RFO min eigenvalues
 -0.002910  0.160000  0.162694  0.458385  0.576811  0.577050

 RFO max eigenvalues
 -0.000448  0.005300
	Change in coordinate exceeds step limit of    0.10000.
	Scaling displacements by    0.02905
	Norm of target step-size    0.10000

	Back-transformation to cartesian coordinates...
	Successfully converged to displaced geometry.

	--- Internal Coordinate Step in ANG or DEG, aJ/ANG or AJ/DEG ---
	 ---------------------------------------------------------------------------
	   Coordinate                Previous        Force       Change         New 
	   ----------                --------       ------       ------       ------
	    1 R(1,2)          =      0.949906    -0.017558    -0.000291     0.949615
	    2 R(2,3)          =      1.399280    -0.086234     0.000760     1.400040
	    3 R(3,4)          =      0.949906    -0.017558    -0.000291     0.949615
	    4 B(1,2,3)        =    104.726502    -0.001115    -0.306628   104.419873
	    5 B(2,3,4)        =    104.726502    -0.001115    -0.306628   104.419873
	    6 D(1,2,3,4)      =    125.715958    -0.000037     5.712377   131.428335
	 ---------------------------------------------------------------------------

  ==> Convergence Check <==

  Measures of convergence in internal coordinates in au.
  Criteria marked as inactive (o), active & met (*), and active & unmet ( ).
  ---------------------------------------------------------------------------------------------
   Step     Total Energy     Delta E     MAX Force     RMS Force      MAX Disp      RMS Disp   
  ---------------------------------------------------------------------------------------------
    Convergence Criteria    1.00e-06 *    3.00e-04 *             o    1.20e-03 *             o
  ---------------------------------------------------------------------------------------------
      2    -150.78578051    3.25e-05      1.47e-02      9.60e-03 o    9.97e-02      4.08e-02 o  ~
  ---------------------------------------------------------------------------------------------

	Writing optimization data to binary file.
	Structure for next step:
	Cartesian Geometry (in Angstrom)
	    H     1.0213229362   0.7325939335   0.3738435400
	    O     0.1516877369   0.6833878489  -0.0044186284
	    O    -0.1516877369  -0.6833878489  -0.0044186284
	    H    -1.0213229362  -0.7325939335   0.3738435400
			--------------------------
			 OPTKING Finished Execution 
			--------------------------

    Structure for next step:
    Molecular point group: c2
    Full point group: C2

    Geometry (in Angstrom), charge = 0, multiplicity = 1:

    H       
    O             1    0.949615
    O             2    1.400040      1  104.419873
    H             3    0.949615      2  104.419873      1  131.428335

gradient() will perform analytic gradient computation.

*** tstart() called on gimli.chem.bethel.edu
*** at Sat Jan 16 16:51:21 2016

    There are an even number of electrons - assuming singlet.
    Specify the multiplicity with the MULTP option in the
    input if this is incorrect


         ---------------------------------------------------------
                                   SCF
            by Justin Turney, Rob Parrish, and Andy Simmonett
                              RHF Reference
                        8 Threads,    256 MiB Core
         ---------------------------------------------------------

  ==> Geometry <==

    Molecular point group: c2
    Full point group: C2

    Geometry (in Angstrom), charge = 0, multiplicity = 1:

       Center              X                  Y                   Z               Mass       
    ------------   -----------------  -----------------  -----------------  -----------------
           H          1.029891416089     0.720498495802     0.355840953371     1.007825032070
           O          0.159736402566     0.681551467846    -0.022421215041    15.994914619560
           O         -0.159736402566    -0.681551467846    -0.022421215041    15.994914619560
           H         -1.029891416089    -0.720498495802     0.355840953371     1.007825032070

  Running in c2 symmetry.

  Rotational constants: A =     10.99586  B =      0.94336  C =      0.89382 [cm^-1]
  Rotational constants: A = 329647.68359  B =  28281.24495  C =  26796.01688 [MHz]
  Nuclear repulsion =   37.827093892063083

  Charge       = 0
  Multiplicity = 1
  Electrons    = 18
  Nalpha       = 9
  Nbeta        = 9

  ==> Algorithm <==

  SCF Algorithm Type is DF.
  DIIS enabled.
  MOM disabled.
  Fractional occupation disabled.
  Guess Type is READ.
  Energy threshold   = 1.00e-08
  Density threshold  = 1.00e-08
  Integral threshold = 0.00e+00

  ==> Primary Basis <==

  Basis Set: CC-PVDZ
    Number of shells: 18
    Number of basis function: 38
    Number of Cartesian functions: 40
    Spherical Harmonics?: true
    Max angular momentum: 2

  ==> Pre-Iterations <==

   -------------------------------------------------------
    Irrep   Nso     Nmo     Nalpha   Nbeta   Ndocc  Nsocc
   -------------------------------------------------------
     A         19      19       5       5       5       0
     B         19      19       4       4       4       0
   -------------------------------------------------------
    Total      38      38       9       9       9       0
   -------------------------------------------------------

  ==> Integral Setup <==

  ==> DFJK: Density-Fitted J/K Matrices <==

    J tasked:                  Yes
    K tasked:                  Yes
    wK tasked:                  No
    OpenMP threads:              8
    Integrals threads:           8
    Memory (MB):               183
    Algorithm:                Core
    Integral Cache:           NONE
    Schwarz Cutoff:          1E-12
    Fitting Condition:       1E-12

   => Auxiliary Basis Set <=

  Basis Set: 
    Number of shells: 66
    Number of basis function: 186
    Number of Cartesian functions: 212
    Spherical Harmonics?: true
    Max angular momentum: 3

  Minimum eigenvalue in the overlap matrix is 2.2408830449E-02.
  Using Symmetric Orthogonalization.
  SCF Guess: Reading in previously saved MOs, projecting if necessary.

  Using orbitals from previous SCF, no projection.
  Recomputing DOCC and SOCC from number of alpha and beta electrons from previous calculation.
              A     B 
    DOCC [     5,    4 ]

  ==> Iterations <==

                           Total Energy        Delta E     RMS |[F,P]|

   @DF-RHF iter   0:  -150.78440539436028   -1.50784e+02   1.40802e-03 
   @DF-RHF iter   1:  -150.78559557152772   -1.19018e-03   3.82322e-04 
   @DF-RHF iter   2:  -150.78567274600925   -7.71745e-05   1.31217e-04 DIIS
   @DF-RHF iter   3:  -150.78569006694318   -1.73209e-05   4.97848e-05 DIIS
   @DF-RHF iter   4:  -150.78569283597670   -2.76903e-06   1.35994e-05 DIIS
   @DF-RHF iter   5:  -150.78569299715841   -1.61182e-07   3.48908e-06 DIIS
   @DF-RHF iter   6:  -150.78569300722930   -1.00709e-08   5.17370e-07 DIIS
   @DF-RHF iter   7:  -150.78569300751559   -2.86292e-10   1.85959e-07 DIIS
   @DF-RHF iter   8:  -150.78569300757468   -5.90887e-11   7.25902e-08 DIIS
   @DF-RHF iter   9:  -150.78569300758545   -1.07718e-11   9.77970e-09 DIIS

  ==> Post-Iterations <==

    Orbital Energies (a.u.)
    -----------------------

    Doubly Occupied:                                                      

       1A    -20.615694     1B    -20.615364     2A     -1.490205  
       2B     -1.205382     3A     -0.714568     3B     -0.712606  
       4A     -0.617236     5A     -0.511995     4B     -0.455002  

    Virtual:                                                              

       6A      0.194859     5B      0.196700     6B      0.344191  
       7B      0.821043     7A      0.845409     8B      1.119712  
       8A      1.133669     9A      1.152463     9B      1.233218  
      10B      1.278370    10A      1.337229    11B      1.491891  
      11A      1.526604    12B      1.639458    12A      1.712729  
      13A      1.925767    13B      2.051302    14A      2.463990  
      14B      2.475260    15A      2.677046    16A      2.811455  
      15B      2.909945    17A      3.275833    16B      3.284888  
      17B      3.487042    18A      3.606107    18B      3.954479  
      19A      3.969579    19B      4.271959  

    Final Occupation by Irrep:
              A     B 
    DOCC [     5,    4 ]

  Energy converged.

  @DF-RHF Final Energy:  -150.78569300758545

   => Energetics <=

    Nuclear Repulsion Energy =             37.8270938920630826
    One-Electron Energy =                -283.3494716957718538
    Two-Electron Energy =                  94.7366847961233134
    DFT Exchange-Correlation Energy =       0.0000000000000000
    Empirical Dispersion Energy =           0.0000000000000000
    PCM Polarization Energy =               0.0000000000000000
    EFP Energy =                            0.0000000000000000
    Total Energy =                       -150.7856930075854507

    Alert: EFP and PCM quantities not currently incorporated into SCF psivars.

Properties will be evaluated at   0.000000,   0.000000,   0.000000 Bohr
  ==> Properties <==


Properties computed using the SCF density matrix

  Nuclear Dipole Moment: (a.u.)
     X:    -0.0000      Y:     0.0000      Z:     0.6670

  Electronic Dipole Moment: (a.u.)
     X:     0.0000      Y:     0.0000      Z:    -0.0913

  Dipole Moment: (a.u.)
     X:    -0.0000      Y:     0.0000      Z:     0.5757     Total:     0.5757

  Dipole Moment: (Debye)
     X:    -0.0000      Y:     0.0000      Z:     1.4633     Total:     1.4633


  Saving occupied orbitals to File 180.

*** tstop() called on gimli.chem.bethel.edu at Sat Jan 16 16:51:22 2016
Module time:
	user time   =       0.76 seconds =       0.01 minutes
	system time =       0.01 seconds =       0.00 minutes
	total time  =          1 seconds =       0.02 minutes
Total time:
	user time   =       4.38 seconds =       0.07 minutes
	system time =       0.18 seconds =       0.00 minutes
	total time  =          3 seconds =       0.05 minutes

*** tstart() called on gimli.chem.bethel.edu
*** at Sat Jan 16 16:51:22 2016


         ------------------------------------------------------------
                                   SCF GRAD                          
                          Rob Parrish, Justin Turney,                
                       Andy Simmonett, and Alex Sokolov              
         ------------------------------------------------------------

  ==> Geometry <==

    Molecular point group: c2
    Full point group: C2

    Geometry (in Angstrom), charge = 0, multiplicity = 1:

       Center              X                  Y                   Z               Mass       
    ------------   -----------------  -----------------  -----------------  -----------------
           H          1.029891416089     0.720498495802     0.355840953371     1.007825032070
           O          0.159736402566     0.681551467846    -0.022421215041    15.994914619560
           O         -0.159736402566    -0.681551467846    -0.022421215041    15.994914619560
           H         -1.029891416089    -0.720498495802     0.355840953371     1.007825032070

  Nuclear repulsion =   37.827093892063104

  ==> Basis Set <==

  Basis Set: CC-PVDZ
    Number of shells: 18
    Number of basis function: 38
    Number of Cartesian functions: 40
    Spherical Harmonics?: true
    Max angular momentum: 2

  ==> DFJKGrad: Density-Fitted SCF Gradients <==

    Gradient:                    1
    J tasked:                  Yes
    K tasked:                  Yes
    wK tasked:                  No
    OpenMP threads:              8
    Integrals threads:           8
    Memory (MB):               183
    Schwarz Cutoff:          0E+00
    Fitting Condition:       1E-12

   => Auxiliary Basis Set <=

  Basis Set: 
    Number of shells: 66
    Number of basis function: 186
    Number of Cartesian functions: 212
    Spherical Harmonics?: true
    Max angular momentum: 3


  -Total Gradient:
     Atom            X                  Y                   Z
    ------   -----------------  -----------------  -----------------
       1        0.002415922979     0.007861365598    -0.001290048334
       2        0.009228398007    -0.000413459955     0.001290048333
       3       -0.009228398043     0.000413459950     0.001290048350
       4       -0.002415922943    -0.007861365593    -0.001290048349


*** tstop() called on gimli.chem.bethel.edu at Sat Jan 16 16:51:22 2016
Module time:
	user time   =       1.00 seconds =       0.02 minutes
	system time =       0.07 seconds =       0.00 minutes
	total time  =          0 seconds =       0.00 minutes
Total time:
	user time   =       5.39 seconds =       0.09 minutes
	system time =       0.25 seconds =       0.00 minutes
	total time  =          3 seconds =       0.05 minutes
CURRENT ENERGY: -150.7856930076

			-----------------------------------------
			 OPTKING 2.0: for geometry optimizations 
			  - R.A. King,  Bethel University        
			-----------------------------------------

	Previous internal coordinate definitions found.
	---Fragment 1 Geometry and Gradient---
	 H           1.9462127230        1.3615448362        0.6724419487
	 O           0.3018580543        1.2879456197       -0.0423699560
	 O          -0.3018580543       -1.2879456197       -0.0423699560
	 H          -1.9462127230       -1.3615448362        0.6724419487
	             0.0024159230        0.0078613656       -0.0012900483
	             0.0092283980       -0.0004134600        0.0012900483
	            -0.0092283980        0.0004134600        0.0012900484
	            -0.0024159229       -0.0078613656       -0.0012900483

	---Fragment 1 Intrafragment Coordinates---
	 - Coordinate -           - BOHR/RAD -       - ANG/DEG -
	 R(1,2)           =         1.794513	       0.949615
	 R(2,3)           =         2.645693	       1.400040
	 R(3,4)           =         1.794513	       0.949615
	 B(1,2,3)         =         1.822471	     104.419873
	 B(2,3,4)         =         1.822471	     104.419873
	 D(1,2,3,4)       =         2.293857	     131.428335

	Current energy   :      -150.7856930076

	Energy change for the previous step:
		Projected    :         0.0000071259
		Actual       :         0.0000875066

	Performing Bofill update.
	Previous computed or guess Hessian on step 1.
	Steps to be used in Hessian update: 2 1
	Taking PRFO optimization step.
	Maximizing along 1 lowest eigenvalue of Hessian.

 RFO min eigenvalues
 -0.002752  0.160000  0.162516  0.457756  0.576811  0.577016

 RFO max eigenvalues
 -0.000725  0.004682
	Change in coordinate exceeds step limit of    0.10000.
	Scaling displacements by    0.03931
	Norm of target step-size    0.10000

	Back-transformation to cartesian coordinates...
	Successfully converged to displaced geometry.

	--- Internal Coordinate Step in ANG or DEG, aJ/ANG or AJ/DEG ---
	 ---------------------------------------------------------------------------
	   Coordinate                Previous        Force       Change         New 
	   ----------                --------       ------       ------       ------
	    1 R(1,2)          =      0.949615    -0.016661    -0.000286     0.949329
	    2 R(2,3)          =      1.400040    -0.081633     0.000816     1.400856
	    3 R(3,4)          =      0.949615    -0.016661    -0.000286     0.949329
	    4 B(1,2,3)        =    104.419873    -0.001086    -0.362331   104.057542
	    5 B(2,3,4)        =    104.419873    -0.001086    -0.362331   104.057542
	    6 D(1,2,3,4)      =    131.428335    -0.000043     5.705767   137.134102
	 ---------------------------------------------------------------------------

  ==> Convergence Check <==

  Measures of convergence in internal coordinates in au.
  Criteria marked as inactive (o), active & met (*), and active & unmet ( ).
  ---------------------------------------------------------------------------------------------
   Step     Total Energy     Delta E     MAX Force     RMS Force      MAX Disp      RMS Disp   
  ---------------------------------------------------------------------------------------------
    Convergence Criteria    1.00e-06 *    3.00e-04 *             o    1.20e-03 *             o
  ---------------------------------------------------------------------------------------------
      3    -150.78569301    8.75e-05      1.43e-02      9.31e-03 o    9.96e-02      4.08e-02 o  ~
  ---------------------------------------------------------------------------------------------

	Writing optimization data to binary file.
	Structure for next step:
	Cartesian Geometry (in Angstrom)
	    H     1.0393685242   0.7220270911   0.3349637491
	    O     0.1525122364   0.6836224286  -0.0015440107
	    O    -0.1525122364  -0.6836224286  -0.0015440107
	    H    -1.0393685242  -0.7220270911   0.3349637491
			--------------------------
			 OPTKING Finished Execution 
			--------------------------

    Structure for next step:
    Molecular point group: c2
    Full point group: C2

    Geometry (in Angstrom), charge = 0, multiplicity = 1:

    H       
    O             1    0.949329
    O             2    1.400856      1  104.057542
    H             3    0.949329      2  104.057542      1  137.134102

gradient() will perform analytic gradient computation.

*** tstart() called on gimli.chem.bethel.edu
*** at Sat Jan 16 16:51:22 2016

    There are an even number of electrons - assuming singlet.
    Specify the multiplicity with the MULTP option in the
    input if this is incorrect


         ---------------------------------------------------------
                                   SCF
            by Justin Turney, Rob Parrish, and Andy Simmonett
                              RHF Reference
                        8 Threads,    256 MiB Core
         ---------------------------------------------------------

  ==> Geometry <==

    Molecular point group: c2
    Full point group: C2

    Geometry (in Angstrom), charge = 0, multiplicity = 1:

       Center              X                  Y                   Z               Mass       
    ------------   -----------------  -----------------  -----------------  -----------------
           H          1.046174417512     0.712130000387     0.316561506981     1.007825032070
           O          0.158993577764     0.682144155822    -0.019946252826    15.994914619560
           O         -0.158993577764    -0.682144155822    -0.019946252826    15.994914619560
           H         -1.046174417512    -0.712130000387     0.316561506981     1.007825032070

  Running in c2 symmetry.

  Rotational constants: A =     10.97981  B =      0.94618  C =      0.89088 [cm^-1]
  Rotational constants: A = 329166.44753  B =  28365.64266  C =  26707.85877 [MHz]
  Nuclear repulsion =   37.823470508641556

  Charge       = 0
  Multiplicity = 1
  Electrons    = 18
  Nalpha       = 9
  Nbeta        = 9

  ==> Algorithm <==

  SCF Algorithm Type is DF.
  DIIS enabled.
  MOM disabled.
  Fractional occupation disabled.
  Guess Type is READ.
  Energy threshold   = 1.00e-08
  Density threshold  = 1.00e-08
  Integral threshold = 0.00e+00

  ==> Primary Basis <==

  Basis Set: CC-PVDZ
    Number of shells: 18
    Number of basis function: 38
    Number of Cartesian functions: 40
    Spherical Harmonics?: true
    Max angular momentum: 2

  ==> Pre-Iterations <==

   -------------------------------------------------------
    Irrep   Nso     Nmo     Nalpha   Nbeta   Ndocc  Nsocc
   -------------------------------------------------------
     A         19      19       5       5       5       0
     B         19      19       4       4       4       0
   -------------------------------------------------------
    Total      38      38       9       9       9       0
   -------------------------------------------------------

  ==> Integral Setup <==

  ==> DFJK: Density-Fitted J/K Matrices <==

    J tasked:                  Yes
    K tasked:                  Yes
    wK tasked:                  No
    OpenMP threads:              8
    Integrals threads:           8
    Memory (MB):               183
    Algorithm:                Core
    Integral Cache:           NONE
    Schwarz Cutoff:          1E-12
    Fitting Condition:       1E-12

   => Auxiliary Basis Set <=

  Basis Set: 
    Number of shells: 66
    Number of basis function: 186
    Number of Cartesian functions: 212
    Spherical Harmonics?: true
    Max angular momentum: 3

  Minimum eigenvalue in the overlap matrix is 2.2306925029E-02.
  Using Symmetric Orthogonalization.
  SCF Guess: Reading in previously saved MOs, projecting if necessary.

  Using orbitals from previous SCF, no projection.
  Recomputing DOCC and SOCC from number of alpha and beta electrons from previous calculation.
              A     B 
    DOCC [     5,    4 ]

  ==> Iterations <==

                           Total Energy        Delta E     RMS |[F,P]|

   @DF-RHF iter   0:  -150.78422793212786   -1.50784e+02   1.40860e-03 
   @DF-RHF iter   1:  -150.78550871538988   -1.28078e-03   3.84076e-04 
   @DF-RHF iter   2:  -150.78558597551140   -7.72601e-05   1.30719e-04 DIIS
   @DF-RHF iter   3:  -150.78560319914317   -1.72236e-05   4.95681e-05 DIIS
   @DF-RHF iter   4:  -150.78560596704372   -2.76790e-06   1.31891e-05 DIIS
   @DF-RHF iter   5:  -150.78560612007388   -1.53030e-07   3.48072e-06 DIIS
   @DF-RHF iter   6:  -150.78560612989861   -9.82473e-09   4.40568e-07 DIIS
   @DF-RHF iter   7:  -150.78560613007278   -1.74168e-10   1.18618e-07 DIIS
   @DF-RHF iter   8:  -150.78560613009364   -2.08615e-11   5.36292e-08 DIIS
   @DF-RHF iter   9:  -150.78560613009950   -5.85487e-12   1.15378e-08 DIIS
   @DF-RHF iter  10:  -150.78560613009978   -2.84217e-13   2.14275e-09 DIIS

  ==> Post-Iterations <==

    Orbital Energies (a.u.)
    -----------------------

    Doubly Occupied:                                                      

       1A    -20.615418     1B    -20.615089     2A     -1.489965  
       2B     -1.205406     3B     -0.715090     3A     -0.709777  
       4A     -0.618799     5A     -0.515625     4B     -0.451693  

    Virtual:                                                              

       6A      0.195382     5B      0.197052     6B      0.343282  
       7B      0.819626     7A      0.846933     8B      1.118762  
       8A      1.126197     9A      1.152430     9B      1.235256  
      10B      1.276874    10A      1.339875    11B      1.496373  
      11A      1.531560    12B      1.633629    12A      1.721510  
      13A      1.922581    13B      2.060238    14A      2.459703  
      14B      2.478967    15A      2.662434    16A      2.807940  
      15B      2.924193    16B      3.275484    17A      3.288365  
      17B      3.476239    18A      3.609743    18B      3.958233  
      19A      3.965850    19B      4.276784  

    Final Occupation by Irrep:
              A     B 
    DOCC [     5,    4 ]

  Energy converged.

  @DF-RHF Final Energy:  -150.78560613009978

   => Energetics <=

    Nuclear Repulsion Energy =             37.8234705086415559
    One-Electron Energy =                -283.3444288563018745
    Two-Electron Energy =                  94.7353522175605178
    DFT Exchange-Correlation Energy =       0.0000000000000000
    Empirical Dispersion Energy =           0.0000000000000000
    PCM Polarization Energy =               0.0000000000000000
    EFP Energy =                            0.0000000000000000
    Total Energy =                       -150.7856061300998078

    Alert: EFP and PCM quantities not currently incorporated into SCF psivars.

Properties will be evaluated at   0.000000,   0.000000,   0.000000 Bohr
  ==> Properties <==


Properties computed using the SCF density matrix

  Nuclear Dipole Moment: (a.u.)
     X:    -0.0000      Y:    -0.0000      Z:     0.5933

  Electronic Dipole Moment: (a.u.)
     X:     0.0000      Y:     0.0000      Z:    -0.0805

  Dipole Moment: (a.u.)
     X:    -0.0000      Y:    -0.0000      Z:     0.5128     Total:     0.5128

  Dipole Moment: (Debye)
     X:    -0.0000      Y:    -0.0000      Z:     1.3035     Total:     1.3035


  Saving occupied orbitals to File 180.

*** tstop() called on gimli.chem.bethel.edu at Sat Jan 16 16:51:23 2016
Module time:
	user time   =       0.75 seconds =       0.01 minutes
	system time =       0.01 seconds =       0.00 minutes
	total time  =          1 seconds =       0.02 minutes
Total time:
	user time   =       6.18 seconds =       0.10 minutes
	system time =       0.26 seconds =       0.00 minutes
	total time  =          4 seconds =       0.07 minutes

*** tstart() called on gimli.chem.bethel.edu
*** at Sat Jan 16 16:51:23 2016


         ------------------------------------------------------------
                                   SCF GRAD                          
                          Rob Parrish, Justin Turney,                
                       Andy Simmonett, and Alex Sokolov              
         ------------------------------------------------------------

  ==> Geometry <==

    Molecular point group: c2
    Full point group: C2

    Geometry (in Angstrom), charge = 0, multiplicity = 1:

       Center              X                  Y                   Z               Mass       
    ------------   -----------------  -----------------  -----------------  -----------------
           H          1.046174417512     0.712130000387     0.316561506981     1.007825032070
           O          0.158993577764     0.682144155822    -0.019946252826    15.994914619560
           O         -0.158993577764    -0.682144155822    -0.019946252826    15.994914619560
           H         -1.046174417512    -0.712130000387     0.316561506981     1.007825032070

  Nuclear repulsion =   37.823470508641542

  ==> Basis Set <==

  Basis Set: CC-PVDZ
    Number of shells: 18
    Number of basis function: 38
    Number of Cartesian functions: 40
    Spherical Harmonics?: true
    Max angular momentum: 2

  ==> DFJKGrad: Density-Fitted SCF Gradients <==

    Gradient:                    1
    J tasked:                  Yes
    K tasked:                  Yes
    wK tasked:                  No
    OpenMP threads:              8
    Integrals threads:           8
    Memory (MB):               183
    Schwarz Cutoff:          0E+00
    Fitting Condition:       1E-12

   => Auxiliary Basis Set <=

  Basis Set: 
    Number of shells: 66
    Number of basis function: 186
    Number of Cartesian functions: 212
    Spherical Harmonics?: true
    Max angular momentum: 3


  -Total Gradient:
     Atom            X                  Y                   Z
    ------   -----------------  -----------------  -----------------
       1        0.002293569653     0.007449275229    -0.001363110466
       2        0.008898818535    -0.000563806177     0.001363110465
       3       -0.008898818573     0.000563806174     0.001363110480
       4       -0.002293569616    -0.007449275226    -0.001363110479


*** tstop() called on gimli.chem.bethel.edu at Sat Jan 16 16:51:24 2016
Module time:
	user time   =       1.01 seconds =       0.02 minutes
	system time =       0.07 seconds =       0.00 minutes
	total time  =          1 seconds =       0.02 minutes
Total time:
	user time   =       7.19 seconds =       0.12 minutes
	system time =       0.33 seconds =       0.01 minutes
	total time  =          5 seconds =       0.08 minutes
CURRENT ENERGY: -150.7856061301

			-----------------------------------------
			 OPTKING 2.0: for geometry optimizations 
			  - R.A. King,  Bethel University        
			-----------------------------------------

	Previous internal coordinate definitions found.
	---Fragment 1 Geometry and Gradient---
	 H           1.9769831363        1.3457306717        0.5982145524
	 O           0.3004543189        1.2890656377       -0.0376929552
	 O          -0.3004543189       -1.2890656377       -0.0376929552
	 H          -1.9769831363       -1.3457306717        0.5982145524
	             0.0022935697        0.0074492752       -0.0013631105
	             0.0088988185       -0.0005638062        0.0013631105
	            -0.0088988186        0.0005638062        0.0013631105
	            -0.0022935696       -0.0074492752       -0.0013631105

	---Fragment 1 Intrafragment Coordinates---
	 - Coordinate -           - BOHR/RAD -       - ANG/DEG -
	 R(1,2)           =         1.793973	       0.949329
	 R(2,3)           =         2.647235	       1.400856
	 R(3,4)           =         1.793973	       0.949329
	 B(1,2,3)         =         1.816147	     104.057542
	 B(2,3,4)         =         1.816147	     104.057542
	 D(1,2,3,4)       =         2.393442	     137.134102

	Current energy   :      -150.7856061301

	Energy change for the previous step:
		Projected    :         0.0000077283
		Actual       :         0.0000868775

	Performing Bofill update.
	Previous computed or guess Hessian on step 1.
	Steps to be used in Hessian update: 3 2
	Taking PRFO optimization step.
	Maximizing along 1 lowest eigenvalue of Hessian.

 RFO min eigenvalues
 -0.002474  0.160000  0.162098  0.457018  0.576811  0.576977

 RFO max eigenvalues
 -0.001345  0.003498
	Change in coordinate exceeds step limit of    0.10000.
	Scaling displacements by    0.06184
	Norm of target step-size    0.10000

	Back-transformation to cartesian coordinates...
	Successfully converged to displaced geometry.

	--- Internal Coordinate Step in ANG or DEG, aJ/ANG or AJ/DEG ---
	 ---------------------------------------------------------------------------
	   Coordinate                Previous        Force       Change         New 
	   ----------                --------       ------       ------       ------
	    1 R(1,2)          =      0.949329    -0.015617    -0.000288     0.949042
	    2 R(2,3)          =      1.400856    -0.076178     0.000843     1.401699
	    3 R(3,4)          =      0.949329    -0.015617    -0.000288     0.949042
	    4 B(1,2,3)        =    104.057542    -0.001029    -0.430321   103.627221
	    5 B(2,3,4)        =    104.057542    -0.001029    -0.430321   103.627221
	    6 D(1,2,3,4)      =    137.134102    -0.000045     5.696265   142.830367
	 ---------------------------------------------------------------------------

  ==> Convergence Check <==

  Measures of convergence in internal coordinates in au.
  Criteria marked as inactive (o), active & met (*), and active & unmet ( ).
  ---------------------------------------------------------------------------------------------
   Step     Total Energy     Delta E     MAX Force     RMS Force      MAX Disp      RMS Disp   
  ---------------------------------------------------------------------------------------------
    Convergence Criteria    1.00e-06 *    3.00e-04 *             o    1.20e-03 *             o
  ---------------------------------------------------------------------------------------------
      4    -150.78560613    8.69e-05      1.35e-02      8.81e-03 o    9.94e-02      4.08e-02 o  ~
  ---------------------------------------------------------------------------------------------

	Writing optimization data to binary file.
	Structure for next step:
	Cartesian Geometry (in Angstrom)
	    H     1.0540244114   0.7126791374   0.2952839096
	    O     0.1521055791   0.6841448246   0.0013313445
	    O    -0.1521055791  -0.6841448246   0.0013313445
	    H    -1.0540244114  -0.7126791374   0.2952839096
			--------------------------
			 OPTKING Finished Execution 
			--------------------------

    Structure for next step:
    Molecular point group: c2
    Full point group: C2

    Geometry (in Angstrom), charge = 0, multiplicity = 1:

    H       
    O             1    0.949042
    O             2    1.401699      1  103.627221
    H             3    0.949042      2  103.627221      1  142.830367

gradient() will perform analytic gradient computation.

*** tstart() called on gimli.chem.bethel.edu
*** at Sat Jan 16 16:51:24 2016

    There are an even number of electrons - assuming singlet.
    Specify the multiplicity with the MULTP option in the
    input if this is incorrect


         ---------------------------------------------------------
                                   SCF
            by Justin Turney, Rob Parrish, and Andy Simmonett
                              RHF Reference
                        8 Threads,    256 MiB Core
         ---------------------------------------------------------

  ==> Geometry <==

    Molecular point group: c2
    Full point group: C2

    Geometry (in Angstrom), charge = 0, multiplicity = 1:

       Center              X                  Y                   Z               Mass       
    ------------   -----------------  -----------------  -----------------  -----------------
           H          1.059053889886     0.705183572579     0.276528740478     1.007825032070
           O          0.156955321958     0.683048515930    -0.017423824595    15.994914619560
           O         -0.156955321958    -0.683048515930    -0.017423824595    15.994914619560
           H         -1.059053889886    -0.705183572579     0.276528740478     1.007825032070

  Running in c2 symmetry.

  Rotational constants: A =     10.95272  B =      0.94894  C =      0.88836 [cm^-1]
  Rotational constants: A = 328354.24478  B =  28448.41962  C =  26632.27540 [MHz]
  Nuclear repulsion =   37.821758646002976

  Charge       = 0
  Multiplicity = 1
  Electrons    = 18
  Nalpha       = 9
  Nbeta        = 9

  ==> Algorithm <==

  SCF Algorithm Type is DF.
  DIIS enabled.
  MOM disabled.
  Fractional occupation disabled.
  Guess Type is READ.
  Energy threshold   = 1.00e-08
  Density threshold  = 1.00e-08
  Integral threshold = 0.00e+00

  ==> Primary Basis <==

  Basis Set: CC-PVDZ
    Number of shells: 18
    Number of basis function: 38
    Number of Cartesian functions: 40
    Spherical Harmonics?: true
    Max angular momentum: 2

  ==> Pre-Iterations <==

   -------------------------------------------------------
    Irrep   Nso     Nmo     Nalpha   Nbeta   Ndocc  Nsocc
   -------------------------------------------------------
     A         19      19       5       5       5       0
     B         19      19       4       4       4       0
   -------------------------------------------------------
    Total      38      38       9       9       9       0
   -------------------------------------------------------

  ==> Integral Setup <==

  ==> DFJK: Density-Fitted J/K Matrices <==

    J tasked:                  Yes
    K tasked:                  Yes
    wK tasked:                  No
    OpenMP threads:              8
    Integrals threads:           8
    Memory (MB):               183
    Algorithm:                Core
    Integral Cache:           NONE
    Schwarz Cutoff:          1E-12
    Fitting Condition:       1E-12

   => Auxiliary Basis Set <=

  Basis Set: 
    Number of shells: 66
    Number of basis function: 186
    Number of Cartesian functions: 212
    Spherical Harmonics?: true
    Max angular momentum: 3

  Minimum eigenvalue in the overlap matrix is 2.2196337532E-02.
  Using Symmetric Orthogonalization.
  SCF Guess: Reading in previously saved MOs, projecting if necessary.

  Using orbitals from previous SCF, no projection.
  Recomputing DOCC and SOCC from number of alpha and beta electrons from previous calculation.
              A     B 
    DOCC [     5,    4 ]

  ==> Iterations <==

                           Total Energy        Delta E     RMS |[F,P]|

   @DF-RHF iter   0:  -150.78408939650876   -1.50784e+02   1.41689e-03 
   @DF-RHF iter   1:  -150.78543879583003   -1.34940e-03   3.86195e-04 
   @DF-RHF iter   2:  -150.78551653008299   -7.77343e-05   1.30577e-04 DIIS
   @DF-RHF iter   3:  -150.78553376064502   -1.72306e-05   4.93307e-05 DIIS
   @DF-RHF iter   4:  -150.78553652958300   -2.76894e-06   1.27082e-05 DIIS
   @DF-RHF iter   5:  -150.78553667365134   -1.44068e-07   3.49890e-06 DIIS
   @DF-RHF iter   6:  -150.78553668333342   -9.68208e-09   4.18356e-07 DIIS
   @DF-RHF iter   7:  -150.78553668347564   -1.42222e-10   7.62299e-08 DIIS
   @DF-RHF iter   8:  -150.78553668348263   -6.99174e-12   3.09686e-08 DIIS
   @DF-RHF iter   9:  -150.78553668348417   -1.53477e-12   1.05992e-08 DIIS
   @DF-RHF iter  10:  -150.78553668348445   -2.84217e-13   2.85717e-09 DIIS

  ==> Post-Iterations <==

    Orbital Energies (a.u.)
    -----------------------

    Doubly Occupied:                                                      

       1A    -20.615211     1B    -20.614883     2A     -1.489848  
       2B     -1.205427     3B     -0.717520     3A     -0.704892  
       4A     -0.620461     5A     -0.519136     4B     -0.448817  

    Virtual:                                                              

       6A      0.195750     5B      0.197520     6B      0.342297  
       7B      0.818699     7A      0.848033     8B      1.117877  
       8A      1.118817     9A      1.152358     9B      1.237144  
      10B      1.274885    10A      1.342159    11B      1.501710  
      11A      1.536656    12B      1.627315    12A      1.729647  
      13A      1.920332    13B      2.068953    14A      2.455335  
      14B      2.483309    15A      2.648710    16A      2.804601  
      15B      2.937375    16B      3.266402    17A      3.300090  
      17B      3.465884    18A      3.613619    18B      3.960647  
      19A      3.961978    19B      4.281902  

    Final Occupation by Irrep:
              A     B 
    DOCC [     5,    4 ]

  Energy converged.

  @DF-RHF Final Energy:  -150.78553668348445

   => Energetics <=

    Nuclear Repulsion Energy =             37.8217586460029764
    One-Electron Energy =                -283.3421998947259226
    Two-Electron Energy =                  94.7349045652384660
    DFT Exchange-Correlation Energy =       0.0000000000000000
    Empirical Dispersion Energy =           0.0000000000000000
    PCM Polarization Energy =               0.0000000000000000
    EFP Energy =                            0.0000000000000000
    Total Energy =                       -150.7855366834844517

    Alert: EFP and PCM quantities not currently incorporated into SCF psivars.

Properties will be evaluated at   0.000000,   0.000000,   0.000000 Bohr
  ==> Properties <==


Properties computed using the SCF density matrix

  Nuclear Dipole Moment: (a.u.)
     X:    -0.0000      Y:    -0.0000      Z:     0.5183

  Electronic Dipole Moment: (a.u.)
     X:     0.0000      Y:     0.0000      Z:    -0.0700

  Dipole Moment: (a.u.)
     X:    -0.0000      Y:    -0.0000      Z:     0.4483     Total:     0.4483

  Dipole Moment: (Debye)
     X:    -0.0000      Y:    -0.0000      Z:     1.1395     Total:     1.1395


  Saving occupied orbitals to File 180.

*** tstop() called on gimli.chem.bethel.edu at Sat Jan 16 16:51:24 2016
Module time:
	user time   =       0.76 seconds =       0.01 minutes
	system time =       0.01 seconds =       0.00 minutes
	total time  =          0 seconds =       0.00 minutes
Total time:
	user time   =       7.98 seconds =       0.13 minutes
	system time =       0.34 seconds =       0.01 minutes
	total time  =          5 seconds =       0.08 minutes

*** tstart() called on gimli.chem.bethel.edu
*** at Sat Jan 16 16:51:24 2016


         ------------------------------------------------------------
                                   SCF GRAD                          
                          Rob Parrish, Justin Turney,                
                       Andy Simmonett, and Alex Sokolov              
         ------------------------------------------------------------

  ==> Geometry <==

    Molecular point group: c2
    Full point group: C2

    Geometry (in Angstrom), charge = 0, multiplicity = 1:

       Center              X                  Y                   Z               Mass       
    ------------   -----------------  -----------------  -----------------  -----------------
           H          1.059053889886     0.705183572579     0.276528740478     1.007825032070
           O          0.156955321958     0.683048515930    -0.017423824595    15.994914619560
           O         -0.156955321958    -0.683048515930    -0.017423824595    15.994914619560
           H         -1.059053889886    -0.705183572579     0.276528740478     1.007825032070

  Nuclear repulsion =   37.821758646002976

  ==> Basis Set <==

  Basis Set: CC-PVDZ
    Number of shells: 18
    Number of basis function: 38
    Number of Cartesian functions: 40
    Spherical Harmonics?: true
    Max angular momentum: 2

  ==> DFJKGrad: Density-Fitted SCF Gradients <==

    Gradient:                    1
    J tasked:                  Yes
    K tasked:                  Yes
    wK tasked:                  No
    OpenMP threads:              8
    Integrals threads:           8
    Memory (MB):               183
    Schwarz Cutoff:          0E+00
    Fitting Condition:       1E-12

   => Auxiliary Basis Set <=

  Basis Set: 
    Number of shells: 66
    Number of basis function: 186
    Number of Cartesian functions: 212
    Spherical Harmonics?: true
    Max angular momentum: 3


  -Total Gradient:
     Atom            X                  Y                   Z
    ------   -----------------  -----------------  -----------------
       1        0.002092831143     0.006801069811    -0.001332245450
       2        0.008267322500    -0.000508966140     0.001332245450
       3       -0.008267322494     0.000508966141     0.001332245448
       4       -0.002092831149    -0.006801069812    -0.001332245448


*** tstop() called on gimli.chem.bethel.edu at Sat Jan 16 16:51:25 2016
Module time:
	user time   =       1.02 seconds =       0.02 minutes
	system time =       0.07 seconds =       0.00 minutes
	total time  =          1 seconds =       0.02 minutes
Total time:
	user time   =       9.00 seconds =       0.15 minutes
	system time =       0.41 seconds =       0.01 minutes
	total time  =          6 seconds =       0.10 minutes
CURRENT ENERGY: -150.7855366835

			-----------------------------------------
			 OPTKING 2.0: for geometry optimizations 
			  - R.A. King,  Bethel University        
			-----------------------------------------

	Previous internal coordinate definitions found.
	---Fragment 1 Geometry and Gradient---
	 H           2.0013218119        1.3326038256        0.5225635874
	 O           0.2966025736        1.2907746306       -0.0329262567
	 O          -0.2966025736       -1.2907746306       -0.0329262567
	 H          -2.0013218119       -1.3326038256        0.5225635874
	             0.0020928311        0.0068010698       -0.0013322455
	             0.0082673225       -0.0005089661        0.0013322455
	            -0.0082673225        0.0005089661        0.0013322454
	            -0.0020928311       -0.0068010698       -0.0013322454

	---Fragment 1 Intrafragment Coordinates---
	 - Coordinate -           - BOHR/RAD -       - ANG/DEG -
	 R(1,2)           =         1.793429	       0.949042
	 R(2,3)           =         2.648828	       1.401699
	 R(3,4)           =         1.793429	       0.949042
	 B(1,2,3)         =         1.808636	     103.627221
	 B(2,3,4)         =         1.808636	     103.627221
	 D(1,2,3,4)       =         2.492860	     142.830367

	Current energy   :      -150.7855366835

	Energy change for the previous step:
		Projected    :         0.0000064196
		Actual       :         0.0000694466

	Performing Bofill update.
	Previous computed or guess Hessian on step 1.
	Steps to be used in Hessian update: 4 3
	Taking PRFO optimization step.
	Maximizing along 1 lowest eigenvalue of Hessian.

 RFO min eigenvalues
 -0.002061  0.160000  0.161329  0.456832  0.576811  0.576965

 RFO max eigenvalues
 -0.002449  0.002618
	Change in coordinate exceeds step limit of    0.10000.
	Scaling displacements by    0.09617
	Norm of target step-size    0.10000

	Back-transformation to cartesian coordinates...
	Successfully converged to displaced geometry.

	--- Internal Coordinate Step in ANG or DEG, aJ/ANG or AJ/DEG ---
	 ---------------------------------------------------------------------------
	   Coordinate                Previous        Force       Change         New 
	   ----------                --------       ------       ------       ------
	    1 R(1,2)          =      0.949042    -0.014297    -0.000308     0.948733
	    2 R(2,3)          =      1.401699    -0.069637     0.000740     1.402439
	    3 R(3,4)          =      0.949042    -0.014297    -0.000308     0.948733
	    4 B(1,2,3)        =    103.627221    -0.000939    -0.471755   103.155467
	    5 B(2,3,4)        =    103.627221    -0.000939    -0.471755   103.155467
	    6 D(1,2,3,4)      =    142.830367    -0.000043     5.689843   148.520211
	 ---------------------------------------------------------------------------

  ==> Convergence Check <==

  Measures of convergence in internal coordinates in au.
  Criteria marked as inactive (o), active & met (*), and active & unmet ( ).
  ---------------------------------------------------------------------------------------------
   Step     Total Energy     Delta E     MAX Force     RMS Force      MAX Disp      RMS Disp   
  ---------------------------------------------------------------------------------------------
    Convergence Criteria    1.00e-06 *    3.00e-04 *             o    1.20e-03 *             o
  ---------------------------------------------------------------------------------------------
      5    -150.78553668    6.94e-05      1.23e-02      8.04e-03 o    9.93e-02      4.08e-02 o  ~
  ---------------------------------------------------------------------------------------------

	Writing optimization data to binary file.
	Structure for next step:
	Cartesian Geometry (in Angstrom)
	    H     1.0653189395   0.7049238837   0.2548571353
	    O     0.1505029767   0.6848778475   0.0042477806
	    O    -0.1505029767  -0.6848778475   0.0042477806
	    H    -1.0653189395  -0.7049238837   0.2548571353
			--------------------------
			 OPTKING Finished Execution 
			--------------------------

    Structure for next step:
    Molecular point group: c2
    Full point group: C2

    Geometry (in Angstrom), charge = 0, multiplicity = 1:

    H       
    O             1    0.948733
    O             2    1.402439      1  103.155467
    H             3    0.948733      2  103.155467      1  148.520211

gradient() will perform analytic gradient computation.

*** tstart() called on gimli.chem.bethel.edu
*** at Sat Jan 16 16:51:25 2016

    There are an even number of electrons - assuming singlet.
    Specify the multiplicity with the MULTP option in the
    input if this is incorrect


         ---------------------------------------------------------
                                   SCF
            by Justin Turney, Rob Parrish, and Andy Simmonett
                              RHF Reference
                        8 Threads,    256 MiB Core
         ---------------------------------------------------------

  ==> Geometry <==

    Molecular point group: c2
    Full point group: C2

    Geometry (in Angstrom), charge = 0, multiplicity = 1:

       Center              X                  Y                   Z               Mass       
    ------------   -----------------  -----------------  -----------------  -----------------
           H          1.068807003160     0.699623980819     0.235754667459     1.007825032070
           O          0.153902759970     0.684121884263    -0.014854687314    15.994914619560
           O         -0.153902759970    -0.684121884263    -0.014854687314    15.994914619560
           H         -1.068807003160    -0.699623980819     0.235754667459     1.007825032070

  Running in c2 symmetry.

  Rotational constants: A =     10.91873  B =      0.95170  C =      0.88636 [cm^-1]
  Rotational constants: A = 327335.38165  B =  28531.33133  C =  26572.51366 [MHz]
  Nuclear repulsion =   37.823917780594542

  Charge       = 0
  Multiplicity = 1
  Electrons    = 18
  Nalpha       = 9
  Nbeta        = 9

  ==> Algorithm <==

  SCF Algorithm Type is DF.
  DIIS enabled.
  MOM disabled.
  Fractional occupation disabled.
  Guess Type is READ.
  Energy threshold   = 1.00e-08
  Density threshold  = 1.00e-08
  Integral threshold = 0.00e+00

  ==> Primary Basis <==

  Basis Set: CC-PVDZ
    Number of shells: 18
    Number of basis function: 38
    Number of Cartesian functions: 40
    Spherical Harmonics?: true
    Max angular momentum: 2

  ==> Pre-Iterations <==

   -------------------------------------------------------
    Irrep   Nso     Nmo     Nalpha   Nbeta   Ndocc  Nsocc
   -------------------------------------------------------
     A         19      19       5       5       5       0
     B         19      19       4       4       4       0
   -------------------------------------------------------
    Total      38      38       9       9       9       0
   -------------------------------------------------------

  ==> Integral Setup <==

  ==> DFJK: Density-Fitted J/K Matrices <==

    J tasked:                  Yes
    K tasked:                  Yes
    wK tasked:                  No
    OpenMP threads:              8
    Integrals threads:           8
    Memory (MB):               183
    Algorithm:                Core
    Integral Cache:           NONE
    Schwarz Cutoff:          1E-12
    Fitting Condition:       1E-12

   => Auxiliary Basis Set <=

  Basis Set: 
    Number of shells: 66
    Number of basis function: 186
    Number of Cartesian functions: 212
    Spherical Harmonics?: true
    Max angular momentum: 3

  Minimum eigenvalue in the overlap matrix is 2.2075717341E-02.
  Using Symmetric Orthogonalization.
  SCF Guess: Reading in previously saved MOs, projecting if necessary.

  Using orbitals from previous SCF, no projection.
  Recomputing DOCC and SOCC from number of alpha and beta electrons from previous calculation.
              A     B 
    DOCC [     5,    4 ]

  ==> Iterations <==

                           Total Energy        Delta E     RMS |[F,P]|

   @DF-RHF iter   0:  -150.78406413687699   -1.50784e+02   1.42933e-03 
   @DF-RHF iter   1:  -150.78538156313510   -1.31743e-03   3.88674e-04 
   @DF-RHF iter   2:  -150.78546019406704   -7.86309e-05   1.30922e-04 DIIS
   @DF-RHF iter   3:  -150.78547754277392   -1.73487e-05   4.92732e-05 DIIS
   @DF-RHF iter   4:  -150.78548032736543   -2.78459e-06   1.23914e-05 DIIS
   @DF-RHF iter   5:  -150.78548046597430   -1.38609e-07   3.54980e-06 DIIS
   @DF-RHF iter   6:  -150.78548047564101   -9.66671e-09   4.48740e-07 DIIS
   @DF-RHF iter   7:  -150.78548047581157   -1.70559e-10   9.38737e-08 DIIS
   @DF-RHF iter   8:  -150.78548047582356   -1.19940e-11   3.75591e-08 DIIS
   @DF-RHF iter   9:  -150.78548047582609   -2.52953e-12   1.20401e-08 DIIS
   @DF-RHF iter  10:  -150.78548047582643   -3.41061e-13   3.18269e-09 DIIS

  ==> Post-Iterations <==

    Orbital Energies (a.u.)
    -----------------------

    Doubly Occupied:                                                      

       1A    -20.615059     1B    -20.614733     2A     -1.489894  
       2B     -1.205437     3B     -0.719868     3A     -0.700048  
       4A     -0.622217     5A     -0.522464     4B     -0.446359  

    Virtual:                                                              

       6A      0.195990     5B      0.198083     6B      0.341345  
       7B      0.818277     7A      0.848698     8A      1.111824  
       8B      1.117082     9A      1.152240     9B      1.238997  
      10B      1.272425    10A      1.344056    11B      1.507827  
      11A      1.541778    12B      1.620483    12A      1.736946  
      13A      1.919078    13B      2.077216    14A      2.451139  
      14B      2.488177    15A      2.636003    16A      2.801686  
[...]
 -0.000000  0.160000  0.176269  0.453423  0.576292  0.576811

 RFO max eigenvalues
 -0.020558  0.000001
	Norm of target step-size    0.00563

	Back-transformation to cartesian coordinates...
	Successfully converged to displaced geometry.

	--- Internal Coordinate Step in ANG or DEG, aJ/ANG or AJ/DEG ---
	 ---------------------------------------------------------------------------
	   Coordinate                Previous        Force       Change         New 
	   ----------                --------       ------       ------       ------
	    1 R(1,2)          =      0.947614    -0.000120    -0.000006     0.947608
	    2 R(2,3)          =      1.399124     0.000384     0.000001     1.399125
	    3 R(3,4)          =      0.947614    -0.000120    -0.000006     0.947608
	    4 B(1,2,3)        =    106.619153     0.000008     0.020937   106.640090
	    5 B(2,3,4)        =    106.619153     0.000008     0.020937   106.640090
	    6 D(1,2,3,4)      =     -0.307041    -0.000002     0.321068     0.014027
	 ---------------------------------------------------------------------------

  ==> Convergence Check <==

  Measures of convergence in internal coordinates in au.
  Criteria marked as inactive (o), active & met (*), and active & unmet ( ).
  ---------------------------------------------------------------------------------------------
   Step     Total Energy     Delta E     MAX Force     RMS Force      MAX Disp      RMS Disp   
  ---------------------------------------------------------------------------------------------
    Convergence Criteria    1.00e-06 *    3.00e-04 *             o    1.20e-03 *             o
  ---------------------------------------------------------------------------------------------
     19    -150.77391439    1.84e-05      1.07e-04 *    7.56e-05 o    5.60e-03      2.30e-03 o  ~
  ---------------------------------------------------------------------------------------------

	Writing optimization data to binary file.
	Structure for next step:
	Cartesian Geometry (in Angstrom)
	    H     0.9709174313  -0.0015639334  -0.8541528237
	    O     0.6995617051  -0.0012069155   0.0537717094
	    O    -0.6995617051   0.0012069155   0.0537717094
	    H    -0.9709174313   0.0015639334  -0.8541528237
			--------------------------
			 OPTKING Finished Execution 
			--------------------------

    Structure for next step:
    Molecular point group: c2
    Full point group: C2

    Geometry (in Angstrom), charge = 0, multiplicity = 1:

    H       
    O             1    0.947608
    O             2    1.399125      1  106.640090
    H             3    0.947608      2  106.640090      1    0.014027

gradient() will perform analytic gradient computation.

*** tstart() called on gimli.chem.bethel.edu
*** at Sat Jan 16 16:52:00 2016

    There are an even number of electrons - assuming singlet.
    Specify the multiplicity with the MULTP option in the
    input if this is incorrect


         ---------------------------------------------------------
                                   SCF
            by Justin Turney, Rob Parrish, and Andy Simmonett
                              RHF Reference
                        8 Threads,    256 MiB Core
         ---------------------------------------------------------

  ==> Geometry <==

    Molecular point group: c2
    Full point group: C2

    Geometry (in Angstrom), charge = 0, multiplicity = 1:

       Center              X                  Y                   Z               Mass       
    ------------   -----------------  -----------------  -----------------  -----------------
           H          0.970918684489     0.000111137141    -0.854107966513     1.007825032070
           O          0.699562746222     0.000000000000     0.053816566654    15.994914619560
           O         -0.699562746222     0.000000000000     0.053816566654    15.994914619560
           H         -0.970918684489    -0.000111137141    -0.854107966513     1.007825032070

  Running in c2 symmetry.

  Rotational constants: A =     10.78497  B =      0.96024  C =      0.88174 [cm^-1]
  Rotational constants: A = 323325.18079  B =  28787.40609  C =  26433.85567 [MHz]
  Nuclear repulsion =   37.866794926127788

  Charge       = 0
  Multiplicity = 1
  Electrons    = 18
  Nalpha       = 9
  Nbeta        = 9

  ==> Algorithm <==

  SCF Algorithm Type is DF.
  DIIS enabled.
  MOM disabled.
  Fractional occupation disabled.
  Guess Type is READ.
  Energy threshold   = 1.00e-08
  Density threshold  = 1.00e-08
  Integral threshold = 0.00e+00

  ==> Primary Basis <==

  Basis Set: CC-PVDZ
    Number of shells: 18
    Number of basis function: 38
    Number of Cartesian functions: 40
    Spherical Harmonics?: true
    Max angular momentum: 2

  ==> Pre-Iterations <==

   -------------------------------------------------------
    Irrep   Nso     Nmo     Nalpha   Nbeta   Ndocc  Nsocc
   -------------------------------------------------------
     A         19      19       5       5       5       0
     B         19      19       4       4       4       0
   -------------------------------------------------------
    Total      38      38       9       9       9       0
   -------------------------------------------------------

  ==> Integral Setup <==

  ==> DFJK: Density-Fitted J/K Matrices <==

    J tasked:                  Yes
    K tasked:                  Yes
    wK tasked:                  No
    OpenMP threads:              8
    Integrals threads:           8
    Memory (MB):               183
    Algorithm:                Core
    Integral Cache:           NONE
    Schwarz Cutoff:          1E-12
    Fitting Condition:       1E-12

   => Auxiliary Basis Set <=

  Basis Set: 
    Number of shells: 66
    Number of basis function: 186
    Number of Cartesian functions: 212
    Spherical Harmonics?: true
    Max angular momentum: 3

  Minimum eigenvalue in the overlap matrix is 2.1670589031E-02.
  Using Symmetric Orthogonalization.
  SCF Guess: Reading in previously saved MOs, projecting if necessary.

  Using orbitals from previous SCF, no projection.
  Recomputing DOCC and SOCC from number of alpha and beta electrons from previous calculation.
              A     B 
    DOCC [     5,    4 ]

  ==> Iterations <==

                           Total Energy        Delta E     RMS |[F,P]|

   @DF-RHF iter   0:  -150.77393633410651   -1.50774e+02   8.19867e-05 
   @DF-RHF iter   1:  -150.77391382253128    2.25116e-05   2.05680e-05 
   @DF-RHF iter   2:  -150.77391406764997   -2.45119e-07   7.53854e-06 DIIS
   @DF-RHF iter   3:  -150.77391413140074   -6.37508e-08   2.41787e-06 DIIS
   @DF-RHF iter   4:  -150.77391414055205   -9.15131e-09   5.27130e-07 DIIS
   @DF-RHF iter   5:  -150.77391414102615   -4.74103e-10   1.08595e-07 DIIS
   @DF-RHF iter   6:  -150.77391414103630   -1.01466e-11   3.77225e-08 DIIS
   @DF-RHF iter   7:  -150.77391414103738   -1.08002e-12   8.55896e-09 DIIS

  ==> Post-Iterations <==

    Orbital Energies (a.u.)
    -----------------------

    Doubly Occupied:                                                      

       1A    -20.619158     1B    -20.618836     2A     -1.495910  
       2B     -1.208800     3A     -0.780240     3B     -0.632344  
       4A     -0.603733     4B     -0.567168     5A     -0.442727  

    Virtual:                                                              

       6A      0.161095     5B      0.203371     6B      0.360653  
       7A      0.795989     7B      0.847641     8A      1.121746  
       8B      1.151013     9A      1.202728     9B      1.203806  
      10A      1.251176    10B      1.346955    11B      1.493482  
      11A      1.495607    12A      1.598882    12B      1.797477  
      13A      1.829763    13B      2.123248    14A      2.409440  
      14B      2.505459    15B      2.596452    15A      2.800021  
      16A      2.968785    16B      3.211375    17A      3.337504  
      18A      3.438683    17B      3.645488    19A      3.934053  
      18B      4.003582    19B      4.266760  

    Final Occupation by Irrep:
              A     B 
    DOCC [     5,    4 ]

  Energy converged.

  @DF-RHF Final Energy:  -150.77391414103738

   => Energetics <=

    Nuclear Repulsion Energy =             37.8667949261277883
    One-Electron Energy =                -283.3435855493684130
    Two-Electron Energy =                  94.7028764822031803
    DFT Exchange-Correlation Energy =       0.0000000000000000
    Empirical Dispersion Energy =           0.0000000000000000
    PCM Polarization Energy =               0.0000000000000000
    EFP Energy =                            0.0000000000000000
    Total Energy =                       -150.7739141410374373

    Alert: EFP and PCM quantities not currently incorporated into SCF psivars.

Properties will be evaluated at   0.000000,   0.000000,   0.000000 Bohr
  ==> Properties <==


Properties computed using the SCF density matrix

  Nuclear Dipole Moment: (a.u.)
     X:    -0.0000      Y:     0.0000      Z:    -1.6009

  Electronic Dipole Moment: (a.u.)
     X:     0.0000      Y:     0.0000      Z:     0.2740

  Dipole Moment: (a.u.)
     X:    -0.0000      Y:     0.0000      Z:    -1.3268     Total:     1.3268

  Dipole Moment: (Debye)
     X:    -0.0000      Y:     0.0000      Z:    -3.3725     Total:     3.3725


  Saving occupied orbitals to File 180.

*** tstop() called on gimli.chem.bethel.edu at Sat Jan 16 16:52:00 2016
Module time:
	user time   =       0.75 seconds =       0.01 minutes
	system time =       0.01 seconds =       0.00 minutes
	total time  =          0 seconds =       0.00 minutes
Total time:
	user time   =      57.86 seconds =       0.96 minutes
	system time =       2.48 seconds =       0.04 minutes
	total time  =         41 seconds =       0.68 minutes

*** tstart() called on gimli.chem.bethel.edu
*** at Sat Jan 16 16:52:00 2016


         ------------------------------------------------------------
                                   SCF GRAD                          
                          Rob Parrish, Justin Turney,                
                       Andy Simmonett, and Alex Sokolov              
         ------------------------------------------------------------

  ==> Geometry <==

    Molecular point group: c2
    Full point group: C2

    Geometry (in Angstrom), charge = 0, multiplicity = 1:

       Center              X                  Y                   Z               Mass       
    ------------   -----------------  -----------------  -----------------  -----------------
           H          0.970918684489     0.000111137141    -0.854107966513     1.007825032070
           O          0.699562746222     0.000000000000     0.053816566654    15.994914619560
           O         -0.699562746222     0.000000000000     0.053816566654    15.994914619560
           H         -0.970918684489    -0.000111137141    -0.854107966513     1.007825032070

  Nuclear repulsion =   37.866794926127632

  ==> Basis Set <==

  Basis Set: CC-PVDZ
    Number of shells: 18
    Number of basis function: 38
    Number of Cartesian functions: 40
    Spherical Harmonics?: true
    Max angular momentum: 2

  ==> DFJKGrad: Density-Fitted SCF Gradients <==

    Gradient:                    1
    J tasked:                  Yes
    K tasked:                  Yes
    wK tasked:                  No
    OpenMP threads:              8
    Integrals threads:           8
    Memory (MB):               183
    Schwarz Cutoff:          0E+00
    Fitting Condition:       1E-12

   => Auxiliary Basis Set <=

  Basis Set: 
    Number of shells: 66
    Number of basis function: 186
    Number of Cartesian functions: 212
    Spherical Harmonics?: true
    Max angular momentum: 3


  -Total Gradient:
     Atom            X                  Y                   Z
    ------   -----------------  -----------------  -----------------
       1       -0.000002349050    -0.000002857531    -0.000001339665
       2        0.000006019567     0.000003999327     0.000001339665
       3       -0.000006019579    -0.000003999327     0.000001339636
       4        0.000002349062     0.000002857531    -0.000001339637


*** tstop() called on gimli.chem.bethel.edu at Sat Jan 16 16:52:01 2016
Module time:
	user time   =       1.00 seconds =       0.02 minutes
	system time =       0.06 seconds =       0.00 minutes
	total time  =          1 seconds =       0.02 minutes
Total time:
	user time   =      58.87 seconds =       0.98 minutes
	system time =       2.54 seconds =       0.04 minutes
	total time  =         42 seconds =       0.70 minutes
CURRENT ENERGY: -150.7739141410

			-----------------------------------------
			 OPTKING 2.0: for geometry optimizations 
			  - R.A. King,  Bethel University        
			-----------------------------------------

	Previous internal coordinate definitions found.
	---Fragment 1 Geometry and Gradient---
	 H           1.8347704110        0.0002100188       -1.6140301446
	 O           1.3219820031        0.0000000000        0.1016985724
	 O          -1.3219820031        0.0000000000        0.1016985724
	 H          -1.8347704110       -0.0002100188       -1.6140301446
	            -0.0000023490       -0.0000028575       -0.0000013397
	             0.0000060196        0.0000039993        0.0000013397
	            -0.0000060196       -0.0000039993        0.0000013396
	             0.0000023491        0.0000028575       -0.0000013396

	---Fragment 1 Intrafragment Coordinates---
	 - Coordinate -           - BOHR/RAD -       - ANG/DEG -
	 R(1,2)           =         1.790720	       0.947608
	 R(2,3)           =         2.643964	       1.399125
	 R(3,4)           =         1.790720	       0.947608
	 B(1,2,3)         =         1.861221	     106.640090
	 B(2,3,4)         =         1.861221	     106.640090
	 D(1,2,3,4)       =         0.000245	       0.014027

	Current energy   :      -150.7739141410

	Energy change for the previous step:
		Projected    :         0.0000000030
		Actual       :         0.0000002482

	Performing Bofill update.
	Previous computed or guess Hessian on step 1.
	Steps to be used in Hessian update: 19 18
	Taking PRFO optimization step.
	Maximizing along 1 lowest eigenvalue of Hessian.

 RFO min eigenvalues
 -0.000000  0.160000  0.176844  0.453335  0.576285  0.576811

 RFO max eigenvalues
 -0.021910  0.000000
	Norm of target step-size    0.00021

	Back-transformation to cartesian coordinates...
	Successfully converged to displaced geometry.

	--- Internal Coordinate Step in ANG or DEG, aJ/ANG or AJ/DEG ---
	 ---------------------------------------------------------------------------
	   Coordinate                Previous        Force       Change         New 
	   ----------                --------       ------       ------       ------
	    1 R(1,2)          =      0.947608    -0.000005    -0.000001     0.947607
	    2 R(2,3)          =      1.399125    -0.000030    -0.000003     1.399123
	    3 R(3,4)          =      0.947608    -0.000005    -0.000001     0.947607
	    4 B(1,2,3)        =    106.640090     0.000000     0.002083   106.642173
	    5 B(2,3,4)        =    106.640090     0.000000     0.002083   106.642173
	    6 D(1,2,3,4)      =      0.014027     0.000000    -0.011891     0.002136
	 ---------------------------------------------------------------------------

  ==> Convergence Check <==

  Measures of convergence in internal coordinates in au.
  Criteria marked as inactive (o), active & met (*), and active & unmet ( ).
  ---------------------------------------------------------------------------------------------
   Step     Total Energy     Delta E     MAX Force     RMS Force      MAX Disp      RMS Disp   
  ---------------------------------------------------------------------------------------------
    Convergence Criteria    1.00e-06 *    3.00e-04 *             o    1.20e-03 *             o
  ---------------------------------------------------------------------------------------------
     20    -150.77391414    2.48e-07 *    4.93e-06 *    3.72e-06 o    2.08e-04 *    8.73e-05 o  ~
  ---------------------------------------------------------------------------------------------


  **** Optimization is complete! (in 20 steps) ****

  ==> Optimization Summary <==

  Measures of convergence in internal coordinates in au.
  --------------------------------------------------------------------------------------------------------------- ~
   Step         Total Energy             Delta E       MAX Force       RMS Force        MAX Disp        RMS Disp  ~
  --------------------------------------------------------------------------------------------------------------- ~
      1    -150.785849253612   -150.785849253612      0.01266825      0.00823736      0.09985748      0.04082483  ~
      2    -150.785701322621      0.000147930991      0.01146062      0.00700374      0.09938424      0.04082483  ~
      3    -150.785202246841      0.000499075780      0.01219424      0.00765546      0.09980327      0.04082483  ~
      4    -150.784665326042      0.000536920799      0.01174127      0.00758537      0.09992834      0.04082483  ~
      5    -150.784057070636      0.000608255406      0.01054240      0.00712001      0.09982506      0.04082483  ~
      6    -150.783295349247      0.000761721389      0.00979336      0.00700890      0.09983289      0.04082483  ~
      7    -150.782433580084      0.000861769163      0.00903276      0.00690282      0.09988987      0.04082483  ~
      8    -150.781501482385      0.000932097699      0.00919390      0.00668723      0.09988932      0.04082483  ~
      9    -150.780507069576      0.000994412809      0.00967752      0.00647390      0.09989362      0.04082483  ~
     10    -150.779479677844      0.001027391732      0.00987710      0.00622874      0.09991449      0.04082483  ~
     11    -150.778454008779      0.001025669066      0.00977176      0.00590011      0.09993173      0.04082483  ~
     12    -150.777461681981      0.000992326798      0.00934352      0.00548625      0.09995006      0.04082483  ~
     13    -150.776536033135      0.000925648846      0.00859100      0.00498130      0.09997151      0.04082483  ~
     14    -150.775710392049      0.000825641086      0.00753019      0.00437388      0.09998850      0.04082483  ~
     15    -150.775014795900      0.000695596148      0.00618981      0.00366133      0.09999139      0.04082483  ~
     16    -150.774474883291      0.000539912609      0.00461045      0.00284109      0.09996313      0.04082483  ~
     17    -150.774110408530      0.000364474761      0.00284190      0.00189852      0.09986682      0.04082483  ~
     18    -150.773932760354      0.000177648177      0.00098813      0.00078654      0.05280643      0.02166742  ~
     19    -150.773914389285      0.000018371069      0.00010736      0.00007562      0.00560370      0.00229742  ~
     20    -150.773914141037      0.000000248247      0.00000493      0.00000372      0.00020754      0.00008732  ~
  --------------------------------------------------------------------------------------------------------------- ~

	Writing optimization data to binary file.
	Final energy is   -150.7739141410374
	Final (previous) structure:
	Cartesian Geometry (in Angstrom)
	    H     0.9709186845   0.0001111371  -0.8541079665
	    O     0.6995627462   0.0000000000   0.0538165667
	    O    -0.6995627462   0.0000000000   0.0538165667
	    H    -0.9709186845  -0.0001111371  -0.8541079665
	Saving final (previous) structure.
			--------------------------
			 OPTKING Finished Execution 
			--------------------------

    Final optimized geometry and variables:
    Molecular point group: c2
    Full point group: C2

    Geometry (in Angstrom), charge = 0, multiplicity = 1:

    H       
    O             1    0.947608
    O             2    1.399125      1  106.640090
    H             3    0.947608      2  106.640090      1    0.014027

	Cleaning optimization helper files.

*** PSI4 exiting successfully. Buy a developer a beer!
