
    -----------------------------------------------------------------------
          Psi4: An Open-Source Ab Initio Electronic Structure Package
                               Psi4 1.1rc3.dev5 

                         Git: Rev {master} 3fbd859 


    R. M. Parrish, L. A. Burns, D. G. A. Smith, A. C. Simmonett,
    A. E. DePrince III, E. G. Hohenstein, U. Bozkaya, A. Yu. Sokolov,
    R. Di Remigio, R. M. Richard, J. F. Gonthier, A. M. James,
    H. R. McAlexander, A. Kumar, M. Saitow, X. Wang, B. P. Pritchard,
    P. Verma, H. F. Schaefer III, K. Patkowski, R. A. King, E. F. Valeev,
    F. A. Evangelista, J. M. Turney, T. D. Crawford, and C. D. Sherrill,
    J. Chem. Theory Comput. in press (2017).
    (doi: 10.1021/acs.jctc.7b00174)

    -----------------------------------------------------------------------


    Psi4 started on: Monday, 15 May 2017 03:35PM

    Process ID:  13447
    PSIDATADIR: /home/psilocaluser/gits/hrw-direct/objdir4/stage/usr/local/psi4/share/psi4
    Memory:     500.0 MiB
    Threads:    1
    
  ==> Input File <==

--------------------------------------------------------------------------
#! DCFT DC-06 gradient for the O2 molecule with cc-pVDZ basis set

ref_vals_dc06 = [                                                             #TEST
                [ 0.000000000000,     0.000000000000,    -0.065140460923],    #TEST
                [ 0.000000000000,     0.000000000000,     0.065140460923]     #TEST
                ]                                                             #TEST
ref_vals_odc06= [                                                             #TEST
                [ 0.000000000000,     0.000000000000,    -0.056944434749],    #TEST
                [ 0.000000000000,     0.000000000000,     0.056944434749]     #TEST
                ]                                                             #TEST
ref_vals_odc12= [                                                             #TEST
                [ 0.000000000000,     0.000000000000,    -0.070863321661],    #TEST
                [ 0.000000000000,     0.000000000000,     0.070863321661]     #TEST
                ]                                                             #TEST
ref_vals_odc13= [                                                             #TEST
                [ 0.000000000000,     0.000000000000,    -0.077544709375 ],   #TEST
                [ 0.000000000000,     0.000000000000,     0.077544709375 ]    #TEST
                ]                                                             #TEST
ref_dc06 = psi4.Matrix(2, 3)                                                  #TEST
ref_odc06= psi4.Matrix(2, 3)                                                  #TEST
ref_odc12= psi4.Matrix(2, 3)                                                  #TEST
ref_odc13= psi4.Matrix(2, 3)                                                  #TEST
ref_dc06.set(ref_vals_dc06)                                                   #TEST
ref_odc06.set(ref_vals_odc06)                                                 #TEST
ref_odc12.set(ref_vals_odc12)                                                 #TEST
ref_odc13.set(ref_vals_odc13)                                                 #TEST

molecule o2 {
0 3
O
O 1 R

units bohr
R = 2.400
}

set {
  basis           cc-pvdz
  r_convergence   11
  diis_start_convergence 1e-2
  qc_coupling     true
  reference       uhf
}

#AO_BASIS = NONE
set ao_basis        none
set dcft_functional dc-06
set algorithm       simultaneous
grad_sim = gradient('dcft')
compare_matrices(ref_dc06, grad_sim, 8, "DC-06 analytic gradient (simultaneous, ao_basis=none)")      #TEST

set ao_basis        none
set dcft_functional dc-06
set algorithm       qc
grad_qc = gradient('dcft')
compare_matrices(ref_dc06, grad_qc, 8, "DC-06 analytic gradient (qc, ao_basis=none)")                 #TEST

set ao_basis        none
set dcft_functional odc-06
set algorithm simultaneous
grad_odc06 = gradient('dcft')
compare_matrices(ref_odc06, grad_odc06, 8, "ODC-06 analytic gradient (simultaneous, ao_basis=none)")  #TEST

set ao_basis        none
set dcft_functional odc-06
set algorithm       qc
grad_odc06 = gradient('dcft')
compare_matrices(ref_odc06, grad_odc06, 8, "ODC-06 analytic gradient (qc, ao_basis=none)")  #TEST

set ao_basis        none
set dcft_functional odc-12
set algorithm       simultaneous
grad_odc12 = gradient('dcft')
compare_matrices(ref_odc12, grad_odc12, 8, "ODC-12 analytic gradient (simultaneous, ao_basis=none)")  #TEST

set ao_basis        none
set dcft_functional odc-12
set algorithm       qc
grad_odc12 = gradient('dcft')
compare_matrices(ref_odc12, grad_odc12, 8, "ODC-12 analytic gradient (qc, ao_basis=none)")  #TEST

set ao_basis        none
set dcft_functional odc-13
set algorithm       simultaneous
grad_odc13 = gradient('dcft')
compare_matrices(ref_odc13, grad_odc13, 8, "ODC-13 analytic gradient (simultaneous, ao_basis=none)")  #TEST

set ao_basis        none
set dcft_functional odc-13
set algorithm       qc
grad_odc13 = gradient('dcft')
compare_matrices(ref_odc13, grad_odc13, 8, "ODC-13 analytic gradient (qc, ao_basis=none)")  #TEST

#AO_BASIS = DISK
set ao_basis        disk
set dcft_functional dc-06
set algorithm       simultaneous
grad_sim = gradient('dcft')
compare_matrices(ref_dc06, grad_sim, 8, "DC-06 analytic gradient (simultaneous, ao_basis=disk)")      #TEST

set ao_basis        disk
set dcft_functional odc-06
set algorithm simultaneous
grad_odc06 = gradient('dcft')
compare_matrices(ref_odc06, grad_odc06, 8, "ODC-06 analytic gradient (simultaneous, ao_basis=disk)")  #TEST

set ao_basis        disk
set dcft_functional odc-12
set algorithm       simultaneous
grad_odc12 = gradient('dcft')
compare_matrices(ref_odc12, grad_odc12, 8, "ODC-12 analytic gradient (simultaneous, ao_basis=disk)")  #TEST

set ao_basis        disk
set dcft_functional odc-13
set algorithm       simultaneous
grad_odc13 = gradient('dcft')
compare_matrices(ref_odc13, grad_odc13, 8, "ODC-13 analytic gradient (simultaneous, ao_basis=disk)")  #TEST
--------------------------------------------------------------------------
gradient() will perform analytic gradient computation.

*** tstart() called on psinet
*** at Mon May 15 15:35:16 2017

   => Loading Basis Set <=

    Name: CC-PVDZ
    Role: ORBITAL
    Keyword: BASIS
    atoms 1-2 entry O          line   190 file /home/psilocaluser/gits/hrw-direct/objdir4/stage/usr/local/psi4/share/psi4/basis/cc-pvdz.gbs 


         ---------------------------------------------------------
                                   SCF
            by Justin Turney, Rob Parrish, and Andy Simmonett
                              UHF Reference
                        1 Threads,    500 MiB Core
         ---------------------------------------------------------

  ==> Geometry <==

    Molecular point group: d2h
    Full point group: D_inf_h

    Geometry (in Bohr), charge = 0, multiplicity = 3:

       Center              X                  Y                   Z               Mass       
    ------------   -----------------  -----------------  -----------------  -----------------
           O          0.000000000000     0.000000000000    -1.200000000000    15.994914619560
           O          0.000000000000     0.000000000000     1.200000000000    15.994914619560

  Running in d2h symmetry.

  Rotational constants: A = ************  B =      1.30683  C =      1.30683 [cm^-1]
  Rotational constants: A = ************  B =  39177.84286  C =  39177.84286 [MHz]
  Nuclear repulsion =   26.666666666666668

  Charge       = 0
  Multiplicity = 3
  Electrons    = 16
  Nalpha       = 9
  Nbeta        = 7

  ==> Algorithm <==

  SCF Algorithm Type is PK.
  DIIS enabled.
  MOM disabled.
  Fractional occupation disabled.
  Guess Type is GWH.
  Energy threshold   = 1.00e-10
  Density threshold  = 1.00e-10
  Integral threshold = 0.00e+00

  ==> Primary Basis <==

  Basis Set: CC-PVDZ
    Blend: CC-PVDZ
    Number of shells: 12
    Number of basis function: 28
    Number of Cartesian functions: 30
    Spherical Harmonics?: true
    Max angular momentum: 2

  ==> Pre-Iterations <==

   -------------------------------------------------------
    Irrep   Nso     Nmo     Nalpha   Nbeta   Ndocc  Nsocc
   -------------------------------------------------------
     Ag         7       7       0       0       0       0
     B1g        1       1       0       0       0       0
     B2g        3       3       0       0       0       0
     B3g        3       3       0       0       0       0
     Au         1       1       0       0       0       0
     B1u        7       7       0       0       0       0
     B2u        3       3       0       0       0       0
     B3u        3       3       0       0       0       0
   -------------------------------------------------------
    Total      28      28       9       7       7       2
   -------------------------------------------------------

  ==> Integral Setup <==

  Using in-core PK algorithm.
   Calculation information:
      Number of atoms:                   2
      Number of AO shells:              12
      Number of primitives:             44
      Number of atomic orbitals:        30
      Number of basis functions:        28

      Integral cutoff                 1.00e-12
      Number of threads:                 1

  Performing in-core PK
  Using 165242 doubles for integral storage.
  We computed 3081 shell quartets total.
  Whereas there are 3081 unique shell quartets.
  ==> DiskJK: Disk-Based J/K Matrices <==

    J tasked:                  Yes
    K tasked:                  Yes
    wK tasked:                  No
    Memory (MB):               375
    Schwarz Cutoff:          1E-12

    OpenMP threads:              1
  Minimum eigenvalue in the overlap matrix is 2.3545947612E-02.
  Using Symmetric Orthogonalization.

  SCF Guess: Generalized Wolfsberg-Helmholtz.

  ==> Iterations <==

                        Total Energy        Delta E     RMS |[F,P]|

   @UHF iter   1:  -148.90501113693168   -1.48905e+02   1.96041e-01 
   @UHF iter   2:  -149.57574013408112   -6.70729e-01   2.61228e-02 DIIS
   @UHF iter   3:  -149.60920401784750   -3.34639e-02   6.58204e-03 DIIS
   @UHF iter   4:  -149.61154811580678   -2.34410e-03   8.72560e-04 DIIS
   @UHF iter   5:  -149.61161739532582   -6.92795e-05   1.71781e-04 DIIS
   @UHF iter   6:  -149.61162149875850   -4.10343e-06   4.22123e-05 DIIS
   @UHF iter   7:  -149.61162172242717   -2.23669e-07   6.28776e-06 DIIS
   @UHF iter   8:  -149.61162172649472   -4.06754e-09   7.48006e-07 DIIS
   @UHF iter   9:  -149.61162172655617   -6.14477e-11   1.10366e-07 DIIS
   @UHF iter  10:  -149.61162172655730   -1.13687e-12   6.40889e-09 DIIS
   @UHF iter  11:  -149.61162172655730    0.00000e+00   1.48516e-09 DIIS
   @UHF iter  12:  -149.61162172655725    5.68434e-14   3.58272e-10 DIIS
   @UHF iter  13:  -149.61162172655727   -2.84217e-14   4.51501e-11 DIIS

  ==> Post-Iterations <==

   @Spin Contamination Metric:   3.623073585E-02
   @S^2 Expected:                2.000000000E+00
   @S^2 Observed:                2.036230736E+00
   @S   Expected:                1.000000000E+00
   @S   Observed:                1.000000000E+00

    Orbital Energies (a.u.)
    -----------------------

    Alpha Occupied:                                                       

       1Ag   -20.762433     1B1u  -20.761926     2Ag    -1.670200  
       2B1u   -1.223672     1B2u   -0.817654     1B3u   -0.817654  
       3Ag    -0.737394     1B3g   -0.572679     1B2g   -0.572679  

    Alpha Virtual:                                                        

       3B1u    0.350340     2B2u    1.051937     2B3u    1.051937  
       4B1u    1.052773     2B2g    1.162735     2B3g    1.162735  
       4Ag     1.171000     5Ag     1.335918     5B1u    1.909339  
       3B3u    2.384312     3B2u    2.384312     6Ag     2.658410  
       1B1g    2.658410     6B1u    2.903771     1Au     2.903771  
       7Ag     2.974713     3B2g    3.529465     3B3g    3.529465  
       7B1u    4.159778  

    Beta Occupied:                                                        

       1Ag   -20.707327     1B1u  -20.706365     2Ag    -1.532154  
       2B1u   -1.014796     3Ag    -0.682086     1B2u   -0.545349  
       1B3u   -0.545349  

    Beta Virtual:                                                         

       1B3g    0.089037     1B2g    0.089037     3B1u    0.428473  
       4B1u    1.079878     2B2u    1.180178     2B3u    1.180178  
       4Ag     1.195187     2B2g    1.287069     2B3g    1.287069  
       5Ag     1.363695     5B1u    1.959634     3B3u    2.454048  
       3B2u    2.454048     6Ag     2.779141     1B1g    2.779141  
       7Ag     3.046333     6B1u    3.051328     1Au     3.051328  
       3B2g    3.606844     3B3g    3.606844     7B1u    4.208746  

    Final Occupation by Irrep:
             Ag   B1g   B2g   B3g    Au   B1u   B2u   B3u 
    DOCC [     3,    0,    0,    0,    0,    2,    1,    1 ]
    SOCC [     0,    0,    1,    1,    0,    0,    0,    0 ]

  Energy converged.

  @UHF Final Energy:  -149.61162172655727

   => Energetics <=

    Nuclear Repulsion Energy =             26.6666666666666679
    One-Electron Energy =                -258.8868599943168647
    Two-Electron Energy =                  82.6085716010929332
    DFT Exchange-Correlation Energy =       0.0000000000000000
    Empirical Dispersion Energy =           0.0000000000000000
    PCM Polarization Energy =               0.0000000000000000
    EFP Energy =                            0.0000000000000000
    Total Energy =                       -149.6116217265572743


  UHF NO Occupations:
  HONO-2 :    1B3u 1.9930069
  HONO-1 :    1B3g 1.0000000
  HONO-0 :    1B2g 1.0000000
  LUNO+0 :    2B3u 0.0069931
  LUNO+1 :    2B2u 0.0069931
  LUNO+2 :    3B1u 0.0032640
  LUNO+3 :    4 Ag 0.0008115



Properties will be evaluated at   0.000000,   0.000000,   0.000000 Bohr

Properties computed using the SCF density matrix

  Nuclear Dipole Moment: (a.u.)
     X:     0.0000      Y:     0.0000      Z:     0.0000

  Electronic Dipole Moment: (a.u.)
     X:     0.0000      Y:     0.0000      Z:     0.0000

  Dipole Moment: (a.u.)
     X:     0.0000      Y:     0.0000      Z:     0.0000     Total:     0.0000

  Dipole Moment: (Debye)
     X:     0.0000      Y:     0.0000      Z:     0.0000     Total:     0.0000


*** tstop() called on psinet at Mon May 15 15:35:16 2017
Module time:
	user time   =       0.28 seconds =       0.00 minutes
	system time =       0.02 seconds =       0.00 minutes
	total time  =          0 seconds =       0.00 minutes
Total time:
	user time   =       0.28 seconds =       0.00 minutes
	system time =       0.02 seconds =       0.00 minutes
	total time  =          0 seconds =       0.00 minutes
 MINTS: Wrapper to libmints.
   by Justin Turney

   Calculation information:
      Number of threads:                 1
      Number of atoms:                   2
      Number of AO shells:              12
      Number of SO shells:               6
      Number of primitives:             44
      Number of atomic orbitals:        30
      Number of basis functions:        28

      Number of irreps:                  8
      Integral cutoff                 0.00e+00
      Number of functions per irrep: [   7    1    3    3    1    7    3    3 ]

 OEINTS: Overlap, kinetic, potential, dipole, and quadrupole integrals
         stored in file 35.

      Computing two-electron integrals...done
      Computed 11509 non-zero two-electron integrals.
        Stored in file 33.


*** tstart() called on psinet
*** at Mon May 15 15:35:16 2017



	***********************************************************************************
	*                        Density Cumulant Functional Theory                       *
	*                by Alexander Sokolov, Andy Simmonett, and Xiao Wang              *
	***********************************************************************************


	Transforming two-electron integrals (transformation type: unrestricted)...
	Computing MP2 amplitude guess...

	*Total Hartree-Fock energy        = -149.611621726557274
	 Alpha - Alpha MP2 energy         =   -0.045882388934891
	 Alpha - Beta  MP2 energy         =   -0.250883524918072
	 Beta  - Beta  MP2 energy         =   -0.067265068277251
	 Total MP2 correlation energy     =   -0.364030982130214
	*Total MP2 energy                 = -149.975652708687477

	DCFT Functional:    		 DC-06
	DCFT Type:          		 CONV
	Algorithm:          		 SIMULTANEOUS
	AO-Basis Integrals: 		 NONE

	*=================================================================================*
	* Cycle  RMS [F, Kappa]   RMS Lambda Error   delta E        Total Energy     DIIS *
	*---------------------------------------------------------------------------------*
	* 1        1.127e-03         3.026e-03      1.868e-02   -149.956971909244515  S   *
	* 2        4.186e-04         9.170e-04     -5.665e-02   -150.013617375009829  S   *
	* 3        2.973e-04         3.783e-04      3.226e-02   -149.981360425709710  S   *
	* 4        1.055e-04         2.064e-04     -4.782e-03   -149.986142843103465  S/E *
	* 5        3.865e-05         8.176e-05      4.118e-03   -149.982024713901495  S/E *
	* 6        1.122e-05         3.828e-05     -4.419e-04   -149.982466650278184  S/E *
	* 7        8.425e-06         1.796e-05      4.474e-04   -149.982019256017594  S/E *
	* 8        2.519e-06         8.636e-06     -1.264e-05   -149.982031897719196  S/E *
	* 9        2.431e-06         5.146e-06      1.564e-04   -149.981875535135231  S/E *
	* 10       5.560e-07         2.467e-06     -1.434e-04   -149.982018981753754  S/E *
	* 11       7.188e-07         1.109e-06      7.532e-05   -149.981943660885463  S/E *
	* 12       2.990e-07         5.160e-07     -3.199e-05   -149.981975651348137  S/E *
	* 13       9.760e-08         1.942e-07      1.157e-05   -149.981964086164083  S/E *
	* 14       4.044e-08         9.263e-08     -4.456e-06   -149.981968542095643  S/E *
	* 15       2.228e-08         2.946e-08      1.953e-06   -149.981966588988030  S/E *
	* 16       5.185e-09         1.472e-08     -5.904e-07   -149.981967179358406  S/E *
	* 17       1.731e-09         5.409e-09      3.779e-07   -149.981966801460629  S/E *
	* 18       1.377e-09         2.489e-09     -7.804e-08   -149.981966879496809  S/E *
	* 19       6.434e-10         1.054e-09      3.531e-08   -149.981966844188804  S/E *
	* 20       1.713e-10         4.833e-10      1.953e-09   -149.981966842236091  S/E *
	* 21       4.569e-11         1.873e-10     -6.049e-09   -149.981966848285282  S/E *
	* 22       2.685e-11         6.833e-11     -5.165e-10   -149.981966848801761  S/E *
	* 23       1.345e-11         3.235e-11     -3.920e-10   -149.981966849193753  S/E *
	* 24       7.381e-12         1.460e-11     -9.030e-10   -149.981966850096796  S/E *
	* 25       4.333e-12         5.461e-12      3.941e-10   -149.981966849702673  S/E *
	*=================================================================================*

	*   DC-06 SCF Energy                                 =    -149.209763499823794
	*   DC-06 Lambda Energy                              =      -0.772203349878875
	*   DC-06 Total Energy                               =    -149.981966849702673

	Orbital occupations:
		Alpha occupied orbitals
		   1B1u      1.0000     1Ag       1.0000     2Ag       0.9946     2B1u      0.9919  
		   1B3u      0.9893     1B2u      0.9893     1B3g      0.9863     1B2g      0.9863  
		   3Ag       0.9677  

		Beta occupied orbitals
		   1Ag       1.0000     1B1u      1.0000     2Ag       0.9910     2B1u      0.9855  
		   3Ag       0.9715     1B2u      0.9481     1B3u      0.9481  

		Alpha virtual orbitals
		   3B1u      0.0330     2B3u      0.0086     2B2u      0.0086     2B3g      0.0055  
		   2B2g      0.0055     4Ag       0.0051     4B1u      0.0039     5Ag       0.0028  
		   1B1g      0.0028     6Ag       0.0028     3B2u      0.0027     3B3u      0.0027  
		   1Au       0.0026     5B1u      0.0026     7Ag       0.0014     6B1u      0.0013  
		   3B2g      0.0012     3B3g      0.0012     7B1u      0.0002  

		Beta virtual orbitals
		   1B2g      0.0475     1B3g      0.0475     3B1u      0.0249     4Ag       0.0049  
		   2B2u      0.0042     2B3u      0.0042     4B1u      0.0040     5Ag       0.0030  
		   3B2u      0.0021     3B3u      0.0021     2B3g      0.0016     2B2g      0.0016  
		   1B1g      0.0014     6Ag       0.0014     7Ag       0.0011     5B1u      0.0011  
		   6B1u      0.0008     1Au       0.0008     3B3g      0.0007     3B2g      0.0007  
		   7B1u      0.0002  


*** tstop() called on psinet at Mon May 15 15:35:18 2017
Module time:
	user time   =       0.89 seconds =       0.01 minutes
	system time =       0.93 seconds =       0.02 minutes
	total time  =          2 seconds =       0.03 minutes
Total time:
	user time   =       1.23 seconds =       0.02 minutes
	system time =       0.95 seconds =       0.02 minutes
	total time  =          2 seconds =       0.03 minutes

*** tstart() called on psinet
*** at Mon May 15 15:35:18 2017



	***********************************************************************************
	*                           DCFT Analytic Gradients Code                          *
	*                by Alexander Sokolov, Andy Simmonett, and Xiao Wang              *
	***********************************************************************************

	*=================================================*
	* Cycle  RMS Orb. Resp.   RMS Cumul. Resp.   DIIS *
	*-------------------------------------------------*
	              *** Macro Iteration 1 ***
	            Orbital Response Iterations
	*   1      3.114E-02         5.461E-12            *
	*   2      8.865E-03         5.461E-12       S    *
	*   3      2.703E-03         5.461E-12       S    *
	*   4      8.715E-04         5.461E-12       S/E  *
	*   5      9.546E-05         5.461E-12       S/E  *
	*   6      6.884E-06         5.461E-12       S/E  *
	*   7      5.348E-07         5.461E-12       S/E  *
	*   8      1.370E-07         5.461E-12       S/E  *
	*   9      3.988E-08         5.461E-12       S/E  *
	*  10      9.831E-09         5.461E-12       S/E  *
	*  11      6.329E-10         5.461E-12       S/E  *
	*  12      7.271E-11         5.461E-12       S/E  *
	*  13      2.237E-11         5.461E-12       S/E  *
	*  14      6.293E-12         5.461E-12       S/E  *
	   RMS of Response Coupling Change:   3.050E-04 

	              *** Macro Iteration 2 ***
	            Cumulant Response Iterations
	*   1      6.293E-12         8.035E-05       S    *
	*   2      6.293E-12         3.665E-05       S    *
	*   3      6.293E-12         2.355E-05       S/E  *
	*   4      6.293E-12         9.417E-06       S/E  *
	*   5      6.293E-12         3.441E-06       S/E  *
	*   6      6.293E-12         1.080E-06       S/E  *
	*   7      6.293E-12         3.763E-07       S/E  *
	*   8      6.293E-12         1.643E-07       S/E  *
	*   9      6.293E-12         4.343E-08       S/E  *
	*  10      6.293E-12         1.060E-08       S/E  *
	*  11      6.293E-12         3.927E-09       S/E  *
	*  12      6.293E-12         1.329E-09       S/E  *
	*  13      6.293E-12         5.260E-10       S/E  *
	*  14      6.293E-12         2.291E-10       S/E  *
	*  15      6.293E-12         1.298E-10       S/E  *
	*  16      6.293E-12         6.643E-11       S/E  *
	*  17      6.293E-12         2.732E-11       S/E  *
	*  18      6.293E-12         1.229E-11       S/E  *
	*  19      6.293E-12         4.579E-12       S/E  *
	            Orbital Response Iterations
	*   1      1.185E-01         4.579E-12            *
	*   2      3.978E-02         4.579E-12            *
	*   3      1.207E-02         4.579E-12            *
	*   4      4.464E-03         4.579E-12       S    *
	*   5      1.896E-03         4.579E-12       S    *
	*   6      8.465E-04         4.579E-12       S/E  *
	*   7      4.642E-05         4.579E-12       S/E  *
	*   8      5.171E-06         4.579E-12       S/E  *
	*   9      9.603E-07         4.579E-12       S/E  *
	*  10      1.165E-07         4.579E-12       S/E  *
	*  11      1.299E-08         4.579E-12       S/E  *
	*  12      2.471E-09         4.579E-12       S/E  *
	*  13      3.630E-10         4.579E-12       S/E  *
	*  14      1.350E-10         4.579E-12       S/E  *
	*  15      5.030E-11         4.579E-12       S/E  *
	*  16      1.353E-11         4.579E-12       S/E  *
	*  17      2.817E-12         4.579E-12       S/E  *
	   RMS of Response Coupling Change:   2.870E-04 

	              *** Macro Iteration 3 ***
	            Cumulant Response Iterations
	*   1      2.817E-12         7.405E-05       S    *
	*   2      2.817E-12         3.080E-05       S    *
	*   3      2.817E-12         1.750E-05       S/E  *
	*   4      2.817E-12         6.607E-06       S/E  *
	*   5      2.817E-12         3.088E-06       S/E  *
	*   6      2.817E-12         8.749E-07       S/E  *
	*   7      2.817E-12         2.045E-07       S/E  *
	*   8      2.817E-12         7.489E-08       S/E  *
	*   9      2.817E-12         1.956E-08       S/E  *
	*  10      2.817E-12         5.010E-09       S/E  *
	*  11      2.817E-12         1.613E-09       S/E  *
	*  12      2.817E-12         5.661E-10       S/E  *
	*  13      2.817E-12         2.759E-10       S/E  *
	*  14      2.817E-12         1.213E-10       S/E  *
	*  15      2.817E-12         5.680E-11       S/E  *
	*  16      2.817E-12         2.718E-11       S/E  *
	*  17      2.817E-12         1.071E-11       S/E  *
	*  18      2.817E-12         4.423E-12       S/E  *
	            Orbital Response Iterations
	*   1      5.260E-04         4.423E-12       S    *
	*   2      1.588E-04         4.423E-12       S    *
	*   3      5.490E-05         4.423E-12       S/E  *
	*   4      1.357E-05         4.423E-12       S/E  *
	*   5      2.404E-06         4.423E-12       S/E  *
	*   6      3.319E-07         4.423E-12       S/E  *
	*   7      4.482E-08         4.423E-12       S/E  *
	*   8      1.366E-08         4.423E-12       S/E  *
	*   9      3.628E-09         4.423E-12       S/E  *
	*  10      5.193E-10         4.423E-12       S/E  *
	*  11      1.336E-10         4.423E-12       S/E  *
	*  12      2.314E-11         4.423E-12       S/E  *
	*  13      7.898E-12         4.423E-12       S/E  *
	   RMS of Response Coupling Change:   9.582E-07 

	              *** Macro Iteration 4 ***
	            Cumulant Response Iterations
	*   1      7.898E-12         2.733E-07       S    *
	*   2      7.898E-12         1.484E-07       S    *
	*   3      7.898E-12         1.019E-07       S/E  *
	*   4      7.898E-12         3.509E-08       S/E  *
	*   5      7.898E-12         1.374E-08       S/E  *
	*   6      7.898E-12         4.877E-09       S/E  *
	*   7      7.898E-12         1.660E-09       S/E  *
	*   8      7.898E-12         6.560E-10       S/E  *
	*   9      7.898E-12         1.568E-10       S/E  *
	*  10      7.898E-12         4.071E-11       S/E  *
	*  11      7.898E-12         1.242E-11       S/E  *
	*  12      7.898E-12         4.265E-12       S/E  *
	            Orbital Response Iterations
	*   1      2.028E-06         4.265E-12       S    *
	*   2      6.242E-07         4.265E-12       S    *
	*   3      2.286E-07         4.265E-12       S/E  *
	*   4      3.831E-08         4.265E-12       S/E  *
	*   5      4.307E-09         4.265E-12       S/E  *
	*   6      7.933E-10         4.265E-12       S/E  *
	*   7      2.052E-10         4.265E-12       S/E  *
	*   8      5.966E-11         4.265E-12       S/E  *
	*   9      1.293E-11         4.265E-12       S/E  *
	*  10      1.922E-12         4.265E-12       S/E  *
	   RMS of Response Coupling Change:   4.818E-09 

	              *** Macro Iteration 5 ***
	            Cumulant Response Iterations
	*   1      1.922E-12         1.459E-09       S    *
	*   2      1.922E-12         7.948E-10       S    *
	*   3      1.922E-12         5.532E-10       S/E  *
	*   4      1.922E-12         1.841E-10       S/E  *
	*   5      1.922E-12         7.314E-11       S/E  *
	*   6      1.922E-12         2.400E-11       S/E  *
	*   7      1.922E-12         1.152E-11       S/E  *
	*   8      1.922E-12         3.349E-12       S/E  *
	            Orbital Response Iterations
	*   1      1.263E-08         3.349E-12       S    *
	*   2      4.762E-09         3.349E-12       S    *
	*   3      1.972E-09         3.349E-12       S/E  *
	*   4      3.375E-10         3.349E-12       S/E  *
	*   5      3.729E-11         3.349E-12       S/E  *
	*   6      4.938E-12         3.349E-12       S/E  *
	   RMS of Response Coupling Change:   3.893E-11 

	              *** Macro Iteration 6 ***
	            Cumulant Response Iterations
	*   1      4.938E-12         1.129E-11       S    *
	*   2      4.938E-12         5.947E-12       S    *
	            Orbital Response Iterations
	*   1      8.225E-11         5.947E-12       S    *
	*   2      3.321E-11         5.947E-12       S    *
	*   3      1.426E-11         5.947E-12       S/E  *
	*   4      2.200E-12         5.947E-12       S/E  *
	   RMS of Response Coupling Change:   2.652E-13 
	*=================================================*

	   DCFT response equations converged.
	 OPDM trace: 	 16.000000		Deviation: 	0.0000e+00
	 TPDM trace: 	239.984847		Deviation: 	1.5153e-02

*** tstop() called on psinet at Mon May 15 15:35:20 2017
Module time:
	user time   =       0.99 seconds =       0.02 minutes
	system time =       0.58 seconds =       0.01 minutes
	total time  =          2 seconds =       0.03 minutes
Total time:
	user time   =       2.22 seconds =       0.04 minutes
	system time =       1.53 seconds =       0.03 minutes
	total time  =          4 seconds =       0.07 minutes
  Cartesian Displacement SALCs
  By SALC:
  Number of SALCs: 1, nirreps: 1
  Project out translations: False
  Project out rotations: False
	irrep = 0, ncomponent = 2
		0: atom 0, direction z, coef 0.707107
		1: atom 1, direction z, coef -0.707107

  By Atomic Center:
  Number of atomic centers: 2
   Atomic Center 0:
	x component, size = 0
	y component, size = 0
	z component, size = 1
		0: salc 0, irrep 0, coef 0.707107
   Atomic Center 1:
	x component, size = 0
	y component, size = 0
	z component, size = 1
		0: salc 0, irrep 0, coef -0.707107

    Molecular point group: d2h
    Full point group: D_inf_h

    Geometry (in Bohr), charge = 0, multiplicity = 3:

       Center              X                  Y                   Z       
    ------------   -----------------  -----------------  -----------------
           O          0.000000000000     0.000000000000    -1.200000000000
           O          0.000000000000     0.000000000000     1.200000000000

	Presorting MO-basis TPDMs.
	Sorting File: MO TPDM (AA|AA) nbuckets = 1
	Sorting File: MO TPDM (AA|aa) nbuckets = 1
	Sorting File: MO TPDM (aa|aa) nbuckets = 1
	Starting first half-transformation.
	Sorting half-transformed TPDMs.
	First half integral transformation complete.


  -Nuclear Repulsion Energy 1st Derivatives:
     Atom            X                  Y                   Z
    ------   -----------------  -----------------  -----------------
       1        0.000000000000     0.000000000000    11.111111111111
       2        0.000000000000     0.000000000000   -11.111111111111


  -One-electron contribution to gradient:
     Atom            X                  Y                   Z
    ------   -----------------  -----------------  -----------------
       1        0.000000000000     0.000000000000   -22.757827056816
       2        0.000000000000     0.000000000000    22.757827056816


  -Lagrangian contribution to gradient:
     Atom            X                  Y                   Z
    ------   -----------------  -----------------  -----------------
       1        0.000000000000     0.000000000000     0.476307904778
       2        0.000000000000     0.000000000000    -0.476307904778


  -Two-electron contribution to gradient:
     Atom            X                  Y                   Z
    ------   -----------------  -----------------  -----------------
       1        0.000000000000     0.000000000000    11.105267580039
       2        0.000000000000     0.000000000000   -11.105267580039


  -Total gradient:
     Atom            X                  Y                   Z
    ------   -----------------  -----------------  -----------------
       1        0.000000000000     0.000000000000    -0.065140460887
       2        0.000000000000     0.000000000000     0.065140460887

	DC-06 analytic gradient (simultaneous, ao_basis=none).............PASSED
gradient() will perform analytic gradient computation.

*** tstart() called on psinet
*** at Mon May 15 15:35:20 2017

   => Loading Basis Set <=

    Name: CC-PVDZ
    Role: ORBITAL
    Keyword: BASIS
    atoms 1-2 entry O          line   190 file /home/psilocaluser/gits/hrw-direct/objdir4/stage/usr/local/psi4/share/psi4/basis/cc-pvdz.gbs 


         ---------------------------------------------------------
                                   SCF
            by Justin Turney, Rob Parrish, and Andy Simmonett
                              UHF Reference
                        1 Threads,    500 MiB Core
         ---------------------------------------------------------

  ==> Geometry <==

    Molecular point group: d2h
    Full point group: D_inf_h

    Geometry (in Bohr), charge = 0, multiplicity = 3:

       Center              X                  Y                   Z               Mass       
    ------------   -----------------  -----------------  -----------------  -----------------
           O          0.000000000000     0.000000000000    -1.200000000000    15.994914619560
           O          0.000000000000     0.000000000000     1.200000000000    15.994914619560

  Running in d2h symmetry.

  Rotational constants: A = ************  B =      1.30683  C =      1.30683 [cm^-1]
  Rotational constants: A = ************  B =  39177.84286  C =  39177.84286 [MHz]
  Nuclear repulsion =   26.666666666666668

  Charge       = 0
  Multiplicity = 3
  Electrons    = 16
  Nalpha       = 9
  Nbeta        = 7

  ==> Algorithm <==

  SCF Algorithm Type is PK.
  DIIS enabled.
  MOM disabled.
  Fractional occupation disabled.
  Guess Type is GWH.
  Energy threshold   = 1.00e-10
  Density threshold  = 1.00e-10
  Integral threshold = 0.00e+00

  ==> Primary Basis <==

  Basis Set: CC-PVDZ
    Blend: CC-PVDZ
    Number of shells: 12
    Number of basis function: 28
    Number of Cartesian functions: 30
    Spherical Harmonics?: true
    Max angular momentum: 2

  ==> Pre-Iterations <==

   -------------------------------------------------------
    Irrep   Nso     Nmo     Nalpha   Nbeta   Ndocc  Nsocc
   -------------------------------------------------------
     Ag         7       7       0       0       0       0
     B1g        1       1       0       0       0       0
     B2g        3       3       0       0       0       0
     B3g        3       3       0       0       0       0
     Au         1       1       0       0       0       0
     B1u        7       7       0       0       0       0
     B2u        3       3       0       0       0       0
     B3u        3       3       0       0       0       0
   -------------------------------------------------------
    Total      28      28       9       7       7       2
   -------------------------------------------------------

  ==> Integral Setup <==

  Using in-core PK algorithm.
   Calculation information:
      Number of atoms:                   2
      Number of AO shells:              12
      Number of primitives:             44
      Number of atomic orbitals:        30
      Number of basis functions:        28

      Integral cutoff                 1.00e-12
      Number of threads:                 1

  Performing in-core PK
  Using 165242 doubles for integral storage.
  We computed 3081 shell quartets total.
  Whereas there are 3081 unique shell quartets.
  ==> DiskJK: Disk-Based J/K Matrices <==

    J tasked:                  Yes
    K tasked:                  Yes
    wK tasked:                  No
    Memory (MB):               375
    Schwarz Cutoff:          1E-12

    OpenMP threads:              1
  Minimum eigenvalue in the overlap matrix is 2.3545947612E-02.
  Using Symmetric Orthogonalization.

  SCF Guess: Generalized Wolfsberg-Helmholtz.

  ==> Iterations <==

                        Total Energy        Delta E     RMS |[F,P]|

   @UHF iter   1:  -148.90501113693168   -1.48905e+02   1.96041e-01 
   @UHF iter   2:  -149.57574013408112   -6.70729e-01   2.61228e-02 DIIS
   @UHF iter   3:  -149.60920401784750   -3.34639e-02   6.58204e-03 DIIS
   @UHF iter   4:  -149.61154811580676   -2.34410e-03   8.72560e-04 DIIS
   @UHF iter   5:  -149.61161739532574   -6.92795e-05   1.71781e-04 DIIS
   @UHF iter   6:  -149.61162149875844   -4.10343e-06   4.22123e-05 DIIS
   @UHF iter   7:  -149.61162172242709   -2.23669e-07   6.28776e-06 DIIS
   @UHF iter   8:  -149.61162172649466   -4.06757e-09   7.48006e-07 DIIS
   @UHF iter   9:  -149.61162172655611   -6.14477e-11   1.10366e-07 DIIS
   @UHF iter  10:  -149.61162172655730   -1.19371e-12   6.40889e-09 DIIS
   @UHF iter  11:  -149.61162172655725    5.68434e-14   1.48516e-09 DIIS
   @UHF iter  12:  -149.61162172655730   -5.68434e-14   3.58271e-10 DIIS
   @UHF iter  13:  -149.61162172655730    0.00000e+00   4.51500e-11 DIIS

  ==> Post-Iterations <==

   @Spin Contamination Metric:   3.623073585E-02
   @S^2 Expected:                2.000000000E+00
   @S^2 Observed:                2.036230736E+00
   @S   Expected:                1.000000000E+00
   @S   Observed:                1.000000000E+00

    Orbital Energies (a.u.)
    -----------------------

    Alpha Occupied:                                                       

       1Ag   -20.762433     1B1u  -20.761926     2Ag    -1.670200  
       2B1u   -1.223672     1B2u   -0.817654     1B3u   -0.817654  
       3Ag    -0.737394     1B3g   -0.572679     1B2g   -0.572679  

    Alpha Virtual:                                                        

       3B1u    0.350340     2B3u    1.051937     2B2u    1.051937  
       4B1u    1.052773     2B3g    1.162735     2B2g    1.162735  
       4Ag     1.171000     5Ag     1.335918     5B1u    1.909339  
       3B3u    2.384312     3B2u    2.384312     6Ag     2.658410  
       1B1g    2.658410     6B1u    2.903771     1Au     2.903771  
       7Ag     2.974713     3B3g    3.529465     3B2g    3.529465  
       7B1u    4.159778  

    Beta Occupied:                                                        

       1Ag   -20.707327     1B1u  -20.706365     2Ag    -1.532154  
       2B1u   -1.014796     3Ag    -0.682086     1B2u   -0.545349  
       1B3u   -0.545349  

    Beta Virtual:                                                         

       1B3g    0.089037     1B2g    0.089037     3B1u    0.428473  
       4B1u    1.079878     2B3u    1.180178     2B2u    1.180178  
       4Ag     1.195187     2B3g    1.287069     2B2g    1.287069  
       5Ag     1.363695     5B1u    1.959634     3B2u    2.454048  
       3B3u    2.454048     6Ag     2.779141     1B1g    2.779141  
       7Ag     3.046333     6B1u    3.051328     1Au     3.051328  
       3B3g    3.606844     3B2g    3.606844     7B1u    4.208746  

    Final Occupation by Irrep:
             Ag   B1g   B2g   B3g    Au   B1u   B2u   B3u 
    DOCC [     3,    0,    0,    0,    0,    2,    1,    1 ]
    SOCC [     0,    0,    1,    1,    0,    0,    0,    0 ]

  Energy converged.

  @UHF Final Energy:  -149.61162172655730

   => Energetics <=

    Nuclear Repulsion Energy =             26.6666666666666679
    One-Electron Energy =                -258.8868599943168647
    Two-Electron Energy =                  82.6085716010928905
    DFT Exchange-Correlation Energy =       0.0000000000000000
    Empirical Dispersion Energy =           0.0000000000000000
    PCM Polarization Energy =               0.0000000000000000
    EFP Energy =                            0.0000000000000000
    Total Energy =                       -149.6116217265573027


  UHF NO Occupations:
  HONO-2 :    1B3u 1.9930069
  HONO-1 :    1B3g 1.0000000
  HONO-0 :    1B2g 1.0000000
  LUNO+0 :    2B3u 0.0069931
  LUNO+1 :    2B2u 0.0069931
  LUNO+2 :    3B1u 0.0032640
  LUNO+3 :    4 Ag 0.0008115



Properties will be evaluated at   0.000000,   0.000000,   0.000000 Bohr

Properties computed using the SCF density matrix

  Nuclear Dipole Moment: (a.u.)
     X:     0.0000      Y:     0.0000      Z:     0.0000

  Electronic Dipole Moment: (a.u.)
     X:     0.0000      Y:     0.0000      Z:     0.0000

  Dipole Moment: (a.u.)
     X:     0.0000      Y:     0.0000      Z:     0.0000     Total:     0.0000

  Dipole Moment: (Debye)
     X:     0.0000      Y:     0.0000      Z:     0.0000     Total:     0.0000


*** tstop() called on psinet at Mon May 15 15:35:20 2017
Module time:
	user time   =       0.20 seconds =       0.00 minutes
	system time =       0.03 seconds =       0.00 minutes
	total time  =          0 seconds =       0.00 minutes
Total time:
	user time   =       2.62 seconds =       0.04 minutes
	system time =       1.57 seconds =       0.03 minutes
	total time  =          4 seconds =       0.07 minutes
 MINTS: Wrapper to libmints.
   by Justin Turney

   Calculation information:
      Number of threads:                 1
      Number of atoms:                   2
      Number of AO shells:              12
      Number of SO shells:               6
      Number of primitives:             44
      Number of atomic orbitals:        30
      Number of basis functions:        28

      Number of irreps:                  8
      Integral cutoff                 0.00e+00
      Number of functions per irrep: [   7    1    3    3    1    7    3    3 ]

 OEINTS: Overlap, kinetic, potential, dipole, and quadrupole integrals
         stored in file 35.

      Computing two-electron integrals...done
      Computed 11509 non-zero two-electron integrals.
        Stored in file 33.


*** tstart() called on psinet
*** at Mon May 15 15:35:20 2017



	***********************************************************************************
	*                        Density Cumulant Functional Theory                       *
	*                by Alexander Sokolov, Andy Simmonett, and Xiao Wang              *
	***********************************************************************************


	Transforming two-electron integrals (transformation type: unrestricted)...
	Computing MP2 amplitude guess...

	*Total Hartree-Fock energy        = -149.611621726557303
	 Alpha - Alpha MP2 energy         =   -0.045882388934891
	 Alpha - Beta  MP2 energy         =   -0.250883524918073
	 Beta  - Beta  MP2 energy         =   -0.067265068277251
	 Total MP2 correlation energy     =   -0.364030982130215
	*Total MP2 energy                 = -149.975652708687505

	DCFT Functional:    		 DC-06
	DCFT Type:          		 CONV
	Algorithm:          		 QC
	AO-Basis Integrals: 		 NONE
	QC type:            		 SIMULTANEOUS
	QC coupling:        		 TRUE

	*==========================================================================================*
	* Cycle   RMS Orb Grad   RMS Lambda Error    delta E         Total Energy     NI(NR)  DIIS *
	*------------------------------------------------------------------------------------------*
About to Copied C matrices
Copied C matrices
Compute scf_error_vector
	* 1        1.248e-03         5.431e-03      8.364e-03   -149.967289116576694    15    S   *
	* 2        7.914e-05         3.171e-04     -1.462e-02   -149.981910750960196    13    S   *
	* 3        3.137e-06         5.219e-05     -5.500e-05   -149.981965749834899    12    S   *
	* 4        6.501e-07         9.548e-06     -8.477e-07   -149.981966597485382    11    S/E *
	* 5        2.358e-08         4.513e-07     -2.493e-07   -149.981966846835320     8    S/E *
	* 6        7.563e-11         6.583e-10     -2.950e-09   -149.981966849785380     2    S/E *
	* 7        1.246e-11         4.324e-11     -4.195e-11   -149.981966849827330     1    S/E *
	* 8        5.137e-12         1.766e-11      4.491e-12   -149.981966849822840     1    S/E *
	* 9        1.525e-12         6.062e-12      2.842e-12   -149.981966849819997     1    S/E *
	*==========================================================================================*

	*   DC-06 SCF Energy                                 =    -149.209763499979346
	*   DC-06 Lambda Energy                              =      -0.772203349840665
	*   DC-06 Total Energy                               =    -149.981966849819997

	Orbital occupations:
		Alpha occupied orbitals
		   1B1u      1.0000     1Ag       1.0000     2Ag       0.9946     2B1u      0.9919  
		   1B3u      0.9893     1B2u      0.9893     1B2g      0.9863     1B3g      0.9863  
		   3Ag       0.9677  

		Beta occupied orbitals
		   1Ag       1.0000     1B1u      1.0000     2Ag       0.9910     2B1u      0.9855  
		   3Ag       0.9715     1B2u      0.9481     1B3u      0.9481  

		Alpha virtual orbitals
		   3B1u      0.0330     2B2u      0.0086     2B3u      0.0086     2B2g      0.0055  
		   2B3g      0.0055     4Ag       0.0051     4B1u      0.0039     5Ag       0.0028  
		   1B1g      0.0028     6Ag       0.0028     3B2u      0.0027     3B3u      0.0027  
		   5B1u      0.0026     1Au       0.0026     7Ag       0.0014     6B1u      0.0013  
		   3B3g      0.0012     3B2g      0.0012     7B1u      0.0002  

		Beta virtual orbitals
		   1B2g      0.0475     1B3g      0.0475     3B1u      0.0249     4Ag       0.0049  
		   2B2u      0.0042     2B3u      0.0042     4B1u      0.0040     5Ag       0.0030  
		   3B3u      0.0021     3B2u      0.0021     2B3g      0.0016     2B2g      0.0016  
		   6Ag       0.0014     1B1g      0.0014     7Ag       0.0011     5B1u      0.0011  
		   6B1u      0.0008     1Au       0.0008     3B3g      0.0007     3B2g      0.0007  
		   7B1u      0.0002  


*** tstop() called on psinet at Mon May 15 15:35:22 2017
Module time:
	user time   =       1.22 seconds =       0.02 minutes
	system time =       0.79 seconds =       0.01 minutes
	total time  =          2 seconds =       0.03 minutes
Total time:
	user time   =       3.90 seconds =       0.07 minutes
	system time =       2.36 seconds =       0.04 minutes
	total time  =          6 seconds =       0.10 minutes

*** tstart() called on psinet
*** at Mon May 15 15:35:22 2017



	***********************************************************************************
	*                           DCFT Analytic Gradients Code                          *
	*                by Alexander Sokolov, Andy Simmonett, and Xiao Wang              *
	***********************************************************************************

	*=================================================*
	* Cycle  RMS Orb. Resp.   RMS Cumul. Resp.   DIIS *
	*-------------------------------------------------*
	              *** Macro Iteration 1 ***
	            Orbital Response Iterations
	*   1      3.116E-02         6.062E-12            *
	*   2      8.872E-03         6.062E-12       S    *
	*   3      2.707E-03         6.062E-12       S    *
	*   4      8.727E-04         6.062E-12       S/E  *
	*   5      9.514E-05         6.062E-12       S/E  *
	*   6      6.819E-06         6.062E-12       S/E  *
	*   7      5.055E-07         6.062E-12       S/E  *
	*   8      1.218E-07         6.062E-12       S/E  *
	*   9      3.573E-08         6.062E-12       S/E  *
	*  10      9.435E-09         6.062E-12       S/E  *
	*  11      6.230E-10         6.062E-12       S/E  *
	*  12      7.095E-11         6.062E-12       S/E  *
	*  13      2.122E-11         6.062E-12       S/E  *
	*  14      6.774E-12         6.062E-12       S/E  *
	   RMS of Response Coupling Change:   3.050E-04 

	              *** Macro Iteration 2 ***
	            Cumulant Response Iterations
	*   1      6.774E-12         8.050E-05       S    *
	*   2      6.774E-12         3.695E-05       S    *
	*   3      6.774E-12         2.376E-05       S/E  *
	*   4      6.774E-12         9.384E-06       S/E  *
	*   5      6.774E-12         3.475E-06       S/E  *
	*   6      6.774E-12         1.092E-06       S/E  *
	*   7      6.774E-12         3.799E-07       S/E  *
	*   8      6.774E-12         1.670E-07       S/E  *
	*   9      6.774E-12         4.441E-08       S/E  *
	*  10      6.774E-12         1.085E-08       S/E  *
	*  11      6.774E-12         4.041E-09       S/E  *
	*  12      6.774E-12         1.375E-09       S/E  *
	*  13      6.774E-12         5.538E-10       S/E  *
	*  14      6.774E-12         2.479E-10       S/E  *
	*  15      6.774E-12         1.395E-10       S/E  *
	*  16      6.774E-12         7.159E-11       S/E  *
	*  17      6.774E-12         2.967E-11       S/E  *
	*  18      6.774E-12         1.319E-11       S/E  *
	*  19      6.774E-12         4.931E-12       S/E  *
	            Orbital Response Iterations
	*   1      1.185E-01         4.931E-12            *
	*   2      3.977E-02         4.931E-12            *
	*   3      1.208E-02         4.931E-12            *
	*   4      4.463E-03         4.931E-12       S    *
	*   5      1.896E-03         4.931E-12       S    *
	*   6      8.462E-04         4.931E-12       S/E  *
	*   7      4.642E-05         4.931E-12       S/E  *
	*   8      5.176E-06         4.931E-12       S/E  *
	*   9      9.615E-07         4.931E-12       S/E  *
	*  10      1.161E-07         4.931E-12       S/E  *
	*  11      1.296E-08         4.931E-12       S/E  *
	*  12      2.463E-09         4.931E-12       S/E  *
	*  13      3.627E-10         4.931E-12       S/E  *
	*  14      1.340E-10         4.931E-12       S/E  *
	*  15      4.983E-11         4.931E-12       S/E  *
	*  16      1.342E-11         4.931E-12       S/E  *
	*  17      2.807E-12         4.931E-12       S/E  *
	   RMS of Response Coupling Change:   2.870E-04 

	              *** Macro Iteration 3 ***
	            Cumulant Response Iterations
	*   1      2.807E-12         7.428E-05       S    *
	*   2      2.807E-12         3.106E-05       S    *
	*   3      2.807E-12         1.766E-05       S/E  *
	*   4      2.807E-12         6.578E-06       S/E  *
	*   5      2.807E-12         3.105E-06       S/E  *
	*   6      2.807E-12         8.858E-07       S/E  *
	*   7      2.807E-12         2.074E-07       S/E  *
	*   8      2.807E-12         7.640E-08       S/E  *
	*   9      2.807E-12         2.003E-08       S/E  *
	*  10      2.807E-12         5.119E-09       S/E  *
	*  11      2.807E-12         1.679E-09       S/E  *
	*  12      2.807E-12         5.992E-10       S/E  *
	*  13      2.807E-12         2.924E-10       S/E  *
	*  14      2.807E-12         1.271E-10       S/E  *
	*  15      2.807E-12         5.921E-11       S/E  *
	*  16      2.807E-12         2.892E-11       S/E  *
	*  17      2.807E-12         1.144E-11       S/E  *
	*  18      2.807E-12         4.634E-12       S/E  *
	            Orbital Response Iterations
	*   1      5.263E-04         4.634E-12       S    *
	*   2      1.589E-04         4.634E-12       S    *
	*   3      5.498E-05         4.634E-12       S/E  *
	*   4      1.357E-05         4.634E-12       S/E  *
	*   5      2.404E-06         4.634E-12       S/E  *
	*   6      3.310E-07         4.634E-12       S/E  *
	*   7      4.448E-08         4.634E-12       S/E  *
	*   8      1.348E-08         4.634E-12       S/E  *
	*   9      3.605E-09         4.634E-12       S/E  *
	*  10      5.208E-10         4.634E-12       S/E  *
	*  11      1.342E-10         4.634E-12       S/E  *
	*  12      2.327E-11         4.634E-12       S/E  *
	*  13      7.947E-12         4.634E-12       S/E  *
	   RMS of Response Coupling Change:   9.582E-07 

	              *** Macro Iteration 4 ***
	            Cumulant Response Iterations
	*   1      7.947E-12         2.732E-07       S    *
	*   2      7.947E-12         1.488E-07       S    *
	*   3      7.947E-12         1.023E-07       S/E  *
	*   4      7.947E-12         3.505E-08       S/E  *
	*   5      7.947E-12         1.382E-08       S/E  *
	*   6      7.947E-12         4.912E-09       S/E  *
	*   7      7.947E-12         1.676E-09       S/E  *
	*   8      7.947E-12         6.644E-10       S/E  *
	*   9      7.947E-12         1.596E-10       S/E  *
	*  10      7.947E-12         4.150E-11       S/E  *
	*  11      7.947E-12         1.267E-11       S/E  *
	*  12      7.947E-12         4.333E-12       S/E  *
	            Orbital Response Iterations
	*   1      2.029E-06         4.333E-12       S    *
	*   2      6.244E-07         4.333E-12       S    *
	*   3      2.286E-07         4.333E-12       S/E  *
	*   4      3.826E-08         4.333E-12       S/E  *
	*   5      4.287E-09         4.333E-12       S/E  *
	*   6      7.722E-10         4.333E-12       S/E  *
	*   7      2.011E-10         4.333E-12       S/E  *
	*   8      5.796E-11         4.333E-12       S/E  *
	*   9      1.279E-11         4.333E-12       S/E  *
	*  10      1.920E-12         4.333E-12       S/E  *
	   RMS of Response Coupling Change:   4.817E-09 

	              *** Macro Iteration 5 ***
	            Cumulant Response Iterations
	*   1      1.920E-12         1.461E-09       S    *
	*   2      1.920E-12         7.996E-10       S    *
	*   3      1.920E-12         5.571E-10       S/E  *
	*   4      1.920E-12         1.831E-10       S/E  *
	*   5      1.920E-12         7.358E-11       S/E  *
	*   6      1.920E-12         2.419E-11       S/E  *
	*   7      1.920E-12         1.160E-11       S/E  *
	*   8      1.920E-12         3.398E-12       S/E  *
	            Orbital Response Iterations
	*   1      1.264E-08         3.398E-12       S    *
	*   2      4.763E-09         3.398E-12       S    *
	*   3      1.972E-09         3.398E-12       S/E  *
	*   4      3.369E-10         3.398E-12       S/E  *
	*   5      3.724E-11         3.398E-12       S/E  *
	*   6      4.925E-12         3.398E-12       S/E  *
	   RMS of Response Coupling Change:   3.893E-11 

	              *** Macro Iteration 6 ***
	            Cumulant Response Iterations
	*   1      4.925E-12         1.129E-11       S    *
	*   2      4.925E-12         5.979E-12       S    *
	            Orbital Response Iterations
	*   1      8.212E-11         5.979E-12       S    *
	*   2      3.316E-11         5.979E-12       S    *
	*   3      1.424E-11         5.979E-12       S/E  *
	*   4      2.195E-12         5.979E-12       S/E  *
	   RMS of Response Coupling Change:   2.647E-13 
	*=================================================*

	   DCFT response equations converged.
	 OPDM trace: 	 16.000000		Deviation: 	0.0000e+00
	 TPDM trace: 	239.984847		Deviation: 	1.5153e-02

*** tstop() called on psinet at Mon May 15 15:35:24 2017
Module time:
	user time   =       1.02 seconds =       0.02 minutes
	system time =       0.50 seconds =       0.01 minutes
	total time  =          2 seconds =       0.03 minutes
Total time:
	user time   =       4.92 seconds =       0.08 minutes
	system time =       2.86 seconds =       0.05 minutes
	total time  =          8 seconds =       0.13 minutes
  Cartesian Displacement SALCs
  By SALC:
  Number of SALCs: 1, nirreps: 1
  Project out translations: False
  Project out rotations: False
	irrep = 0, ncomponent = 2
		0: atom 0, direction z, coef 0.707107
		1: atom 1, direction z, coef -0.707107

  By Atomic Center:
  Number of atomic centers: 2
   Atomic Center 0:
	x component, size = 0
	y component, size = 0
	z component, size = 1
		0: salc 0, irrep 0, coef 0.707107
   Atomic Center 1:
	x component, size = 0
	y component, size = 0
	z component, size = 1
		0: salc 0, irrep 0, coef -0.707107

    Molecular point group: d2h
    Full point group: D_inf_h

    Geometry (in Bohr), charge = 0, multiplicity = 3:

       Center              X                  Y                   Z       
    ------------   -----------------  -----------------  -----------------
           O          0.000000000000     0.000000000000    -1.200000000000
           O          0.000000000000     0.000000000000     1.200000000000

	Presorting MO-basis TPDMs.
	Sorting File: MO TPDM (AA|AA) nbuckets = 1
	Sorting File: MO TPDM (AA|aa) nbuckets = 1
	Sorting File: MO TPDM (aa|aa) nbuckets = 1
	Starting first half-transformation.
	Sorting half-transformed TPDMs.
	First half integral transformation complete.


  -Nuclear Repulsion Energy 1st Derivatives:
     Atom            X                  Y                   Z
    ------   -----------------  -----------------  -----------------
       1        0.000000000000     0.000000000000    11.111111111111
       2        0.000000000000     0.000000000000   -11.111111111111


  -One-electron contribution to gradient:
     Atom            X                  Y                   Z
    ------   -----------------  -----------------  -----------------
       1        0.000000000000     0.000000000000   -22.757827056407
       2        0.000000000000     0.000000000000    22.757827056407


  -Lagrangian contribution to gradient:
     Atom            X                  Y                   Z
    ------   -----------------  -----------------  -----------------
       1        0.000000000000     0.000000000000     0.476307904781
       2        0.000000000000     0.000000000000    -0.476307904781


  -Two-electron contribution to gradient:
     Atom            X                  Y                   Z
    ------   -----------------  -----------------  -----------------
       1        0.000000000000     0.000000000000    11.105267579680
       2        0.000000000000     0.000000000000   -11.105267579680


  -Total gradient:
     Atom            X                  Y                   Z
    ------   -----------------  -----------------  -----------------
       1        0.000000000000     0.000000000000    -0.065140460836
       2        0.000000000000     0.000000000000     0.065140460836

	DC-06 analytic gradient (qc, ao_basis=none).......................PASSED
gradient() will perform analytic gradient computation.

*** tstart() called on psinet
*** at Mon May 15 15:35:24 2017

   => Loading Basis Set <=

    Name: CC-PVDZ
    Role: ORBITAL
    Keyword: BASIS
    atoms 1-2 entry O          line   190 file /home/psilocaluser/gits/hrw-direct/objdir4/stage/usr/local/psi4/share/psi4/basis/cc-pvdz.gbs 


         ---------------------------------------------------------
                                   SCF
            by Justin Turney, Rob Parrish, and Andy Simmonett
                              UHF Reference
                        1 Threads,    500 MiB Core
         ---------------------------------------------------------

  ==> Geometry <==

    Molecular point group: d2h
    Full point group: D_inf_h

    Geometry (in Bohr), charge = 0, multiplicity = 3:

       Center              X                  Y                   Z               Mass       
    ------------   -----------------  -----------------  -----------------  -----------------
           O          0.000000000000     0.000000000000    -1.200000000000    15.994914619560
           O          0.000000000000     0.000000000000     1.200000000000    15.994914619560

  Running in d2h symmetry.

  Rotational constants: A = ************  B =      1.30683  C =      1.30683 [cm^-1]
  Rotational constants: A = ************  B =  39177.84286  C =  39177.84286 [MHz]
  Nuclear repulsion =   26.666666666666668

  Charge       = 0
  Multiplicity = 3
  Electrons    = 16
  Nalpha       = 9
  Nbeta        = 7

  ==> Algorithm <==

  SCF Algorithm Type is PK.
  DIIS enabled.
  MOM disabled.
  Fractional occupation disabled.
  Guess Type is GWH.
  Energy threshold   = 1.00e-10
  Density threshold  = 1.00e-10
  Integral threshold = 0.00e+00

  ==> Primary Basis <==

  Basis Set: CC-PVDZ
    Blend: CC-PVDZ
    Number of shells: 12
    Number of basis function: 28
    Number of Cartesian functions: 30
    Spherical Harmonics?: true
    Max angular momentum: 2

  ==> Pre-Iterations <==

   -------------------------------------------------------
    Irrep   Nso     Nmo     Nalpha   Nbeta   Ndocc  Nsocc
   -------------------------------------------------------
     Ag         7       7       0       0       0       0
     B1g        1       1       0       0       0       0
     B2g        3       3       0       0       0       0
     B3g        3       3       0       0       0       0
     Au         1       1       0       0       0       0
     B1u        7       7       0       0       0       0
     B2u        3       3       0       0       0       0
     B3u        3       3       0       0       0       0
   -------------------------------------------------------
    Total      28      28       9       7       7       2
   -------------------------------------------------------

  ==> Integral Setup <==

  Using in-core PK algorithm.
   Calculation information:
      Number of atoms:                   2
      Number of AO shells:              12
      Number of primitives:             44
      Number of atomic orbitals:        30
      Number of basis functions:        28

      Integral cutoff                 1.00e-12
      Number of threads:                 1

  Performing in-core PK
  Using 165242 doubles for integral storage.
  We computed 3081 shell quartets total.
  Whereas there are 3081 unique shell quartets.
  ==> DiskJK: Disk-Based J/K Matrices <==

    J tasked:                  Yes
    K tasked:                  Yes
    wK tasked:                  No
    Memory (MB):               375
    Schwarz Cutoff:          1E-12

    OpenMP threads:              1
  Minimum eigenvalue in the overlap matrix is 2.3545947612E-02.
  Using Symmetric Orthogonalization.

  SCF Guess: Generalized Wolfsberg-Helmholtz.

  ==> Iterations <==

                        Total Energy        Delta E     RMS |[F,P]|

   @UHF iter   1:  -148.90501113693168   -1.48905e+02   1.96041e-01 
   @UHF iter   2:  -149.57574013408112   -6.70729e-01   2.61228e-02 DIIS
   @UHF iter   3:  -149.60920401784750   -3.34639e-02   6.58204e-03 DIIS
   @UHF iter   4:  -149.61154811580676   -2.34410e-03   8.72560e-04 DIIS
   @UHF iter   5:  -149.61161739532574   -6.92795e-05   1.71781e-04 DIIS
   @UHF iter   6:  -149.61162149875844   -4.10343e-06   4.22123e-05 DIIS
   @UHF iter   7:  -149.61162172242709   -2.23669e-07   6.28776e-06 DIIS
   @UHF iter   8:  -149.61162172649466   -4.06757e-09   7.48006e-07 DIIS
   @UHF iter   9:  -149.61162172655611   -6.14477e-11   1.10366e-07 DIIS
   @UHF iter  10:  -149.61162172655730   -1.19371e-12   6.40889e-09 DIIS
   @UHF iter  11:  -149.61162172655725    5.68434e-14   1.48516e-09 DIIS
   @UHF iter  12:  -149.61162172655725    0.00000e+00   3.58271e-10 DIIS
   @UHF iter  13:  -149.61162172655730   -5.68434e-14   4.51503e-11 DIIS

  ==> Post-Iterations <==

   @Spin Contamination Metric:   3.623073585E-02
   @S^2 Expected:                2.000000000E+00
   @S^2 Observed:                2.036230736E+00
   @S   Expected:                1.000000000E+00
   @S   Observed:                1.000000000E+00

    Orbital Energies (a.u.)
    -----------------------

    Alpha Occupied:                                                       

       1Ag   -20.762433     1B1u  -20.761926     2Ag    -1.670200  
       2B1u   -1.223672     1B2u   -0.817654     1B3u   -0.817654  
       3Ag    -0.737394     1B2g   -0.572679     1B3g   -0.572679  

    Alpha Virtual:                                                        

       3B1u    0.350340     2B2u    1.051937     2B3u    1.051937  
       4B1u    1.052773     2B2g    1.162735     2B3g    1.162735  
       4Ag     1.171000     5Ag     1.335918     5B1u    1.909339  
       3B3u    2.384312     3B2u    2.384312     6Ag     2.658410  
       1B1g    2.658410     6B1u    2.903771     1Au     2.903771  
       7Ag     2.974713     3B2g    3.529465     3B3g    3.529465  
       7B1u    4.159778  

    Beta Occupied:                                                        

       1Ag   -20.707327     1B1u  -20.706365     2Ag    -1.532154  
       2B1u   -1.014796     3Ag    -0.682086     1B2u   -0.545349  
       1B3u   -0.545349  

    Beta Virtual:                                                         

       1B2g    0.089037     1B3g    0.089037     3B1u    0.428473  
       4B1u    1.079878     2B2u    1.180178     2B3u    1.180178  
       4Ag     1.195187     2B2g    1.287069     2B3g    1.287069  
       5Ag     1.363695     5B1u    1.959634     3B3u    2.454048  
       3B2u    2.454048     6Ag     2.779141     1B1g    2.779141  
       7Ag     3.046333     6B1u    3.051328     1Au     3.051328  
       3B2g    3.606844     3B3g    3.606844     7B1u    4.208746  

    Final Occupation by Irrep:
             Ag   B1g   B2g   B3g    Au   B1u   B2u   B3u 
    DOCC [     3,    0,    0,    0,    0,    2,    1,    1 ]
    SOCC [     0,    0,    1,    1,    0,    0,    0,    0 ]

  Energy converged.

  @UHF Final Energy:  -149.61162172655730

   => Energetics <=

    Nuclear Repulsion Energy =             26.6666666666666679
    One-Electron Energy =                -258.8868599943168647
    Two-Electron Energy =                  82.6085716010929048
    DFT Exchange-Correlation Energy =       0.0000000000000000
    Empirical Dispersion Energy =           0.0000000000000000
    PCM Polarization Energy =               0.0000000000000000
    EFP Energy =                            0.0000000000000000
    Total Energy =                       -149.6116217265573027


  UHF NO Occupations:
  HONO-2 :    1B3u 1.9930069
  HONO-1 :    1B3g 1.0000000
  HONO-0 :    1B2g 1.0000000
  LUNO+0 :    2B2u 0.0069931
  LUNO+1 :    2B3u 0.0069931
  LUNO+2 :    3B1u 0.0032640
  LUNO+3 :    4 Ag 0.0008115



Properties will be evaluated at   0.000000,   0.000000,   0.000000 Bohr

Properties computed using the SCF density matrix

  Nuclear Dipole Moment: (a.u.)
     X:     0.0000      Y:     0.0000      Z:     0.0000

  Electronic Dipole Moment: (a.u.)
     X:     0.0000      Y:     0.0000      Z:     0.0000

  Dipole Moment: (a.u.)
     X:     0.0000      Y:     0.0000      Z:     0.0000     Total:     0.0000

  Dipole Moment: (Debye)
     X:     0.0000      Y:     0.0000      Z:     0.0000     Total:     0.0000


*** tstop() called on psinet at Mon May 15 15:35:24 2017
Module time:
	user time   =       0.20 seconds =       0.00 minutes
	system time =       0.01 seconds =       0.00 minutes
	total time  =          0 seconds =       0.00 minutes
Total time:
	user time   =       5.32 seconds =       0.09 minutes
	system time =       2.88 seconds =       0.05 minutes
	total time  =          8 seconds =       0.13 minutes
 MINTS: Wrapper to libmints.
   by Justin Turney

   Calculation information:
      Number of threads:                 1
      Number of atoms:                   2
      Number of AO shells:              12
      Number of SO shells:               6
      Number of primitives:             44
      Number of atomic orbitals:        30
      Number of basis functions:        28

      Number of irreps:                  8
      Integral cutoff                 0.00e+00
      Number of functions per irrep: [   7    1    3    3    1    7    3    3 ]

 OEINTS: Overlap, kinetic, potential, dipole, and quadrupole integrals
         stored in file 35.

      Computing two-electron integrals...done
      Computed 11509 non-zero two-electron integrals.
        Stored in file 33.


*** tstart() called on psinet
*** at Mon May 15 15:35:24 2017



	***********************************************************************************
	*                        Density Cumulant Functional Theory                       *
	*                by Alexander Sokolov, Andy Simmonett, and Xiao Wang              *
	***********************************************************************************


	Transforming two-electron integrals (transformation type: unrestricted)...
	Computing MP2 amplitude guess...

	*Total Hartree-Fock energy        = -149.611621726557303
	 Alpha - Alpha MP2 energy         =   -0.045882388934891
	 Alpha - Beta  MP2 energy         =   -0.250883524918073
	 Beta  - Beta  MP2 energy         =   -0.067265068277251
	 Total MP2 correlation energy     =   -0.364030982130215
	*Total MP2 energy                 = -149.975652708687505

	DCFT Functional:    		 ODC-06
	DCFT Type:          		 CONV
	Algorithm:          		 SIMULTANEOUS
	AO-Basis Integrals: 		 NONE

	*=================================================================================*
	* Cycle   Max Orb Grad    RMS Lambda Error   delta E        Total Energy     DIIS *
	*---------------------------------------------------------------------------------*
	* 1        7.884e-02         3.026e-03      1.868e-02   -149.956971909244544      *
	* 2        2.551e-02         1.028e-03     -6.549e-02   -150.022460169386164      *
	* 3        1.120e-02         4.109e-04      3.407e-02   -149.988387490400754      *
	* 4        6.181e-03         2.480e-04     -4.617e-03   -149.993004614739760  S   *
	* 5        2.841e-03         1.620e-04      4.157e-03   -149.988847835562922  S   *
	* 6        1.818e-03         1.183e-04      4.108e-05   -149.988806754475974  S   *
	* 7        1.057e-03         8.983e-05      6.750e-04   -149.988131728347270  S/E *
	* 8        1.576e-04         2.558e-05      1.843e-03   -149.986288442400792  S/E *
	* 9        1.955e-04         2.244e-05     -1.583e-03   -149.987871229514695  S/E *
	* 10       7.638e-05         9.453e-06      4.726e-04   -149.987398610214569  S/E *
	* 11       6.039e-05         6.572e-06      4.347e-05   -149.987355138772955  S/E *
	* 12       8.395e-06         1.421e-06      1.864e-04   -149.987168769717442  S/E *
	* 13       1.377e-05         1.491e-06     -4.123e-05   -149.987209995314032  S/E *
	* 14       3.010e-06         3.890e-07      5.590e-05   -149.987154090680860  S/E *
	* 15       2.476e-06         2.272e-07     -1.690e-05   -149.987170987546847  S/E *
	* 16       7.533e-07         9.021e-08      1.015e-05   -149.987160839704472  S/E *
	* 17       4.040e-07         3.762e-08     -3.724e-06   -149.987164564070525  S/E *
	* 18       2.091e-07         2.354e-08      1.923e-06   -149.987162641355553  S/E *
	* 19       1.534e-08         2.156e-09     -7.678e-07   -149.987163409129579  S/E *
	* 20       3.233e-08         3.450e-09      1.490e-07   -149.987163260108417  S/E *
	* 21       6.819e-09         7.451e-10     -8.856e-08   -149.987163348670663  S/E *
	* 22       8.492e-09         8.409e-10      6.386e-09   -149.987163342285157  S/E *
	* 23       5.692e-09         5.830e-10     -8.952e-09   -149.987163351236774  S/E *
	* 24       1.387e-09         1.411e-10     -1.513e-08   -149.987163366368719  S/E *
	* 25       1.667e-09         1.679e-10      1.036e-09   -149.987163365333146  S/E *
	* 26       2.728e-10         2.753e-11     -4.914e-09   -149.987163370247032  S/E *
	* 27       3.007e-10         3.037e-11      1.413e-10   -149.987163370105691  S/E *
	* 28       7.312e-11         7.340e-12     -1.302e-09   -149.987163371407519  S/E *
	* 29       9.636e-11         1.022e-11      6.095e-10   -149.987163370797987  S/E *
	* 30       3.796e-12         1.196e-12     -3.344e-10   -149.987163371132368  S/E *
	*=================================================================================*

	*   ODC-06 SCF Energy                                 =    -149.193090280891113
	*   ODC-06 Lambda Energy                              =      -0.794073090241262
	*   ODC-06 Total Energy                               =    -149.987163371132368

	Orbital occupations:
		Alpha occupied orbitals
		   1B1u      1.0000     1Ag       1.0000     2Ag       0.9946     2B1u      0.9918  
		   1B3u      0.9892     1B2u      0.9892     1B3g      0.9859     1B2g      0.9859  
		   3Ag       0.9674  

		Beta occupied orbitals
		   1Ag       1.0000     1B1u      1.0000     2Ag       0.9911     2B1u      0.9852  
		   3Ag       0.9708     1B3u      0.9427     1B2u      0.9427  

		Alpha virtual orbitals
		   3B1u      0.0334     2B2u      0.0089     2B3u      0.0089     2B2g      0.0056  
		   2B3g      0.0056     4Ag       0.0051     4B1u      0.0040     5Ag       0.0029  
		   6Ag       0.0028     1B1g      0.0028     3B2u      0.0027     3B3u      0.0027  
		   5B1u      0.0026     1Au       0.0026     7Ag       0.0014     6B1u      0.0014  
		   3B3g      0.0013     3B2g      0.0013     7B1u      0.0002  

		Beta virtual orbitals
		   1B3g      0.0529     1B2g      0.0529     3B1u      0.0257     4Ag       0.0049  
		   2B2u      0.0042     2B3u      0.0042     4B1u      0.0040     5Ag       0.0029  
		   3B2u      0.0021     3B3u      0.0021     2B3g      0.0017     2B2g      0.0017  
		   6Ag       0.0014     1B1g      0.0014     7Ag       0.0012     5B1u      0.0011  
		   6B1u      0.0009     1Au       0.0009     3B3g      0.0007     3B2g      0.0007  
		   7B1u      0.0002  



Properties will be evaluated at   0.000000,   0.000000,   0.000000 Bohr

Properties computed using the ODC-06 density matrix

  Nuclear Dipole Moment: (a.u.)
     X:     0.0000      Y:     0.0000      Z:     0.0000

  Electronic Dipole Moment: (a.u.)
     X:     0.0000      Y:     0.0000      Z:     0.0000

  Dipole Moment: (a.u.)
     X:     0.0000      Y:     0.0000      Z:     0.0000     Total:     0.0000

  Dipole Moment: (Debye)
     X:     0.0000      Y:     0.0000      Z:     0.0000     Total:     0.0000


*** tstop() called on psinet at Mon May 15 15:35:28 2017
Module time:
	user time   =       1.94 seconds =       0.03 minutes
	system time =       1.80 seconds =       0.03 minutes
	total time  =          4 seconds =       0.07 minutes
Total time:
	user time   =       7.32 seconds =       0.12 minutes
	system time =       4.68 seconds =       0.08 minutes
	total time  =         12 seconds =       0.20 minutes

*** tstart() called on psinet
*** at Mon May 15 15:35:28 2017



	***********************************************************************************
	*                           DCFT Analytic Gradients Code                          *
	*                by Alexander Sokolov, Andy Simmonett, and Xiao Wang              *
	***********************************************************************************

	 Computing energy-weighted density matrix from one- and two-particle densities...
	 OPDM trace: 	 16.000000		Deviation: 	0.0000e+00
	 TPDM trace: 	239.982696		Deviation: 	1.7304e-02

*** tstop() called on psinet at Mon May 15 15:35:29 2017
Module time:
	user time   =       0.13 seconds =       0.00 minutes
	system time =       0.01 seconds =       0.00 minutes
	total time  =          1 seconds =       0.02 minutes
Total time:
	user time   =       7.45 seconds =       0.12 minutes
	system time =       4.69 seconds =       0.08 minutes
	total time  =         13 seconds =       0.22 minutes
  Cartesian Displacement SALCs
  By SALC:
  Number of SALCs: 1, nirreps: 1
  Project out translations: False
  Project out rotations: False
	irrep = 0, ncomponent = 2
		0: atom 0, direction z, coef 0.707107
		1: atom 1, direction z, coef -0.707107

  By Atomic Center:
  Number of atomic centers: 2
   Atomic Center 0:
	x component, size = 0
	y component, size = 0
	z component, size = 1
		0: salc 0, irrep 0, coef 0.707107
   Atomic Center 1:
	x component, size = 0
	y component, size = 0
	z component, size = 1
		0: salc 0, irrep 0, coef -0.707107

    Molecular point group: d2h
    Full point group: D_inf_h

    Geometry (in Bohr), charge = 0, multiplicity = 3:

       Center              X                  Y                   Z       
    ------------   -----------------  -----------------  -----------------
           O          0.000000000000     0.000000000000    -1.200000000000
           O          0.000000000000     0.000000000000     1.200000000000

	Presorting MO-basis TPDMs.
	Sorting File: MO TPDM (AA|AA) nbuckets = 1
	Sorting File: MO TPDM (AA|aa) nbuckets = 1
	Sorting File: MO TPDM (aa|aa) nbuckets = 1
	Starting first half-transformation.
	Sorting half-transformed TPDMs.
	First half integral transformation complete.


  -Nuclear Repulsion Energy 1st Derivatives:
     Atom            X                  Y                   Z
    ------   -----------------  -----------------  -----------------
       1        0.000000000000     0.000000000000    11.111111111111
       2        0.000000000000     0.000000000000   -11.111111111111


  -One-electron contribution to gradient:
     Atom            X                  Y                   Z
    ------   -----------------  -----------------  -----------------
       1        0.000000000000     0.000000000000   -22.719564579104
       2        0.000000000000     0.000000000000    22.719564579104


  -Lagrangian contribution to gradient:
     Atom            X                  Y                   Z
    ------   -----------------  -----------------  -----------------
       1        0.000000000000     0.000000000000     0.472491945905
       2        0.000000000000     0.000000000000    -0.472491945905


  -Two-electron contribution to gradient:
     Atom            X                  Y                   Z
    ------   -----------------  -----------------  -----------------
       1        0.000000000000     0.000000000000    11.079017087481
       2        0.000000000000     0.000000000000   -11.079017087481


  -Total gradient:
     Atom            X                  Y                   Z
    ------   -----------------  -----------------  -----------------
       1        0.000000000000     0.000000000000    -0.056944434607
       2        0.000000000000     0.000000000000     0.056944434607

	ODC-06 analytic gradient (simultaneous, ao_basis=none)............PASSED
gradient() will perform analytic gradient computation.

*** tstart() called on psinet
*** at Mon May 15 15:35:29 2017

   => Loading Basis Set <=

    Name: CC-PVDZ
    Role: ORBITAL
    Keyword: BASIS
    atoms 1-2 entry O          line   190 file /home/psilocaluser/gits/hrw-direct/objdir4/stage/usr/local/psi4/share/psi4/basis/cc-pvdz.gbs 


         ---------------------------------------------------------
                                   SCF
            by Justin Turney, Rob Parrish, and Andy Simmonett
                              UHF Reference
                        1 Threads,    500 MiB Core
         ---------------------------------------------------------

  ==> Geometry <==

    Molecular point group: d2h
    Full point group: D_inf_h

    Geometry (in Bohr), charge = 0, multiplicity = 3:

       Center              X                  Y                   Z               Mass       
    ------------   -----------------  -----------------  -----------------  -----------------
           O          0.000000000000     0.000000000000    -1.200000000000    15.994914619560
           O          0.000000000000     0.000000000000     1.200000000000    15.994914619560

  Running in d2h symmetry.

  Rotational constants: A = ************  B =      1.30683  C =      1.30683 [cm^-1]
  Rotational constants: A = ************  B =  39177.84286  C =  39177.84286 [MHz]
  Nuclear repulsion =   26.666666666666668

  Charge       = 0
  Multiplicity = 3
  Electrons    = 16
  Nalpha       = 9
  Nbeta        = 7

  ==> Algorithm <==

  SCF Algorithm Type is PK.
  DIIS enabled.
  MOM disabled.
  Fractional occupation disabled.
  Guess Type is GWH.
  Energy threshold   = 1.00e-10
  Density threshold  = 1.00e-10
  Integral threshold = 0.00e+00

  ==> Primary Basis <==

  Basis Set: CC-PVDZ
    Blend: CC-PVDZ
    Number of shells: 12
    Number of basis function: 28
    Number of Cartesian functions: 30
    Spherical Harmonics?: true
    Max angular momentum: 2

  ==> Pre-Iterations <==

   -------------------------------------------------------
    Irrep   Nso     Nmo     Nalpha   Nbeta   Ndocc  Nsocc
   -------------------------------------------------------
     Ag         7       7       0       0       0       0
[...]
     Atom            X                  Y                   Z
    ------   -----------------  -----------------  -----------------
       1        0.000000000000     0.000000000000     0.481339772931
       2        0.000000000000     0.000000000000    -0.481339772931


  -Two-electron contribution to gradient:
     Atom            X                  Y                   Z
    ------   -----------------  -----------------  -----------------
       1        0.000000000000     0.000000000000    11.214046077659
       2        0.000000000000     0.000000000000   -11.214046077659


  -Total gradient:
     Atom            X                  Y                   Z
    ------   -----------------  -----------------  -----------------
       1        0.000000000000     0.000000000000    -0.070863321675
       2        0.000000000000     0.000000000000     0.070863321675

	ODC-12 analytic gradient (simultaneous, ao_basis=disk)............PASSED
gradient() will perform analytic gradient computation.

*** tstart() called on psinet
*** at Mon May 15 15:36:07 2017

   => Loading Basis Set <=

    Name: CC-PVDZ
    Role: ORBITAL
    Keyword: BASIS
    atoms 1-2 entry O          line   190 file /home/psilocaluser/gits/hrw-direct/objdir4/stage/usr/local/psi4/share/psi4/basis/cc-pvdz.gbs 


         ---------------------------------------------------------
                                   SCF
            by Justin Turney, Rob Parrish, and Andy Simmonett
                              UHF Reference
                        1 Threads,    500 MiB Core
         ---------------------------------------------------------

  ==> Geometry <==

    Molecular point group: d2h
    Full point group: D_inf_h

    Geometry (in Bohr), charge = 0, multiplicity = 3:

       Center              X                  Y                   Z               Mass       
    ------------   -----------------  -----------------  -----------------  -----------------
           O          0.000000000000     0.000000000000    -1.200000000000    15.994914619560
           O          0.000000000000     0.000000000000     1.200000000000    15.994914619560

  Running in d2h symmetry.

  Rotational constants: A = ************  B =      1.30683  C =      1.30683 [cm^-1]
  Rotational constants: A = ************  B =  39177.84286  C =  39177.84286 [MHz]
  Nuclear repulsion =   26.666666666666668

  Charge       = 0
  Multiplicity = 3
  Electrons    = 16
  Nalpha       = 9
  Nbeta        = 7

  ==> Algorithm <==

  SCF Algorithm Type is PK.
  DIIS enabled.
  MOM disabled.
  Fractional occupation disabled.
  Guess Type is GWH.
  Energy threshold   = 1.00e-10
  Density threshold  = 1.00e-10
  Integral threshold = 0.00e+00

  ==> Primary Basis <==

  Basis Set: CC-PVDZ
    Blend: CC-PVDZ
    Number of shells: 12
    Number of basis function: 28
    Number of Cartesian functions: 30
    Spherical Harmonics?: true
    Max angular momentum: 2

  ==> Pre-Iterations <==

   -------------------------------------------------------
    Irrep   Nso     Nmo     Nalpha   Nbeta   Ndocc  Nsocc
   -------------------------------------------------------
     Ag         7       7       0       0       0       0
     B1g        1       1       0       0       0       0
     B2g        3       3       0       0       0       0
     B3g        3       3       0       0       0       0
     Au         1       1       0       0       0       0
     B1u        7       7       0       0       0       0
     B2u        3       3       0       0       0       0
     B3u        3       3       0       0       0       0
   -------------------------------------------------------
    Total      28      28       9       7       7       2
   -------------------------------------------------------

  ==> Integral Setup <==

  Using in-core PK algorithm.
   Calculation information:
      Number of atoms:                   2
      Number of AO shells:              12
      Number of primitives:             44
      Number of atomic orbitals:        30
      Number of basis functions:        28

      Integral cutoff                 1.00e-12
      Number of threads:                 1

  Performing in-core PK
  Using 165242 doubles for integral storage.
  We computed 3081 shell quartets total.
  Whereas there are 3081 unique shell quartets.
  ==> DiskJK: Disk-Based J/K Matrices <==

    J tasked:                  Yes
    K tasked:                  Yes
    wK tasked:                  No
    Memory (MB):               375
    Schwarz Cutoff:          1E-12

    OpenMP threads:              1
  Minimum eigenvalue in the overlap matrix is 2.3545947612E-02.
  Using Symmetric Orthogonalization.

  SCF Guess: Generalized Wolfsberg-Helmholtz.

  ==> Iterations <==

                        Total Energy        Delta E     RMS |[F,P]|

   @UHF iter   1:  -148.90501113693168   -1.48905e+02   1.96041e-01 
   @UHF iter   2:  -149.57574013408114   -6.70729e-01   2.61228e-02 DIIS
   @UHF iter   3:  -149.60920401784756   -3.34639e-02   6.58204e-03 DIIS
   @UHF iter   4:  -149.61154811580670   -2.34410e-03   8.72560e-04 DIIS
   @UHF iter   5:  -149.61161739532571   -6.92795e-05   1.71781e-04 DIIS
   @UHF iter   6:  -149.61162149875838   -4.10343e-06   4.22123e-05 DIIS
   @UHF iter   7:  -149.61162172242712   -2.23669e-07   6.28776e-06 DIIS
   @UHF iter   8:  -149.61162172649466   -4.06754e-09   7.48006e-07 DIIS
   @UHF iter   9:  -149.61162172655611   -6.14477e-11   1.10366e-07 DIIS
   @UHF iter  10:  -149.61162172655733   -1.22213e-12   6.40889e-09 DIIS
   @UHF iter  11:  -149.61162172655730    2.84217e-14   1.48516e-09 DIIS
   @UHF iter  12:  -149.61162172655722    8.52651e-14   3.58272e-10 DIIS
   @UHF iter  13:  -149.61162172655730   -8.52651e-14   4.51507e-11 DIIS

  ==> Post-Iterations <==

   @Spin Contamination Metric:   3.623073585E-02
   @S^2 Expected:                2.000000000E+00
   @S^2 Observed:                2.036230736E+00
   @S   Expected:                1.000000000E+00
   @S   Observed:                1.000000000E+00

    Orbital Energies (a.u.)
    -----------------------

    Alpha Occupied:                                                       

       1Ag   -20.762433     1B1u  -20.761926     2Ag    -1.670200  
       2B1u   -1.223672     1B2u   -0.817654     1B3u   -0.817654  
       3Ag    -0.737394     1B3g   -0.572679     1B2g   -0.572679  

    Alpha Virtual:                                                        

       3B1u    0.350340     2B2u    1.051937     2B3u    1.051937  
       4B1u    1.052773     2B2g    1.162735     2B3g    1.162735  
       4Ag     1.171000     5Ag     1.335918     5B1u    1.909339  
       3B3u    2.384312     3B2u    2.384312     6Ag     2.658410  
       1B1g    2.658410     6B1u    2.903771     1Au     2.903771  
       7Ag     2.974713     3B3g    3.529465     3B2g    3.529465  
       7B1u    4.159778  

    Beta Occupied:                                                        

       1Ag   -20.707327     1B1u  -20.706365     2Ag    -1.532154  
       2B1u   -1.014796     3Ag    -0.682086     1B2u   -0.545349  
       1B3u   -0.545349  

    Beta Virtual:                                                         

       1B3g    0.089037     1B2g    0.089037     3B1u    0.428473  
       4B1u    1.079878     2B2u    1.180178     2B3u    1.180178  
       4Ag     1.195187     2B2g    1.287069     2B3g    1.287069  
       5Ag     1.363695     5B1u    1.959634     3B2u    2.454048  
       3B3u    2.454048     6Ag     2.779141     1B1g    2.779141  
       7Ag     3.046333     6B1u    3.051328     1Au     3.051328  
       3B3g    3.606844     3B2g    3.606844     7B1u    4.208746  

    Final Occupation by Irrep:
             Ag   B1g   B2g   B3g    Au   B1u   B2u   B3u 
    DOCC [     3,    0,    0,    0,    0,    2,    1,    1 ]
    SOCC [     0,    0,    1,    1,    0,    0,    0,    0 ]

  Energy converged.

  @UHF Final Energy:  -149.61162172655730

   => Energetics <=

    Nuclear Repulsion Energy =             26.6666666666666679
    One-Electron Energy =                -258.8868599943169215
    Two-Electron Energy =                  82.6085716010929616
    DFT Exchange-Correlation Energy =       0.0000000000000000
    Empirical Dispersion Energy =           0.0000000000000000
    PCM Polarization Energy =               0.0000000000000000
    EFP Energy =                            0.0000000000000000
    Total Energy =                       -149.6116217265573027


  UHF NO Occupations:
  HONO-2 :    1B3u 1.9930069
  HONO-1 :    1B3g 1.0000000
  HONO-0 :    1B2g 1.0000000
  LUNO+0 :    2B2u 0.0069931
  LUNO+1 :    2B3u 0.0069931
  LUNO+2 :    3B1u 0.0032640
  LUNO+3 :    4 Ag 0.0008115



Properties will be evaluated at   0.000000,   0.000000,   0.000000 Bohr

Properties computed using the SCF density matrix

  Nuclear Dipole Moment: (a.u.)
     X:     0.0000      Y:     0.0000      Z:     0.0000

  Electronic Dipole Moment: (a.u.)
     X:     0.0000      Y:     0.0000      Z:     0.0000

  Dipole Moment: (a.u.)
     X:     0.0000      Y:     0.0000      Z:     0.0000     Total:     0.0000

  Dipole Moment: (Debye)
     X:     0.0000      Y:     0.0000      Z:     0.0000     Total:     0.0000


*** tstop() called on psinet at Mon May 15 15:36:07 2017
Module time:
	user time   =       0.20 seconds =       0.00 minutes
	system time =       0.01 seconds =       0.00 minutes
	total time  =          0 seconds =       0.00 minutes
Total time:
	user time   =      30.08 seconds =       0.50 minutes
	system time =      16.98 seconds =       0.28 minutes
	total time  =         51 seconds =       0.85 minutes
 MINTS: Wrapper to libmints.
   by Justin Turney

   Calculation information:
      Number of threads:                 1
      Number of atoms:                   2
      Number of AO shells:              12
      Number of SO shells:               6
      Number of primitives:             44
      Number of atomic orbitals:        30
      Number of basis functions:        28

      Number of irreps:                  8
      Integral cutoff                 0.00e+00
      Number of functions per irrep: [   7    1    3    3    1    7    3    3 ]

 OEINTS: Overlap, kinetic, potential, dipole, and quadrupole integrals
         stored in file 35.

      Computing two-electron integrals...done
      Computed 11509 non-zero two-electron integrals.
        Stored in file 33.


*** tstart() called on psinet
*** at Mon May 15 15:36:07 2017



	***********************************************************************************
	*                        Density Cumulant Functional Theory                       *
	*                by Alexander Sokolov, Andy Simmonett, and Xiao Wang              *
	***********************************************************************************


	Transforming two-electron integrals (transformation type: unrestricted)...
	Computing MP2 amplitude guess...

	*Total Hartree-Fock energy        = -149.611621726557303
	 Alpha - Alpha MP2 energy         =   -0.045097741860306
	 Alpha - Beta  MP2 energy         =   -0.244280902344661
	 Beta  - Beta  MP2 energy         =   -0.063954813017193
	 Total MP2 correlation energy     =   -0.353333457222160
	*Total MP2 energy                 = -149.964955183779466

	DCFT Functional:    		 ODC-13
	DCFT Type:          		 CONV
	Algorithm:          		 SIMULTANEOUS
	AO-Basis Integrals: 		 DISK

	*=================================================================================*
	* Cycle   Max Orb Grad    RMS Lambda Error   delta E        Total Energy     DIIS *
	*---------------------------------------------------------------------------------*
	* 1        7.273e-02         2.500e-03     -3.323e-02   -149.998185313091113      *
	* 2        2.588e-02         7.010e-04      1.923e-02   -149.978953274156140      *
	* 3        1.010e-02         2.906e-04      1.927e-03   -149.977026074585353      *
	* 4        4.429e-03         1.441e-04      3.039e-04   -149.976722190534929  S   *
	* 5        1.916e-03         7.894e-05      2.665e-04   -149.976455649002361  S   *
	* 6        8.841e-04         4.599e-05      1.441e-04   -149.976311521083034  S   *
	* 7        4.287e-04         2.790e-05      8.564e-05   -149.976225883472353  S/E *
	* 8        1.376e-05         3.375e-06      2.170e-04   -149.976008932518425  S/E *
	* 9        9.102e-06         6.662e-07     -8.166e-05   -149.976090592887914  S/E *
	* 10       2.638e-06         2.579e-07      3.593e-07   -149.976090233553009  S/E *
	* 11       4.207e-07         8.622e-08     -1.117e-06   -149.976091350350345  S/E *
	* 12       1.612e-07         3.652e-08      4.642e-07   -149.976090886116879  S/E *
	* 13       6.013e-08         1.093e-08     -1.203e-08   -149.976090898147078  S/E *
	* 14       3.362e-08         3.029e-09      5.491e-08   -149.976090843236278  S/E *
	* 15       1.207e-08         1.249e-09      7.342e-09   -149.976090835894297  S/E *
	* 16       4.117e-09         5.120e-10     -1.133e-09   -149.976090837027414  S/E *
	* 17       6.269e-10         1.037e-10     -1.931e-09   -149.976090838958555  S/E *
	* 18       2.633e-10         2.637e-11     -3.589e-10   -149.976090839317493  S/E *
	* 19       1.144e-10         8.068e-12      5.420e-11   -149.976090839263293  S/E *
	* 20       2.391e-11         3.078e-12     -2.174e-11   -149.976090839285035  S/E *
	* 21       5.254e-12         8.349e-13      4.832e-13   -149.976090839284552  S/E *
	*=================================================================================*

	*   ODC-13 SCF Energy                                 =    -149.239074811413872
	*   ODC-13 Lambda Energy                              =      -0.737016027870678
	*   ODC-13 Total Energy                               =    -149.976090839284552

	Orbital occupations:
		Alpha occupied orbitals
		   1Ag       1.0000     1B1u      1.0000     2Ag       0.9948     2B1u      0.9921  
		   1B3u      0.9901     1B2u      0.9901     1B3g      0.9865     1B2g      0.9865  
		   3Ag       0.9705  

		Beta occupied orbitals
		   1Ag       1.0000     1B1u      1.0000     2Ag       0.9916     2B1u      0.9867  
		   3Ag       0.9733     1B3u      0.9609     1B2u      0.9609  

		Alpha virtual orbitals
		   3B1u      0.0291     2B2u      0.0090     2B3u      0.0090     2B2g      0.0055  
		   2B3g      0.0055     4Ag       0.0051     4B1u      0.0038     5Ag       0.0026  
		   1B1g      0.0026     6Ag       0.0026     3B2u      0.0025     3B3u      0.0025  
		   1Au       0.0024     5B1u      0.0024     7Ag       0.0013     6B1u      0.0012  
		   3B3g      0.0012     3B2g      0.0012     7B1u      0.0002  

		Beta virtual orbitals
		   1B3g      0.0351     1B2g      0.0351     3B1u      0.0236     4Ag       0.0049  
		   4B1u      0.0038     2B2u      0.0038     2B3u      0.0038     5Ag       0.0027  
		   3B2u      0.0019     3B3u      0.0019     6Ag       0.0013     1B1g      0.0013  
		   2B3g      0.0012     2B2g      0.0012     7Ag       0.0011     5B1u      0.0010  
		   6B1u      0.0008     1Au       0.0008     3B3g      0.0006     3B2g      0.0006  
		   7B1u      0.0001  



Properties will be evaluated at   0.000000,   0.000000,   0.000000 Bohr

Properties computed using the ODC-13 density matrix

  Nuclear Dipole Moment: (a.u.)
     X:     0.0000      Y:     0.0000      Z:     0.0000

  Electronic Dipole Moment: (a.u.)
     X:     0.0000      Y:     0.0000      Z:     0.0000

  Dipole Moment: (a.u.)
     X:     0.0000      Y:     0.0000      Z:     0.0000     Total:     0.0000

  Dipole Moment: (Debye)
     X:     0.0000      Y:     0.0000      Z:     0.0000     Total:     0.0000


*** tstop() called on psinet at Mon May 15 15:36:11 2017
Module time:
	user time   =       2.45 seconds =       0.04 minutes
	system time =       1.56 seconds =       0.03 minutes
	total time  =          4 seconds =       0.07 minutes
Total time:
	user time   =      32.59 seconds =       0.54 minutes
	system time =      18.54 seconds =       0.31 minutes
	total time  =         55 seconds =       0.92 minutes

*** tstart() called on psinet
*** at Mon May 15 15:36:11 2017



	***********************************************************************************
	*                           DCFT Analytic Gradients Code                          *
	*                by Alexander Sokolov, Andy Simmonett, and Xiao Wang              *
	***********************************************************************************

	 Computing energy-weighted density matrix from one- and two-particle densities...
	 OPDM trace: 	 16.000030		Deviation: 	-2.9973e-05
	 TPDM trace: 	239.986303		Deviation: 	1.3697e-02

*** tstop() called on psinet at Mon May 15 15:36:12 2017
Module time:
	user time   =       0.14 seconds =       0.00 minutes
	system time =       0.01 seconds =       0.00 minutes
	total time  =          1 seconds =       0.02 minutes
Total time:
	user time   =      32.73 seconds =       0.55 minutes
	system time =      18.55 seconds =       0.31 minutes
	total time  =         56 seconds =       0.93 minutes
  Cartesian Displacement SALCs
  By SALC:
  Number of SALCs: 1, nirreps: 1
  Project out translations: False
  Project out rotations: False
	irrep = 0, ncomponent = 2
		0: atom 0, direction z, coef 0.707107
		1: atom 1, direction z, coef -0.707107

  By Atomic Center:
  Number of atomic centers: 2
   Atomic Center 0:
	x component, size = 0
	y component, size = 0
	z component, size = 1
		0: salc 0, irrep 0, coef 0.707107
   Atomic Center 1:
	x component, size = 0
	y component, size = 0
	z component, size = 1
		0: salc 0, irrep 0, coef -0.707107

    Molecular point group: d2h
    Full point group: D_inf_h

    Geometry (in Bohr), charge = 0, multiplicity = 3:

       Center              X                  Y                   Z       
    ------------   -----------------  -----------------  -----------------
           O          0.000000000000     0.000000000000    -1.200000000000
           O          0.000000000000     0.000000000000     1.200000000000

	Presorting MO-basis TPDMs.
	Sorting File: MO TPDM (AA|AA) nbuckets = 1
	Sorting File: MO TPDM (AA|aa) nbuckets = 1
	Sorting File: MO TPDM (aa|aa) nbuckets = 1
	Starting first half-transformation.
	Sorting half-transformed TPDMs.
	First half integral transformation complete.


  -Nuclear Repulsion Energy 1st Derivatives:
     Atom            X                  Y                   Z
    ------   -----------------  -----------------  -----------------
       1        0.000000000000     0.000000000000    11.111111111111
       2        0.000000000000     0.000000000000   -11.111111111111


  -One-electron contribution to gradient:
     Atom            X                  Y                   Z
    ------   -----------------  -----------------  -----------------
       1        0.000000000000     0.000000000000   -22.958635002895
       2        0.000000000000     0.000000000000    22.958635002895


  -Lagrangian contribution to gradient:
     Atom            X                  Y                   Z
    ------   -----------------  -----------------  -----------------
       1        0.000000000000     0.000000000000     0.485894657996
       2        0.000000000000     0.000000000000    -0.485894657996


  -Two-electron contribution to gradient:
     Atom            X                  Y                   Z
    ------   -----------------  -----------------  -----------------
       1        0.000000000000     0.000000000000    11.284084524410
       2        0.000000000000     0.000000000000   -11.284084524410


  -Total gradient:
     Atom            X                  Y                   Z
    ------   -----------------  -----------------  -----------------
       1        0.000000000000     0.000000000000    -0.077544709378
       2        0.000000000000     0.000000000000     0.077544709378

	ODC-13 analytic gradient (simultaneous, ao_basis=disk)............PASSED

*** Psi4 exiting successfully. Buy a developer a beer!
