    -----------------------------------------------------------------------
          Psi4: An Open-Source Ab Initio Electronic Structure Package
                              Psi4 0.5 Driver

                          Git: Rev {master} dbe9080

    J. M. Turney, A. C. Simmonett, R. M. Parrish, E. G. Hohenstein,
    F. A. Evangelista, J. T. Fermann, B. J. Mintz, L. A. Burns, J. J. Wilke,
    M. L. Abrams, N. J. Russ, M. L. Leininger, C. L. Janssen, E. T. Seidl,
    W. D. Allen, H. F. Schaefer, R. A. King, E. F. Valeev, C. D. Sherrill,
    and T. D. Crawford, WIREs Comput. Mol. Sci. 2, 556-565 (2012)
    (doi: 10.1002/wcms.93)

                         Additional Contributions by
    A. E. DePrince, M. Saitow, U. Bozkaya, A. Yu. Sokolov
    -----------------------------------------------------------------------


    Psi4 started on: Mon Mar 14 15:15:35 2016

    Process ID:   9307
    PSI4DATADIR: /home/dsmith/Gits/dgas_psi/share
    Memory level set to 256.000 MB

  ==> Input File <==

--------------------------------------------------------------------------
#! RHF cc-pVQZ energy for the BH molecule, with Cartesian input.

memory 500 mb

nucenergy =   2.64588604295000  #TEST
refenergy =  -25.1035468969791  #TEST

molecule bh {
    b      0.0000        0.0000        0.0000
    h      0.0000        0.0000        1.0000
}

# Get a reasonable guess, to save some iterations
set globals = {
    scf_type   pk
    basis      cc-pVQZ
    df_scf_guess false
    e_convergence 6
}
energy('scf')

set globals = {
    scf_type   direct
    guess      read
    e_convergence 10
}

thisenergy = energy('scf')

compare_values(nucenergy, bh.nuclear_repulsion_energy(), 9, "Nuclear repulsion energy") #TEST
compare_values(refenergy, thisenergy, 9, "Reference energy")                            #TEST
--------------------------------------------------------------------------

  Memory set to 500.000 MiB by Python script.
    There are an even number of electrons - assuming singlet.
    Specify the multiplicity in the molecule input block.


*** tstart() called on ds1.sherrill.chemistry.gatech.edu
*** at Mon Mar 14 15:15:36 2016


         ---------------------------------------------------------
                                   SCF
            by Justin Turney, Rob Parrish, and Andy Simmonett
                              RHF Reference
                        1 Threads,    500 MiB Core
         ---------------------------------------------------------

  ==> Geometry <==

    Molecular point group: c2v
    Full point group: C_inf_v

    Geometry (in Angstrom), charge = 0, multiplicity = 1:

       Center              X                  Y                   Z               Mass       
    ------------   -----------------  -----------------  -----------------  -----------------
           B          0.000000000000     0.000000000000    -0.083865697994    11.009305406000
           H          0.000000000000     0.000000000000     0.916134302006     1.007825032070

  Running in c2v symmetry.

  Rotational constants: A = ************  B =     18.25796  C =     18.25796 [cm^-1]
  Rotational constants: A = ************  B = 547359.81574  C = 547359.81574 [MHz]
  Nuclear repulsion =    2.645886042950000

  Charge       = 0
  Multiplicity = 1
  Electrons    = 6
  Nalpha       = 3
  Nbeta        = 3

  ==> Algorithm <==

  SCF Algorithm Type is PK.
  DIIS enabled.
  MOM disabled.
  Fractional occupation disabled.
  Guess Type is CORE.
  Energy threshold   = 1.00e-06
  Density threshold  = 1.00e-06
  Integral threshold = 0.00e+00

  ==> Primary Basis <==

  Basis Set: CC-PVQZ
    Number of shells: 25
    Number of basis function: 85
    Number of Cartesian functions: 105
    Spherical Harmonics?: true
    Max angular momentum: 4

  ==> Pre-Iterations <==

   -------------------------------------------------------
    Irrep   Nso     Nmo     Nalpha   Nbeta   Ndocc  Nsocc
   -------------------------------------------------------
     A1        35      35       0       0       0       0
     A2        10      10       0       0       0       0
     B1        20      20       0       0       0       0
     B2        20      20       0       0       0       0
   -------------------------------------------------------
    Total      85      85       3       3       3       0
   -------------------------------------------------------

  ==> Integral Setup <==

	Batch   1 pq = [       0,    1105] index = [             0,611065]
  ==> DiskJK: Disk-Based J/K Matrices <==

    J tasked:                  Yes
    K tasked:                  Yes
    wK tasked:                  No
    Memory (MB):               357
    Schwarz Cutoff:          1E-12

  Minimum eigenvalue in the overlap matrix is 2.2491309807E-04.
  Using Symmetric Orthogonalization.
  SCF Guess: Core (One-Electron) Hamiltonian.

  ==> Iterations <==

                        Total Energy        Delta E     RMS |[F,P]|

    Occupation by irrep:
             A1    A2    B1    B2 
    DOCC [     3,    0,    0,    0 ]

   @RHF iter   1:   -21.36587411641874   -2.13659e+01   7.14171e-02 
   @RHF iter   2:   -24.32286591603390   -2.95699e+00   1.66381e-02 DIIS
   @RHF iter   3:   -25.09010774219337   -7.67242e-01   2.94538e-03 DIIS
   @RHF iter   4:   -25.10256046534492   -1.24527e-02   5.34376e-04 DIIS
   @RHF iter   5:   -25.10349580541531   -9.35340e-04   1.04343e-04 DIIS
   @RHF iter   6:   -25.10354620127336   -5.03959e-05   1.36092e-05 DIIS
   @RHF iter   7:   -25.10354689224704   -6.90974e-07   1.31687e-06 DIIS
   @RHF iter   8:   -25.10354689691359   -4.66655e-09   1.27605e-07 DIIS

  ==> Post-Iterations <==

    Orbital Energies (a.u.)
    -----------------------

    Doubly Occupied:                                                      

       1A1    -7.656450     2A1    -0.715782     3A1    -0.341710  

    Virtual:                                                              

       1B1     0.045923     1B2     0.045923     4A1     0.154085  
       5A1     0.215379     6A1     0.264488     2B1     0.267602  
       2B2     0.267602     3B1     0.395341     3B2     0.395341  
       1A2     0.408508     7A1     0.408508     8A1     0.498906  
       9A1     0.694962    10A1     0.760301     4B2     0.858235  
       4B1     0.858235     5B1     1.013776     5B2     1.013776  
      11A1     1.210557     6B2     1.219679     6B1     1.219679  
       2A2     1.221071    12A1     1.221071     7B1     1.316383  
       7B2     1.316383     3A2     1.341361    13A1     1.341361  
      14A1     1.348575    15A1     1.473935     8B2     1.532751  
       8B1     1.532751    16A1     1.726656    17A1     2.136116  
       4A2     2.538373    18A1     2.538373     9B2     2.610957  
       9B1     2.610957    19A1     2.855272    10B1     3.064834  
      10B2     3.064834     5A2     3.397074    20A1     3.397074  
      11B2     3.412515    11B1     3.412515    21A1     3.566685  
      12B1     3.739853    12B2     3.739853     6A2     3.809172  
      22A1     3.809172     7A2     3.897341    23A1     3.897341  
      24A1     3.908669    13B1     3.947553    13B2     3.947553  
      14B2     3.949189    14B1     3.949189    15B2     4.001131  
      15B1     4.001131     8A2     4.099323    25A1     4.099323  
      26A1     4.138266    27A1     5.032925    28A1     5.283524  
      16B2     5.505708    16B1     5.505708    17B1     6.418822  
      17B2     6.418822    29A1     7.300730    18B2     7.574075  
      18B1     7.574075    30A1     7.596981     9A2     7.596981  
      31A1     8.191050    32A1     8.448402    10A2     8.448402  
      19B2     8.895754    19B1     8.895754    20B2     9.775046  
      20B1     9.775046    33A1     9.801552    34A1    11.149102  
      35A1    17.128232  

    Final Occupation by Irrep:
             A1    A2    B1    B2 
    DOCC [     3,    0,    0,    0 ]

  Energy converged.

  @RHF Final Energy:   -25.10354689691359

   => Energetics <=

    Nuclear Repulsion Energy =              2.6458860429500000
    One-Electron Energy =                 -38.0709829277951997
    Two-Electron Energy =                  10.3215499879316059
    DFT Exchange-Correlation Energy =       0.0000000000000000
    Empirical Dispersion Energy =           0.0000000000000000
    PCM Polarization Energy =               0.0000000000000000
    EFP Energy =                            0.0000000000000000
    Total Energy =                        -25.1035468969135991

    Alert: EFP and PCM quantities not currently incorporated into SCF psivars.

Properties will be evaluated at   0.000000,   0.000000,   0.000000 Bohr
  ==> Properties <==


Properties computed using the SCF density matrix

  Nuclear Dipole Moment: (a.u.)
     X:     0.0000      Y:     0.0000      Z:     0.9388

  Electronic Dipole Moment: (a.u.)
     X:     0.0000      Y:     0.0000      Z:    -0.0281

  Dipole Moment: (a.u.)
     X:     0.0000      Y:     0.0000      Z:     0.9107     Total:     0.9107

  Dipole Moment: (Debye)
     X:     0.0000      Y:     0.0000      Z:     2.3148     Total:     2.3148


  Saving occupied orbitals to File 180.

*** tstop() called on ds1.sherrill.chemistry.gatech.edu at Mon Mar 14 15:15:36 2016
Module time:
	user time   =       0.48 seconds =       0.01 minutes
	system time =       0.05 seconds =       0.00 minutes
	total time  =          0 seconds =       0.00 minutes
Total time:
	user time   =       0.48 seconds =       0.01 minutes
	system time =       0.05 seconds =       0.00 minutes
	total time  =          0 seconds =       0.00 minutes

*** tstart() called on ds1.sherrill.chemistry.gatech.edu
*** at Mon Mar 14 15:15:36 2016


         ---------------------------------------------------------
                                   SCF
            by Justin Turney, Rob Parrish, and Andy Simmonett
                              RHF Reference
                        1 Threads,    500 MiB Core
         ---------------------------------------------------------

  ==> Geometry <==

    Molecular point group: c2v
    Full point group: C_inf_v

    Geometry (in Angstrom), charge = 0, multiplicity = 1:

       Center              X                  Y                   Z               Mass       
    ------------   -----------------  -----------------  -----------------  -----------------
           B          0.000000000000     0.000000000000    -0.083865697994    11.009305406000
           H          0.000000000000     0.000000000000     0.916134302006     1.007825032070

  Running in c2v symmetry.

  Rotational constants: A = ************  B =     18.25796  C =     18.25796 [cm^-1]
  Rotational constants: A = ************  B = 547359.81574  C = 547359.81574 [MHz]
  Nuclear repulsion =    2.645886042950000

  Charge       = 0
  Multiplicity = 1
  Electrons    = 6
  Nalpha       = 3
  Nbeta        = 3

  ==> Algorithm <==

  SCF Algorithm Type is DIRECT.
  DIIS enabled.
  MOM disabled.
  Fractional occupation disabled.
  Guess Type is READ.
  Energy threshold   = 1.00e-10
  Density threshold  = 1.00e-06
  Integral threshold = 0.00e+00

  ==> Primary Basis <==

  Basis Set: CC-PVQZ
    Number of shells: 25
    Number of basis function: 85
    Number of Cartesian functions: 105
    Spherical Harmonics?: true
    Max angular momentum: 4

  ==> Pre-Iterations <==

   -------------------------------------------------------
    Irrep   Nso     Nmo     Nalpha   Nbeta   Ndocc  Nsocc
   -------------------------------------------------------
     A1        35      35       0       0       0       0
     A2        10      10       0       0       0       0
     B1        20      20       0       0       0       0
     B2        20      20       0       0       0       0
   -------------------------------------------------------
    Total      85      85       3       3       3       0
   -------------------------------------------------------

  ==> Integral Setup <==

  ==> DirectJK: Integral-Direct J/K Matrices <==

    J tasked:                  Yes
    K tasked:                  Yes
    wK tasked:                  No
    Integrals threads:           1
    Schwarz Cutoff:          1E-12

  Minimum eigenvalue in the overlap matrix is 2.2491309807E-04.
  Using Symmetric Orthogonalization.
  SCF Guess: Reading in previously saved MOs, projecting if necessary.

  Using orbitals from previous SCF, no projection.
  Recomputing DOCC and SOCC from number of alpha and beta electrons from previous calculation.
             A1    A2    B1    B2 
    DOCC [     3,    0,    0,    0 ]

  ==> Iterations <==

                        Total Energy        Delta E     RMS |[F,P]|

   @RHF iter   0:   -25.10354689697488   -2.51035e+01   2.90198e-08 
   @RHF iter   1:   -25.10354689697837   -3.48521e-12   1.16748e-08 

  ==> Post-Iterations <==

    Orbital Energies (a.u.)
    -----------------------

    Doubly Occupied:                                                      

       1A1    -7.656449     2A1    -0.715781     3A1    -0.341709  

    Virtual:                                                              

       1B2     0.045923     1B1     0.045923     4A1     0.154085  
       5A1     0.215379     6A1     0.264489     2B1     0.267602  
       2B2     0.267602     3B1     0.395341     3B2     0.395341  
       1A2     0.408508     7A1     0.408508     8A1     0.498906  
       9A1     0.694962    10A1     0.760301     4B1     0.858235  
       4B2     0.858235     5B1     1.013777     5B2     1.013777  
      11A1     1.210558     6B1     1.219679     6B2     1.219679  
      12A1     1.221072     2A2     1.221072     7B1     1.316383  
       7B2     1.316383     3A2     1.341361    13A1     1.341361  
      14A1     1.348576    15A1     1.473935     8B1     1.532751  
       8B2     1.532751    16A1     1.726656    17A1     2.136117  
      18A1     2.538373     4A2     2.538373     9B2     2.610957  
       9B1     2.610957    19A1     2.855272    10B1     3.064834  
      10B2     3.064834     5A2     3.397074    20A1     3.397074  
      11B1     3.412515    11B2     3.412515    21A1     3.566685  
      12B1     3.739854    12B2     3.739854    22A1     3.809173  
       6A2     3.809173    23A1     3.897341     7A2     3.897341  
      24A1     3.908670    13B1     3.947554    13B2     3.947554  
      14B1     3.949190    14B2     3.949190    15B1     4.001132  
      15B2     4.001132    25A1     4.099324     8A2     4.099324  
      26A1     4.138267    27A1     5.032926    28A1     5.283525  
      16B1     5.505709    16B2     5.505709    17B1     6.418822  
      17B2     6.418822    29A1     7.300731    18B2     7.574075  
      18B1     7.574075     9A2     7.596982    30A1     7.596982  
      31A1     8.191050    10A2     8.448402    32A1     8.448402  
      19B2     8.895755    19B1     8.895755    20B2     9.775047  
      20B1     9.775047    33A1     9.801553    34A1    11.149102  
      35A1    17.128233  

    Final Occupation by Irrep:
             A1    A2    B1    B2 
    DOCC [     3,    0,    0,    0 ]

  Energy converged.

  @RHF Final Energy:   -25.10354689697837

   => Energetics <=

    Nuclear Repulsion Energy =              2.6458860429500000
    One-Electron Energy =                 -38.0709875016143684
    Two-Electron Energy =                  10.3215545616860140
    DFT Exchange-Correlation Energy =       0.0000000000000000
    Empirical Dispersion Energy =           0.0000000000000000
    PCM Polarization Energy =               0.0000000000000000
    EFP Energy =                            0.0000000000000000
    Total Energy =                        -25.1035468969783579

    Alert: EFP and PCM quantities not currently incorporated into SCF psivars.

Properties will be evaluated at   0.000000,   0.000000,   0.000000 Bohr
  ==> Properties <==


Properties computed using the SCF density matrix

  Nuclear Dipole Moment: (a.u.)
     X:     0.0000      Y:     0.0000      Z:     0.9388

  Electronic Dipole Moment: (a.u.)
     X:     0.0000      Y:     0.0000      Z:    -0.0281

  Dipole Moment: (a.u.)
     X:     0.0000      Y:     0.0000      Z:     0.9107     Total:     0.9107

  Dipole Moment: (Debye)
     X:     0.0000      Y:     0.0000      Z:     2.3148     Total:     2.3148


  Saving occupied orbitals to File 180.

*** tstop() called on ds1.sherrill.chemistry.gatech.edu at Mon Mar 14 15:15:37 2016
Module time:
	user time   =       0.81 seconds =       0.01 minutes
	system time =       0.00 seconds =       0.00 minutes
	total time  =          1 seconds =       0.02 minutes
Total time:
	user time   =       1.33 seconds =       0.02 minutes
	system time =       0.06 seconds =       0.00 minutes
	total time  =          1 seconds =       0.02 minutes
	Nuclear repulsion energy..........................................PASSED
	Reference energy..................................................PASSED

*** PSI4 exiting successfully. Buy a developer a beer!
