Process 0 of 1 is on n029 - thread support 0
initial socket setup ...start
initial socket setup ...done 
now start server 0 ... 
n029 172.19.59
Q-Chem Developer Version! Running on 172.19.59.*
                  Welcome to Q-Chem
     A Quantum Leap Into The Future Of Chemistry


 Q-Chem 5.0, Q-Chem, Inc., Pleasanton, CA (2017)

 Yihan Shao,  Zhengting Gan,  E. Epifanovsky,  A. T. B. Gilbert,  M. Wormit,  
 J. Kussmann,  A. W. Lange,  A. Behn,  Jia Deng,  Xintian Feng,  D. Ghosh,  
 M. Goldey,  P. R. Horn,  L. D. Jacobson,  I. Kaliman,  T. Kus,  A. Landau,  
 Jie Liu,  E. I. Proynov,  R. M. Richard,  R. P. Steele,  E. J. Sundstrom,  
 H. L. Woodcock III,  P. M. Zimmerman,  D. Zuev,  B. Albrecht,  E. Alguire,  
 S. A. Baeppler,  Z. Benda,  Y. A. Bernard,  E. J. Berquist,  K. B. Bravaya,  
 D. Casanova,  Chun-Min Chang,  Yunqing Chen,  A. Chien,  K. D. Closser,  
 M. P. Coons,  S. Dasgupta,  M. Diedenhofen,  Hainam Do,  R. G. Edgar,  
 Po-Tung Fang,  S. Fatehi,  Qingguo Feng,  Qinghui Ge,  A. Ghysels,  
 J. Gomes,  J. Gonthier,  A. Gunina,  M. W. D. Hanson-Heine,  
 P. H. P. Harbach,  A. W. Hauser,  J. E. Herr,  E. G. Hohenstein,  
 Z. C. Holden,  Kerwin Hui,  T.-C. Jagau,  Hyunjun Ji,  B. Kaduk,  
 K. Khistyaev,  Jaehoon Kim,  P. Klunzinger,  K. Koh,  D. Kosenkov,  
 T. Kowalczyk,  C. M. Krauter,  A. Kunitsa,  Ka Un Lao,  A. Laurent,  
 K. V. Lawler,  Joonho Lee,  D. Lefrancois,  S. Lehtola,  D. S. Levine,  
 Yi-Pei Li,  You-Sheng Lin,  Fenglai Liu,  E. Livshits,  A. Luenser,  
 P. Manohar,  E. Mansoor,  S. F. Manzer,  Shan-Ping Mao,  Yuezhi Mao,  
 N. Mardirossian,  A. V. Marenich,  L. A. Martinez-Martinez,  S. A. Maurer,  
 N. J. Mayhall,  S. C. McKenzie,  J.-M. Mewes,  A. F. Morrison,  K. Nanda,  
 T. S. Nguyen-Beck,  R. Olivares-Amaya,  J. A. Parkhill,  T. M. Perrine,  
 F. Plasser,  S. Prager,  A. Prociuk,  D. R. Rehn,  F. Rob,  M. Schneider,  
 N. Sergueev,  S. M. Sharada,  S. Sharma,  D. W. Small,  T. Stauch,  
 T. Stein,  Yu-Chuan Su,  A. J. W. Thom,  T. Tsuchimochi,  L. Vogt,  
 O. Vydrov,  M. A. Watson,  J. Wenzel,  M. de Wergifosse,  T. A. Wesolowski,  
 A. White,  J. Witte,  A. Yamada,  Jun Yang,  K. Yao,  S. Yeganeh,  
 S. R. Yost,  Zhi-Qiang You,  A. Zech,  Igor Ying Zhang,  Xing Zhang,  
 Yan Zhao,  Ying Zhu,  B. R. Brooks,  G. K. L. Chan,  C. J. Cramer,  
 M. S. Gordon,  W. J. Hehre,  A. Klamt,  M. W. Schmidt,  C. D. Sherrill,  
 D. G. Truhlar,  A. Aspuru-Guzik,  R. Baer,  A. T. Bell,  N. A. Besley,  
 Jeng-Da Chai,  A. Dreuw,  B. D. Dunietz,  T. R. Furlani,  Chao-Ping Hsu,  
 Yousung Jung,  Jing Kong,  D. S. Lambrecht,  WanZhen Liang,  C. Ochsenfeld,  
 V. A. Rassolov,  L. V. Slipchenko,  J. E. Subotnik,  T. Van Voorhis,  
 J. M. Herbert,  A. I. Krylov,  P. M. W. Gill,  M. Head-Gordon

 Contributors to earlier versions of Q-Chem not listed above: 
 R. D. Adamson,  B. Austin,  J. Baker,  G. J. O. Beran,  K. Brandhorst,  
 S. T. Brown,  E. F. C. Byrd,  A. K. Chakraborty,  C.-L. Cheng,  
 Siu Hung Chien,  D. M. Chipman,  D. L. Crittenden,  H. Dachsel,  
 R. A. DiStasio Jr.,  R. J. Doerksen,  A. D. Dutoi,  L. Fusti-Molnar,  
 W. A. Goddard III,  A. Golubeva-Zadorozhnaya,  S. R. Gwaltney,  G. Hawkins,  
 A. Heyden,  S. Hirata,  G. Kedziora,  F. J. Keil,  C. Kelley,  Jihan Kim,  
 R. A. King,  R. Z. Khaliullin,  P. P. Korambath,  W. Kurlancheek,  
 A. M. Lee,  M. S. Lee,  S. V. Levchenko,  Ching Yeh Lin,  D. Liotard,  
 R. C. Lochan,  I. Lotan,  P. E. Maslen,  N. Nair,  D. P. O'Neill,  
 D. Neuhauser,  E. Neuscamman,  C. M. Oana,  R. Olson,  B. Peters,  
 R. Peverati,  P. A. Pieniazek,  Y. M. Rhee,  J. Ritchie,  M. A. Rohrdanz,  
 E. Rosta,  N. J. Russ,  H. F. Schaefer III,  N. E. Schultz,  N. Shenvi,  
 A. C. Simmonett,  A. Sodt,  D. Stuck,  K. S. Thanthiriwatte,  V. Vanovschi,  
 Tao Wang,  A. Warshel,  C. F. Williams,  Q. Wu,  X. Xu,  W. Zhang

 Please cite Q-Chem as follows:
 Y. Shao et al., Mol. Phys. 113, 184-215 (2015)
 DOI: 10.1080/00268976.2014.952696

 Q-Chem 5.0.1 for Intel X86 EM64T Linux

 Parts of Q-Chem use Armadillo 5.200.1 (Boston Tea Smuggler).
 http://arma.sourceforge.net/

 Q-Chem begins on Fri Apr 19 18:18:04 2019  

Host: n029
0

     Scratch files written to /tmp/269342.1.gen4.q/qchem10399//
 Parallel job on  1  processors

 Q-Chem warning in module /home/vulcan/vadmin/programs/qchem/qchem/libgen/rem.C, line 6087:

 Setting Thresh to 1e-14


Checking the input file for inconsistencies... 	...done.

--------------------------------------------------------------
User input:
--------------------------------------------------------------
$comment
Psi NBO Correctness Test
$end

$molecule
0 1
O
H 1 1.0
H 1 1.0 2 104.5
$end

$rem
    method hf
    scf_convergence 13
    jobtype sp
    basis cc-PVDZ
    MAX_SCF_CYCLES 200
    n_frozen_core 0
    NBO 1
    RUN_NBO6 true
$end

$nbo
$end

--------------------------------------------------------------
 ----------------------------------------------------------------
             Standard Nuclear Orientation (Angstroms)
    I     Atom           X                Y                Z
 ----------------------------------------------------------------
    1      O      -0.0000000000     0.0000000000     0.1224434560
    2      H      -0.7906895737    -0.0000000000    -0.4897738240
    3      H       0.7906895737    -0.0000000000    -0.4897738240
 ----------------------------------------------------------------
 Molecular Point Group                 C2v   NOp =  4
 Largest Abelian Subgroup              C2v   NOp =  4
 Nuclear Repulsion Energy =     8.8014655667 hartrees
 There are        5 alpha and        5 beta electrons
 Requested basis set is cc-pVDZ
 There are 12 shells and 24 basis functions

 Total QAlloc Memory Limit   2000 MB
 Mega-Array Size        61 MB
 MEM_STATIC part        62 MB

                       Distance Matrix (Angstroms)
             O (  1)   H (  2)
   H (  2)  1.000000
   H (  3)  1.000000  1.581379
 
 A cutoff of  1.0D-16 yielded     78 shell pairs
 There are       322 function pairs (       352 Cartesian)
 Smallest overlap matrix eigenvalue = 3.79E-02

 Scale SEOQF with 1.000000e+00/1.000000e+00/1.000000e+00

 Standard Electronic Orientation quadrupole field applied
 Nucleus-field energy     =    -0.0000000002 hartrees
 Guess from superposition of atomic densities
 Warning:  Energy on first SCF cycle will be non-variational
 SAD guess density has 10.000000 electrons
 A restricted Hartree-Fock SCF calculation will be
 performed using Pulay DIIS extrapolation
 SCF converges when DIIS error is below 1.0E-13
 ---------------------------------------
  Cycle       Energy         DIIS Error
 ---------------------------------------
    1     -75.8313901911      1.28E-01
    2     -75.9862743902      2.41E-02
    3     -76.0133479124      1.26E-02
    4     -76.0211962738      1.44E-03
    5     -76.0213980129      4.05E-04
    6     -76.0214177615      6.70E-05
    7     -76.0214184309      9.76E-06
    8     -76.0214184455      1.04E-06
    9     -76.0214184457      2.95E-07
   10     -76.0214184457      4.18E-08
   11     -76.0214184457      3.13E-09
   12     -76.0214184457      5.82E-10
   13     -76.0214184457      4.31E-11
   14     -76.0214184457      3.32E-12
   15     -76.0214184457      4.29E-13
   16     -76.0214184457      3.01E-14 Convergence criterion met
 ---------------------------------------
 SCF time:  CPU 0.42 s  wall 0.56 s
 SCF   energy in the final basis set = -76.02141845
 Total energy in the final basis set = -76.02141845
 
 --------------------------------------------------------------
             Orbital Energies (a.u.) and Symmetries
 --------------------------------------------------------------
 
 Alpha MOs, Restricted
 -- Occupied --                  
-20.558  -1.316  -0.677  -0.559  -0.490
  1 A1    2 A1    1 B1    3 A1    1 B2                                         
 -- Virtual --                   
  0.178   0.249   0.760   0.816   1.166   1.199   1.256   1.453
  4 A1    2 B1    3 B1    5 A1    6 A1    2 B2    4 B1    7 A1                 
  1.466   1.668   1.877   1.890   2.355   2.388   3.249   3.298
  1 A2    3 B2    8 A1    5 B1    6 B1    9 A1    4 B2    2 A2                 
  3.454   3.821   4.099
 10 A1   11 A1    7 B1                                                         
 
 Beta MOs, Restricted
 -- Occupied --                  
-20.558  -1.316  -0.677  -0.559  -0.490
  1 A1    2 A1    1 B1    3 A1    1 B2                                         
 -- Virtual --                   
  0.178   0.249   0.760   0.816   1.166   1.199   1.256   1.453
  4 A1    2 B1    3 B1    5 A1    6 A1    2 B2    4 B1    7 A1                 
  1.466   1.668   1.877   1.890   2.355   2.388   3.249   3.298
  1 A2    3 B2    8 A1    5 B1    6 B1    9 A1    4 B2    2 A2                 
  3.454   3.821   4.099
 10 A1   11 A1    7 B1                                                         
 --------------------------------------------------------------
 
          Ground-State Mulliken Net Atomic Charges

     Atom                 Charge (a.u.)
  ----------------------------------------
      1 O                    -0.354551
      2 H                     0.177275
      3 H                     0.177275
  ----------------------------------------
  Sum of atomic charges =     0.000000

 -----------------------------------------------------------------
                    Cartesian Multipole Moments
 -----------------------------------------------------------------
    Charge (ESU x 10^10)
                 0.0000
    Dipole Moment (Debye)
         X      -0.0000      Y       0.0000      Z      -2.0955
       Tot       2.0955
    Quadrupole Moments (Debye-Ang)
        XX      -4.0304     XY       0.0000     YY      -7.1302
        XZ      -0.0000     YZ      -0.0000     ZZ      -5.8997
    Octopole Moments (Debye-Ang^2)
       XXX      -0.0000    XXY       0.0000    XYY      -0.0000
       YYY      -0.0000    XXZ      -1.4293    XYZ      -0.0000
       YYZ      -0.2712    XZZ      -0.0000    YZZ      -0.0000
       ZZZ      -1.1771
    Hexadecapole Moments (Debye-Ang^3)
      XXXX      -5.8101   XXXY       0.0000   XXYY      -2.1461
      XYYY       0.0000   YYYY      -4.9703   XXXZ      -0.0000
      XXYZ      -0.0000   XYYZ      -0.0000   YYYZ      -0.0000
      XXZZ      -1.5540   XYZZ       0.0000   YYZZ      -1.9135
      XZZZ      -0.0000   YZZZ      -0.0000   ZZZZ      -6.1084
 -----------------------------------------------------------------

 Begin NBO analysis for the ground state 

 fchar_ptr            1 /
 fchar_ptr            2 o
 fchar_ptr            3 p
 fchar_ptr            4 t
 fchar_ptr            5 /
 fchar_ptr            6 n
 fchar_ptr            7 b
 fchar_ptr            8 o
 fchar_ptr            9 /
 fchar_ptr           10 6
 fchar_ptr           11 .
 fchar_ptr           12 0
 fchar_ptr           13 /
 fchar_ptr           14 b
 fchar_ptr           15 i
 fchar_ptr           16 n
 fchar_ptr           17 /
 fchar_ptr           18 n
 fchar_ptr           19 b
 fchar_ptr           20 o
 fchar_ptr           21 6
 fchar_ptr           22 .
 fchar_ptr           23 i
 fchar_ptr           24 4
 fchar_ptr           25 .
 fchar_ptr           26 e
 fchar_ptr           27 x
 fchar_ptr           28 e
 fchar_ptr           29  
 i=           1 atno=           8 znuc=           8
 i=           2 atno=           1 znuc=           1
 i=           3 atno=           1 znuc=           1
 Carts
             1             2             3
    1   -0.00000000   -1.49418674    1.49418674
    2    0.00000000   -0.00000000   -0.00000000
    3    0.23138460   -0.92553839   -0.92553839
 Carts
             1             2             3
    1   -0.00000000   -0.79068957    0.79068957
    2    0.00000000   -0.00000000   -0.00000000
    3    0.12244346   -0.48977382   -0.48977382
 Sao
             1             2             3             4             5
    1    1.00000000    0.21447601    0.18381687    0.00000000    0.00000000
    2    0.21447601    1.00000000    0.79210940   -0.00000000   -0.00000000
    3    0.18381687    0.79210940    1.00000000    0.00000000    0.00000000
    4    0.00000000   -0.00000000    0.00000000    1.00000000    0.00000000
    5    0.00000000   -0.00000000    0.00000000    0.00000000    1.00000000
    6   -0.00000000   -0.00000000    0.00000000    0.00000000    0.00000000
    7    0.00000000    0.00000000    0.00000000    0.50127148    0.00000000
    8    0.00000000   -0.00000000    0.00000000    0.00000000    0.50127148
    9    0.00000000   -0.00000000    0.00000000    0.00000000    0.00000000
   10   -0.00000000    0.00000000    0.00000000    0.00000000    0.00000000
   11    0.00000000   -0.00000000    0.00000000    0.00000000    0.00000000
   12    0.00000000    0.00000000    0.00000000    0.00000000   -0.00000000
   13   -0.00000000    0.00000000    0.00000000    0.00000000    0.00000000
   14    0.00000000    0.00000000    0.00000000    0.00000000   -0.00000000
   15    0.04378304    0.27095005    0.46982238   -0.20781104   -0.00000000
   16    0.06264533    0.34389850    0.63143496   -0.08484289   -0.00000000
   17    0.07106501    0.33039220    0.30350717   -0.17144279   -0.00000000
   18    0.00000000    0.00000000    0.00000000   -0.00000000    0.17141662
   19    0.05502441    0.25581698    0.23500036   -0.26547012   -0.00000000
   20    0.04378304    0.27095005    0.46982238    0.20781104   -0.00000000
   21    0.06264533    0.34389850    0.63143496    0.08484289   -0.00000000
   22   -0.07106501   -0.33039220   -0.30350717   -0.17144279    0.00000000
   23    0.00000000    0.00000000    0.00000000    0.00000000    0.17141662
   24    0.05502441    0.25581698    0.23500036    0.26547012   -0.00000000
             6             7             8             9            10
    1   -0.00000000    0.00000000    0.00000000    0.00000000   -0.00000000
    2   -0.00000000    0.00000000   -0.00000000   -0.00000000    0.00000000
    3    0.00000000    0.00000000    0.00000000    0.00000000    0.00000000
    4    0.00000000    0.50127148    0.00000000    0.00000000    0.00000000
    5    0.00000000    0.00000000    0.50127148    0.00000000    0.00000000
    6    1.00000000    0.00000000    0.00000000    0.50127148    0.00000000
    7    0.00000000    1.00000000    0.00000000    0.00000000    0.00000000
    8    0.00000000    0.00000000    1.00000000    0.00000000    0.00000000
    9    0.50127148    0.00000000    0.00000000    1.00000000    0.00000000
   10    0.00000000    0.00000000    0.00000000    0.00000000    1.00000000
   11    0.00000000    0.00000000   -0.00000000    0.00000000    0.00000000
   12    0.00000000    0.00000000    0.00000000   -0.00000000    0.00000000
   13    0.00000000   -0.00000000    0.00000000    0.00000000    0.00000000
   14    0.00000000    0.00000000    0.00000000    0.00000000    0.00000000
   15   -0.16090450   -0.48699423   -0.00000000   -0.37707122    0.00000000
   16   -0.06569238   -0.31547346   -0.00000000   -0.24426565    0.00000000
   17   -0.26547012    0.03999390   -0.00000000   -0.25477116    0.00000000
   18   -0.00000000   -0.00000000    0.36903541   -0.00000000   -0.22986424
   19   -0.03413231   -0.25477116   -0.00000000    0.17177051    0.00000000
   20   -0.16090450    0.48699423   -0.00000000   -0.37707122   -0.00000000
   21   -0.06569238    0.31547346   -0.00000000   -0.24426565   -0.00000000
   22    0.26547012    0.03999390    0.00000000    0.25477116    0.00000000
   23   -0.00000000    0.00000000    0.36903541   -0.00000000    0.22986424
   24   -0.03413231    0.25477116   -0.00000000    0.17177051   -0.00000000
            11            12            13            14            15
    1    0.00000000    0.00000000   -0.00000000    0.00000000    0.04378304
    2   -0.00000000    0.00000000    0.00000000    0.00000000    0.27095005
    3    0.00000000    0.00000000    0.00000000    0.00000000    0.46982238
    4    0.00000000    0.00000000    0.00000000    0.00000000   -0.20781104
    5    0.00000000   -0.00000000    0.00000000   -0.00000000   -0.00000000
    6    0.00000000    0.00000000    0.00000000    0.00000000   -0.16090450
    7    0.00000000    0.00000000   -0.00000000    0.00000000   -0.48699423
    8   -0.00000000    0.00000000    0.00000000    0.00000000   -0.00000000
    9    0.00000000   -0.00000000    0.00000000    0.00000000   -0.37707122
   10    0.00000000    0.00000000    0.00000000    0.00000000    0.00000000
   11    1.00000000    0.00000000    0.00000000    0.00000000    0.00000000
   12    0.00000000    1.00000000    0.00000000    0.00000000    0.01368902
   13    0.00000000    0.00000000    1.00000000    0.00000000    0.18448011
   14    0.00000000    0.00000000    0.00000000    1.00000000    0.11912968
   15    0.00000000    0.01368902    0.18448011    0.11912968    1.00000000
   16    0.00000000    0.00158388    0.02134513    0.01378381    0.68486025
   17    0.00000000    0.15928260    0.18009642    0.00136675    0.00000000
   18   -0.17797991    0.00000000    0.00000000    0.00000000    0.00000000
   19    0.00000000   -0.18494048    0.04738808    0.17903816    0.00000000
   20    0.00000000    0.01368902   -0.18448011    0.11912968    0.10146059
   21    0.00000000    0.00158388   -0.02134513    0.01378381    0.28599883
   22   -0.00000000   -0.15928260    0.18009642   -0.00136675   -0.13456362
   23   -0.17797991    0.00000000   -0.00000000    0.00000000   -0.00000000
   24    0.00000000   -0.18494048   -0.04738808    0.17903816   -0.00000000
            16            17            18            19            20
    1    0.06264533    0.07106501    0.00000000    0.05502441    0.04378304
    2    0.34389850    0.33039220    0.00000000    0.25581698    0.27095005
    3    0.63143496    0.30350717    0.00000000    0.23500036    0.46982238
    4   -0.08484289   -0.17144279   -0.00000000   -0.26547012    0.20781104
    5   -0.00000000   -0.00000000    0.17141662   -0.00000000   -0.00000000
    6   -0.06569238   -0.26547012   -0.00000000   -0.03413231   -0.16090450
    7   -0.31547346    0.03999390   -0.00000000   -0.25477116    0.48699423
    8   -0.00000000   -0.00000000    0.36903541   -0.00000000   -0.00000000
    9   -0.24426565   -0.25477116   -0.00000000    0.17177051   -0.37707122
   10    0.00000000    0.00000000   -0.22986424    0.00000000   -0.00000000
   11    0.00000000    0.00000000   -0.17797991    0.00000000    0.00000000
   12    0.00158388    0.15928260    0.00000000   -0.18494048    0.01368902
   13    0.02134513    0.18009642    0.00000000    0.04738808   -0.18448011
   14    0.01378381    0.00136675    0.00000000    0.17903816    0.11912968
   15    0.68486025    0.00000000    0.00000000    0.00000000    0.10146059
   16    1.00000000    0.00000000    0.00000000    0.00000000    0.28599883
   17    0.00000000    1.00000000    0.00000000    0.00000000    0.13456362
   18    0.00000000    0.00000000    1.00000000    0.00000000    0.00000000
   19    0.00000000    0.00000000    0.00000000    1.00000000    0.00000000
   20    0.28599883    0.13456362    0.00000000    0.00000000    1.00000000
   21    0.57998506    0.16928374    0.00000000    0.00000000    0.68486025
   22   -0.16928374   -0.21377539   -0.00000000   -0.00000000    0.00000000
   23   -0.00000000   -0.00000000    0.03892215   -0.00000000    0.00000000
   24   -0.00000000   -0.00000000   -0.00000000    0.03892215    0.00000000
            21            22            23            24
    1    0.06264533   -0.07106501    0.00000000    0.05502441
    2    0.34389850   -0.33039220    0.00000000    0.25581698
    3    0.63143496   -0.30350717    0.00000000    0.23500036
    4    0.08484289   -0.17144279    0.00000000    0.26547012
    5   -0.00000000    0.00000000    0.17141662   -0.00000000
    6   -0.06569238    0.26547012   -0.00000000   -0.03413231
    7    0.31547346    0.03999390    0.00000000    0.25477116
    8   -0.00000000    0.00000000    0.36903541   -0.00000000
    9   -0.24426565    0.25477116   -0.00000000    0.17177051
   10   -0.00000000    0.00000000    0.22986424   -0.00000000
   11    0.00000000   -0.00000000   -0.17797991    0.00000000
   12    0.00158388   -0.15928260    0.00000000   -0.18494048
   13   -0.02134513    0.18009642   -0.00000000   -0.04738808
   14    0.01378381   -0.00136675    0.00000000    0.17903816
   15    0.28599883   -0.13456362   -0.00000000   -0.00000000
   16    0.57998506   -0.16928374   -0.00000000   -0.00000000
   17    0.16928374   -0.21377539   -0.00000000   -0.00000000
   18    0.00000000   -0.00000000    0.03892215   -0.00000000
   19    0.00000000   -0.00000000   -0.00000000    0.03892215
   20    0.68486025    0.00000000    0.00000000    0.00000000
   21    1.00000000   -0.00000000    0.00000000    0.00000000
   22   -0.00000000    1.00000000    0.00000000   -0.00000000
   23    0.00000000    0.00000000    1.00000000    0.00000000
   24    0.00000000   -0.00000000    0.00000000    1.00000000
 Sao packed
             1             2             3             4             5
    1    1.00000000    0.21447601    1.00000000    0.18381687    0.79210940
             6             7             8             9            10
    1    1.00000000    0.00000000   -0.00000000    0.00000000    1.00000000
 BOao
             1             2             3             4             5
    1    1.04080840   -0.08597403   -0.10799270    0.00000000    0.00000000
    2   -0.08597403    0.22072978    0.22950455    0.00000000    0.00000000
    3   -0.10799270    0.22950455    0.27585582    0.00000000   -0.00000000
    4    0.00000000    0.00000000    0.00000000    0.23477045    0.00000000
    5    0.00000000    0.00000000   -0.00000000    0.00000000    0.40040635
    6   -0.02339037    0.04756169    0.15255624   -0.00000000    0.00000000
    7    0.00000000    0.00000000    0.00000000    0.11357676    0.00000000
    8   -0.00000000    0.00000000   -0.00000000   -0.00000000    0.31470840
    9   -0.02553027    0.05716419    0.12656890   -0.00000000    0.00000000
   10   -0.00000000    0.00000000    0.00000000    0.00000000   -0.00000000
   11    0.00000000   -0.00000000   -0.00000000    0.00000000   -0.01113261
   12    0.00090672   -0.00200236   -0.00532041    0.00000000    0.00000000
   13   -0.00000000   -0.00000000    0.00000000   -0.01225709   -0.00000000
   14   -0.00020167    0.00053968   -0.00044566   -0.00000000   -0.00000000
   15   -0.02218464    0.04837827    0.00207271   -0.15468913   -0.00000000
   16    0.00144632   -0.00221543   -0.01205015   -0.04758262    0.00000000
   17   -0.00536362    0.01075262    0.00343740   -0.01139431    0.00000000
   18    0.00000000   -0.00000000   -0.00000000   -0.00000000    0.01856432
   19   -0.00474110    0.00949578    0.00986163   -0.01545329    0.00000000
   20   -0.02218464    0.04837827    0.00207271    0.15468913    0.00000000
   21    0.00144632   -0.00221543   -0.01205015    0.04758262    0.00000000
   22    0.00536362   -0.01075262   -0.00343740   -0.01139431    0.00000000
   23    0.00000000   -0.00000000   -0.00000000   -0.00000000    0.01856432
   24   -0.00474110    0.00949578    0.00986163    0.01545329    0.00000000
             6             7             8             9            10
    1   -0.02339037    0.00000000   -0.00000000   -0.02553027   -0.00000000
    2    0.04756169    0.00000000    0.00000000    0.05716419    0.00000000
    3    0.15255624    0.00000000   -0.00000000    0.12656890    0.00000000
    4   -0.00000000    0.11357676   -0.00000000   -0.00000000    0.00000000
    5    0.00000000    0.00000000    0.31470840    0.00000000   -0.00000000
    6    0.29797977    0.00000000    0.00000000    0.19965861    0.00000000
    7    0.00000000    0.05494593    0.00000000    0.00000000    0.00000000
    8    0.00000000    0.00000000    0.24735216    0.00000000   -0.00000000
    9    0.19965861    0.00000000    0.00000000    0.13678163    0.00000000
   10    0.00000000    0.00000000   -0.00000000    0.00000000    0.00000000
   11   -0.00000000   -0.00000000   -0.00874992   -0.00000000    0.00000000
   12   -0.00947018    0.00000000    0.00000000   -0.00640365   -0.00000000
   13    0.00000000   -0.00592971   -0.00000000    0.00000000   -0.00000000
   14   -0.00269520   -0.00000000   -0.00000000   -0.00169078   -0.00000000
   15   -0.12443011   -0.07483519    0.00000000   -0.07527389   -0.00000000
   16   -0.02767154   -0.02301942    0.00000000   -0.01827982   -0.00000000
   17   -0.01936257   -0.00551232    0.00000000   -0.01133061   -0.00000000
   18    0.00000000   -0.00000000    0.01459105    0.00000000   -0.00000000
   19    0.00196485   -0.00747596    0.00000000    0.00240640   -0.00000000
   20   -0.12443011    0.07483519    0.00000000   -0.07527389    0.00000000
   21   -0.02767154    0.02301942    0.00000000   -0.01827982    0.00000000
   22    0.01936257   -0.00551232    0.00000000    0.01133061   -0.00000000
   23    0.00000000   -0.00000000    0.01459105   -0.00000000   -0.00000000
   24    0.00196485    0.00747596    0.00000000    0.00240640    0.00000000
            11            12            13            14            15
    1    0.00000000    0.00090672   -0.00000000   -0.00020167   -0.02218464
    2   -0.00000000   -0.00200236   -0.00000000    0.00053968    0.04837827
    3   -0.00000000   -0.00532041    0.00000000   -0.00044566    0.00207271
    4    0.00000000    0.00000000   -0.01225709   -0.00000000   -0.15468913
    5   -0.01113261    0.00000000   -0.00000000   -0.00000000   -0.00000000
    6   -0.00000000   -0.00947018    0.00000000   -0.00269520   -0.12443011
    7   -0.00000000    0.00000000   -0.00592971   -0.00000000   -0.07483519
    8   -0.00874992    0.00000000   -0.00000000   -0.00000000    0.00000000
    9   -0.00000000   -0.00640365    0.00000000   -0.00169078   -0.07527389
   10    0.00000000   -0.00000000   -0.00000000   -0.00000000   -0.00000000
   11    0.00030952   -0.00000000    0.00000000    0.00000000   -0.00000000
   12   -0.00000000    0.00030211   -0.00000000    0.00008342    0.00379756
   13    0.00000000   -0.00000000    0.00063993    0.00000000    0.00807614
   14    0.00000000    0.00008342    0.00000000    0.00002879    0.00143619
   15   -0.00000000    0.00379756    0.00807614    0.00143619    0.17576235
   16   -0.00000000    0.00087436    0.00248423    0.00026030    0.04361111
   17   -0.00000000    0.00058353    0.00059488    0.00023818    0.02003374
   18   -0.00051615    0.00000000   -0.00000000   -0.00000000   -0.00000000
   19   -0.00000000   -0.00008356    0.00080680    0.00002405    0.01230723
   20   -0.00000000    0.00379756   -0.00807614    0.00143619   -0.02808552
   21   -0.00000000    0.00087436   -0.00248423    0.00026030   -0.01909281
   22    0.00000000   -0.00058353    0.00059488   -0.00023818   -0.00501842
   23   -0.00051615    0.00000000    0.00000000   -0.00000000    0.00000000
   24   -0.00000000   -0.00008356   -0.00080680    0.00002405   -0.00805696
            16            17            18            19            20
    1    0.00144632   -0.00536362    0.00000000   -0.00474110   -0.02218464
    2   -0.00221543    0.01075262   -0.00000000    0.00949578    0.04837827
    3   -0.01205015    0.00343740   -0.00000000    0.00986163    0.00207271
    4   -0.04758262   -0.01139431   -0.00000000   -0.01545329    0.15468913
    5    0.00000000    0.00000000    0.01856432    0.00000000    0.00000000
    6   -0.02767154   -0.01936257    0.00000000    0.00196485   -0.12443011
    7   -0.02301942   -0.00551232   -0.00000000   -0.00747596    0.07483519
    8    0.00000000    0.00000000    0.01459105    0.00000000    0.00000000
    9   -0.01827982   -0.01133061    0.00000000    0.00240640   -0.07527389
   10   -0.00000000   -0.00000000   -0.00000000   -0.00000000    0.00000000
   11   -0.00000000   -0.00000000   -0.00051615   -0.00000000   -0.00000000
   12    0.00087436    0.00058353    0.00000000   -0.00008356    0.00379756
   13    0.00248423    0.00059488   -0.00000000    0.00080680   -0.00807614
   14    0.00026030    0.00023818   -0.00000000    0.00002405    0.00143619
   15    0.04361111    0.02003374   -0.00000000    0.01230723   -0.02808552
   16    0.01223635    0.00425024    0.00000000    0.00304427   -0.01909281
   17    0.00425024    0.00271264    0.00000000    0.00122030    0.00501842
   18    0.00000000    0.00000000    0.00086071    0.00000000   -0.00000000
   19    0.00304427    0.00122030    0.00000000    0.00142679   -0.00805696
   20   -0.01909281    0.00501842   -0.00000000   -0.00805696    0.17576235
   21   -0.00705147   -0.00036850    0.00000000   -0.00321979    0.04361111
   22    0.00036850   -0.00160662    0.00000000    0.00027971   -0.02003374
   23    0.00000000   -0.00000000    0.00086071    0.00000000   -0.00000000
   24   -0.00321979   -0.00027971   -0.00000000   -0.00060757    0.01230723
            21            22            23            24
    1    0.00144632    0.00536362    0.00000000   -0.00474110
    2   -0.00221543   -0.01075262   -0.00000000    0.00949578
    3   -0.01205015   -0.00343740   -0.00000000    0.00986163
    4    0.04758262   -0.01139431   -0.00000000    0.01545329
    5    0.00000000    0.00000000    0.01856432    0.00000000
    6   -0.02767154    0.01936257    0.00000000    0.00196485
    7    0.02301942   -0.00551232   -0.00000000    0.00747596
    8    0.00000000    0.00000000    0.01459105    0.00000000
    9   -0.01827982    0.01133061   -0.00000000    0.00240640
   10    0.00000000   -0.00000000   -0.00000000    0.00000000
   11   -0.00000000    0.00000000   -0.00051615   -0.00000000
   12    0.00087436   -0.00058353    0.00000000   -0.00008356
   13   -0.00248423    0.00059488    0.00000000   -0.00080680
   14    0.00026030   -0.00023818   -0.00000000    0.00002405
   15   -0.01909281   -0.00501842    0.00000000   -0.00805696
   16   -0.00705147    0.00036850    0.00000000   -0.00321979
   17   -0.00036850   -0.00160662   -0.00000000   -0.00027971
   18    0.00000000    0.00000000    0.00086071   -0.00000000
   19   -0.00321979    0.00027971    0.00000000   -0.00060757
   20    0.04361111   -0.02003374   -0.00000000    0.01230723
   21    0.01223635   -0.00425024   -0.00000000    0.00304427
   22   -0.00425024    0.00271264    0.00000000   -0.00122030
   23   -0.00000000    0.00000000    0.00086071   -0.00000000
   24    0.00304427   -0.00122030   -0.00000000    0.00142679
 Fao
             1             2             3             4             5
    1  -20.55477367   -4.64519786   -3.93933582    0.00000000   -0.00000000
    2   -4.64519786   -1.86155484   -2.09654821    0.00000000   -0.00000000
    3   -3.93933582   -2.09654821   -1.80477989    0.00000000   -0.00000000
    4    0.00000000    0.00000000    0.00000000   -0.05355212    0.00000000
    5   -0.00000000   -0.00000000   -0.00000000    0.00000000   -0.14524886
    6    0.02305037    0.03662195    0.08302292    0.00000000    0.00000000
    7    0.00000000    0.00000000    0.00000000   -0.68178233    0.00000000
    8   -0.00000000   -0.00000000   -0.00000000    0.00000000   -0.65869455
    9    0.00500912    0.05310760    0.16981083    0.00000000    0.00000000
   10    0.00000000    0.00000000    0.00000000   -0.00000000    0.00000000
   11    0.00000000    0.00000000    0.00000000    0.00000000    0.06939310
   12    0.00023042   -0.00545669   -0.01059890   -0.00000000    0.00000000
   13    0.00000000    0.00000000    0.00000000    0.20391693    0.00000000
   14    0.00295660   -0.07226427   -0.10380095    0.00000000    0.00000000
   15   -0.95256225   -0.84672064   -0.77677068    0.44418835   -0.00000000
   16   -1.35467526   -1.02862252   -0.91083054    0.19437575   -0.00000000
   17   -1.53079108   -0.77053476   -0.65581457    0.01521505   -0.00000000
   18    0.00000000    0.00000000    0.00000000   -0.00000000   -0.28564174
   19   -1.18355607   -0.60035024   -0.49255532    0.19183560   -0.00000000
   20   -0.95256225   -0.84672064   -0.77677068   -0.44418835   -0.00000000
   21   -1.35467526   -1.02862252   -0.91083054   -0.19437575   -0.00000000
   22    1.53079108    0.77053476    0.65581457    0.01521505    0.00000000
   23    0.00000000    0.00000000    0.00000000    0.00000000   -0.28564174
   24   -1.18355607   -0.60035024   -0.49255532   -0.19183560   -0.00000000
             6             7             8             9            10
    1    0.02305037    0.00000000   -0.00000000    0.00500912    0.00000000
    2    0.03662195    0.00000000   -0.00000000    0.05310760    0.00000000
    3    0.08302292    0.00000000   -0.00000000    0.16981083    0.00000000
    4    0.00000000   -0.68178233    0.00000000    0.00000000   -0.00000000
    5    0.00000000    0.00000000   -0.65869455    0.00000000    0.00000000
    6   -0.09267732    0.00000000    0.00000000   -0.67708375    0.00000000
    7    0.00000000   -0.19164297    0.00000000    0.00000000   -0.00000000
    8    0.00000000    0.00000000    0.01992697    0.00000000    0.00000000
    9   -0.67708375    0.00000000    0.00000000   -0.11060167    0.00000000
   10    0.00000000   -0.00000000    0.00000000    0.00000000    2.92585747
   11   -0.00000000    0.00000000    0.05964969   -0.00000000    0.00000000
   12    0.08425035   -0.00000000    0.00000000    0.07699250    0.00000000
   13    0.00000000    0.22983825    0.00000000    0.00000000    0.00000000
   14    0.06884066    0.00000000    0.00000000    0.08441678    0.00000000
   15    0.36192125    0.28070506   -0.00000000    0.24325990    0.00000000
   16    0.20469893    0.10643838   -0.00000000    0.19279830    0.00000000
   17    0.22261952    0.04059744   -0.00000000    0.07244043    0.00000000
   18   -0.00000000   -0.00000000   -0.03593115   -0.00000000   -0.19063451
   19   -0.09846681    0.03523879   -0.00000000    0.00916636    0.00000000
   20    0.36192125   -0.28070506   -0.00000000    0.24325990   -0.00000000
   21    0.20469893   -0.10643838   -0.00000000    0.19279830   -0.00000000
   22   -0.22261952    0.04059744    0.00000000   -0.07244043    0.00000000
   23   -0.00000000    0.00000000   -0.03593115   -0.00000000    0.19063451
   24   -0.09846681   -0.03523879   -0.00000000    0.00916636   -0.00000000
            11            12            13            14            15
    1    0.00000000    0.00023042    0.00000000    0.00295660   -0.95256225
    2    0.00000000   -0.00545669    0.00000000   -0.07226427   -0.84672064
    3    0.00000000   -0.01059890    0.00000000   -0.10380095   -0.77677068
    4    0.00000000   -0.00000000    0.20391693    0.00000000    0.44418835
    5    0.06939310    0.00000000    0.00000000    0.00000000   -0.00000000
    6   -0.00000000    0.08425035    0.00000000    0.06884066    0.36192125
    7    0.00000000   -0.00000000    0.22983825    0.00000000    0.28070506
    8    0.05964969    0.00000000    0.00000000    0.00000000   -0.00000000
    9   -0.00000000    0.07699250    0.00000000    0.08441678    0.24325990
   10    0.00000000    0.00000000    0.00000000    0.00000000    0.00000000
   11    2.94864217    0.00000000    0.00000000    0.00000000    0.00000000
   12    0.00000000    2.91861819    0.00000000    0.02601705   -0.02057779
   13    0.00000000    0.00000000    2.78476902    0.00000000   -0.07068776
   14    0.00000000    0.02601705    0.00000000    2.88375185   -0.04429875
   15    0.00000000   -0.02057779   -0.07068776   -0.04429875   -0.42162019
   16    0.00000000   -0.01880581   -0.05975809   -0.07770441   -0.58107845
   17    0.00000000    0.12591828    0.39242022    0.14130701   -0.44959247
   18   -0.13552498    0.00000000    0.00000000    0.00000000    0.00000000
   19    0.00000000   -0.13846807    0.20610770    0.27093487   -0.32573241
   20    0.00000000   -0.02057779    0.07068776   -0.04429875   -0.24957403
   21    0.00000000   -0.01880581    0.05975809   -0.07770441   -0.38807519
   22   -0.00000000   -0.12591828    0.39242022   -0.14130701    0.33604095
   23   -0.13552498    0.00000000   -0.00000000    0.00000000    0.00000000
   24    0.00000000   -0.13846807   -0.20610770    0.27093487   -0.07895216
            16            17            18            19            20
    1   -1.35467526   -1.53079108    0.00000000   -1.18355607   -0.95256225
    2   -1.02862252   -0.77053476    0.00000000   -0.60035024   -0.84672064
    3   -0.91083054   -0.65581457    0.00000000   -0.49255532   -0.77677068
    4    0.19437575    0.01521505   -0.00000000    0.19183560   -0.44418835
    5   -0.00000000   -0.00000000   -0.28564174   -0.00000000   -0.00000000
    6    0.20469893    0.22261952   -0.00000000   -0.09846681    0.36192125
    7    0.10643838    0.04059744   -0.00000000    0.03523879   -0.28070506
    8   -0.00000000   -0.00000000   -0.03593115   -0.00000000   -0.00000000
    9    0.19279830    0.07244043   -0.00000000    0.00916636    0.24325990
   10    0.00000000    0.00000000   -0.19063451    0.00000000   -0.00000000
   11    0.00000000    0.00000000   -0.13552498    0.00000000    0.00000000
   12   -0.01880581    0.12591828    0.00000000   -0.13846807   -0.02057779
   13   -0.05975809    0.39242022    0.00000000    0.20610770    0.07068776
   14   -0.07770441    0.14130701    0.00000000    0.27093487   -0.04429875
   15   -0.58107845   -0.44959247    0.00000000   -0.32573241   -0.24957403
   16   -0.47594704   -0.42416662    0.00000000   -0.30393797   -0.38807519
   17   -0.42416662    0.93332347    0.00000000   -0.31330646   -0.33604095
   18    0.00000000    0.00000000    1.34220526    0.00000000   -0.00000000
   19   -0.30393797   -0.31330646    0.00000000    1.10902469   -0.07895216
   20   -0.38807519   -0.33604095   -0.00000000   -0.07895216   -0.42162019
   21   -0.45155054   -0.34823756    0.00000000   -0.20121262   -0.58107845
   22    0.34823756    0.36689398   -0.00000000    0.15455975    0.44959247
   23   -0.00000000   -0.00000000   -0.09616411    0.00000000    0.00000000
   24   -0.20121262   -0.15455975   -0.00000000   -0.12988122   -0.32573241
            21            22            23            24
    1   -1.35467526    1.53079108    0.00000000   -1.18355607
    2   -1.02862252    0.77053476    0.00000000   -0.60035024
    3   -0.91083054    0.65581457    0.00000000   -0.49255532
    4   -0.19437575    0.01521505    0.00000000   -0.19183560
    5   -0.00000000    0.00000000   -0.28564174   -0.00000000
    6    0.20469893   -0.22261952   -0.00000000   -0.09846681
    7   -0.10643838    0.04059744    0.00000000   -0.03523879
    8   -0.00000000    0.00000000   -0.03593115   -0.00000000
    9    0.19279830   -0.07244043   -0.00000000    0.00916636
   10   -0.00000000    0.00000000    0.19063451   -0.00000000
   11    0.00000000   -0.00000000   -0.13552498    0.00000000
   12   -0.01880581   -0.12591828    0.00000000   -0.13846807
   13    0.05975809    0.39242022   -0.00000000   -0.20610770
   14   -0.07770441   -0.14130701    0.00000000    0.27093487
   15   -0.38807519    0.33604095    0.00000000   -0.07895216
   16   -0.45155054    0.34823756   -0.00000000   -0.20121262
   17   -0.34823756    0.36689398   -0.00000000   -0.15455975
   18    0.00000000   -0.00000000   -0.09616411   -0.00000000
   19   -0.20121262    0.15455975    0.00000000   -0.12988122
   20   -0.58107845    0.44959247    0.00000000   -0.32573241
   21   -0.47594704    0.42416662    0.00000000   -0.30393797
   22    0.42416662    0.93332347    0.00000000    0.31330646
   23    0.00000000    0.00000000    1.34220526    0.00000000
   24   -0.30393797    0.31330646    0.00000000    1.10902469
 itmp=   123456789  -987654321

 *********************************** NBO 6.0 ***********************************
             N A T U R A L   A T O M I C   O R B I T A L   A N D
          N A T U R A L   B O N D   O R B I T A L   A N A L Y S I S
 **************************** Justin Turney (100532) ***************************
  (c) Copyright 1996-2018 Board of Regents of the University of Wisconsin System
      on behalf of the Theoretical Chemistry Institute.  All rights reserved.

          Cite this program [NBO 6.0.19 (05-Aug-2018)] as:

          NBO 6.0.  E. D. Glendening, J. K. Badenhoop, A. E. Reed,
          J. E. Carpenter, J. A. Bohmann, C. M. Morales, C. R. Landis,
          and F. Weinhold (Theoretical Chemistry Institute, University
          of Wisconsin, Madison, WI, 2013); http://nbo6.chem.wisc.edu/
 nat=           3
 NBas=          24
 iopen=           0
 escf=  -76.0214184457308     
 sending         300  elements

 Job title:  unknown


 NATURAL POPULATIONS:  Natural atomic orbital occupancies

  NAO Atom No lang   Type(AO)    Occupancy      Energy
 -------------------------------------------------------
   1    O  1  s      Cor( 1s)     2.00000     -20.55769
   2    O  1  s      Val( 2s)     1.78231      -1.04218
   3    O  1  s      Ryd( 3s)     0.00061       1.90029
   4    O  1  px     Val( 2p)     1.44115      -0.30572
   5    O  1  px     Ryd( 3p)     0.00168       1.31658
   6    O  1  py     Val( 2p)     1.99555      -0.48561
   7    O  1  py     Ryd( 3p)     0.00066       1.20153
   8    O  1  pz     Val( 2p)     1.69871      -0.39760
   9    O  1  pz     Ryd( 3p)     0.00017       1.24778
  10    O  1  dxy    Ryd( 3d)     0.00000       3.05850
  11    O  1  dxz    Ryd( 3d)     0.00373       3.59121
  12    O  1  dyz    Ryd( 3d)     0.00128       3.03877
  13    O  1  dx2y2  Ryd( 3d)     0.00097       3.32203
  14    O  1  dz2    Ryd( 3d)     0.00154       3.09718

  15    H  2  s      Val( 1s)     0.53013       0.21836
  16    H  2  s      Ryd( 2s)     0.00101       0.50288
  17    H  2  px     Ryd( 2p)     0.00211       2.37724
  18    H  2  py     Ryd( 2p)     0.00125       1.78784
  19    H  2  pz     Ryd( 2p)     0.00132       2.14242

  20    H  3  s      Val( 1s)     0.53013       0.21836
  21    H  3  s      Ryd( 2s)     0.00101       0.50288
  22    H  3  px     Ryd( 2p)     0.00211       2.37724
  23    H  3  py     Ryd( 2p)     0.00125       1.78784
  24    H  3  pz     Ryd( 2p)     0.00132       2.14242


 Summary of Natural Population Analysis:

                                     Natural Population
             Natural    ---------------------------------------------
  Atom No    Charge        Core      Valence    Rydberg      Total
 --------------------------------------------------------------------
    O  1   -0.92835      2.00000     6.91773    0.01063     8.92835
    H  2    0.46418      0.00000     0.53013    0.00569     0.53582
    H  3    0.46418      0.00000     0.53013    0.00569     0.53582
 ====================================================================
 * Total *  0.00000      2.00000     7.97798    0.02202    10.00000

                                 Natural Population
 ---------------------------------------------------------
   Core                       2.00000 ( 99.9999% of    2)
   Valence                    7.97798 ( 99.7248% of    8)
   Natural Minimal Basis      9.97798 ( 99.7798% of   10)
   Natural Rydberg Basis      0.02202 (  0.2202% of   10)
 ---------------------------------------------------------

    Atom No         Natural Electron Configuration
 ----------------------------------------------------------------------------
      O  1      [core]2s( 1.78)2p( 5.14)3d( 0.01)
      H  2            1s( 0.53)
      H  3            1s( 0.53)


 NATURAL BOND ORBITAL ANALYSIS:

                            Occupancies       Lewis Structure    Low   High
         Max    Occ     -------------------  -----------------   occ   occ
  Cycle  Ctr   Thresh    Lewis   non-Lewis     CR  BD  nC  LP    (L)   (NL)
 ============================================================================
    1     2     1.90     9.99314   0.00686      1   2   0   2     0      0
 ----------------------------------------------------------------------------

 Structure accepted: No low occupancy Lewis orbitals

 -------------------------------------------------------
   Core                      2.00000 (100.000% of   2)
   Valence Lewis             7.99314 ( 99.914% of   8)
  ==================      =============================
   Total Lewis               9.99314 ( 99.931% of  10)
  -----------------------------------------------------
   Valence non-Lewis         0.00051 (  0.005% of  10)
   Rydberg non-Lewis         0.00635 (  0.064% of  10)
  ==================      =============================
   Total non-Lewis           0.00686 (  0.069% of  10)
 -------------------------------------------------------


     (Occupancy)   Bond orbital / Coefficients / Hybrids
 ------------------ Lewis ------------------------------------------------------
   1. (2.00000) CR ( 1) O  1            s(100.00%)
                                         1.0000  0.0000  0.0000  0.0000  0.0000
                                         0.0000  0.0000  0.0000  0.0000  0.0000
                                         0.0000  0.0000  0.0000  0.0000
   2. (1.99791) LP ( 1) O  1            s( 57.98%)p 0.72( 41.98%)d 0.00(  0.04%)
                                         0.0000  0.7614 -0.0103  0.0000  0.0000
                                         0.0000  0.0000  0.6479 -0.0092  0.0000
                                         0.0000  0.0000  0.0039 -0.0184
   3. (1.99749) LP ( 2) O  1            s(  0.00%)p 1.00( 99.94%)d 0.00(  0.06%)
                                         0.0000  0.0000  0.0000  0.0000  0.0000
                                         0.9995 -0.0182  0.0000  0.0000  0.0000
                                         0.0000 -0.0253  0.0000  0.0000
   4. (1.99887) BD ( 1) O  1- H  2
               ( 73.36%)   0.8565* O  1 s( 21.01%)p 3.75( 78.81%)d 0.01(  0.19%)
                                         0.0000  0.4582  0.0115 -0.7058 -0.0241
                                         0.0000  0.0000 -0.5379  0.0007  0.0000
                                         0.0359  0.0000  0.0178  0.0170
               ( 26.64%)   0.5161* H  2 s( 99.53%)p 0.00(  0.47%)
                                         0.9976 -0.0011  0.0601  0.0000  0.0336
   5. (1.99887) BD ( 1) O  1- H  3
               ( 73.36%)   0.8565* O  1 s( 21.01%)p 3.75( 78.81%)d 0.01(  0.19%)
                                         0.0000  0.4582  0.0115  0.7058  0.0241
                                         0.0000  0.0000 -0.5379  0.0007  0.0000
                                        -0.0359  0.0000  0.0178  0.0170
               ( 26.64%)   0.5161* H  3 s( 99.53%)p 0.00(  0.47%)
                                         0.9976 -0.0011 -0.0601  0.0000  0.0336
 ---------------- non-Lewis ----------------------------------------------------
   6. (0.00025) BD*( 1) O  1- H  2
               ( 26.64%)   0.5161* O  1 s( 21.01%)p 3.75( 78.81%)d 0.01(  0.19%)
                                         0.0000 -0.4582 -0.0115  0.7058  0.0241
                                         0.0000  0.0000  0.5379 -0.0007  0.0000
                                        -0.0359  0.0000 -0.0178 -0.0170
               ( 73.36%)  -0.8565* H  2 s( 99.53%)p 0.00(  0.47%)
                                        -0.9976  0.0011 -0.0601  0.0000 -0.0336
   7. (0.00025) BD*( 1) O  1- H  3
               ( 26.64%)   0.5161* O  1 s( 21.01%)p 3.75( 78.81%)d 0.01(  0.19%)
                                         0.0000 -0.4582 -0.0115 -0.7058 -0.0241
                                         0.0000  0.0000  0.5379 -0.0007  0.0000
                                         0.0359  0.0000 -0.0178 -0.0170
               ( 73.36%)  -0.8565* H  3 s( 99.53%)p 0.00(  0.47%)
                                        -0.9976  0.0011  0.0601  0.0000 -0.0336
   8. (0.00000) RY ( 1) O  1            s( 14.46%)p 5.83( 84.29%)d 0.09(  1.26%)
   9. (0.00000) RY ( 2) O  1            s( 85.33%)p 0.17( 14.67%)d 0.00(  0.00%)
  10. (0.00000) RY ( 3) O  1            s(  0.00%)p 1.00(100.00%)d 0.00(  0.00%)
  11. (0.00000) RY ( 4) O  1            s(  0.00%)p 1.00(100.00%)d 0.00(  0.00%)
  12. (0.00000) RY ( 5) O  1            s(  0.00%)p 0.00(  0.00%)d 1.00(100.00%)
  13. (0.00000) RY ( 6) O  1            s(  0.00%)p 1.00(  0.26%)d99.99( 99.74%)
  14. (0.00000) RY ( 7) O  1            s(  0.00%)p 1.00(  0.06%)d99.99( 99.94%)
  15. (0.00000) RY ( 8) O  1            s(  0.20%)p 4.83(  0.97%)d99.99( 98.83%)
  16. (0.00000) RY ( 9) O  1            s(  0.02%)p 9.83(  0.22%)d99.99( 99.76%)
  17. (0.00125) RY ( 1) H  2            s(  0.00%)p 1.00(100.00%)
                                         0.0000  0.0000  0.0000  1.0000  0.0000
  18. (0.00106) RY ( 2) H  2            s( 77.34%)p 0.29( 22.66%)
                                         0.0064  0.8794  0.1595  0.0000 -0.4485
  19. (0.00086) RY ( 3) H  2            s( 21.81%)p 3.59( 78.19%)
                                         0.0038  0.4670 -0.4721  0.0000  0.7477
  20. (0.00000) RY ( 4) H  2            s(  1.33%)p74.22( 98.67%)
  21. (0.00125) RY ( 1) H  3            s(  0.00%)p 1.00(100.00%)
                                         0.0000  0.0000  0.0000  1.0000  0.0000
  22. (0.00106) RY ( 2) H  3            s( 77.34%)p 0.29( 22.66%)
                                         0.0064  0.8794 -0.1595  0.0000 -0.4485
  23. (0.00086) RY ( 3) H  3            s( 21.81%)p 3.59( 78.19%)
                                         0.0038  0.4670  0.4721  0.0000  0.7477
  24. (0.00000) RY ( 4) H  3            s(  1.33%)p74.22( 98.67%)


 NHO DIRECTIONALITY AND BOND BENDING (deviation from line of nuclear centers at
                                      the position of maximum hybrid amplitude)

         [Thresholds for printing:  angular deviation  >  1.0 degree]
                                    p- or d-character  > 25.0%
                                    orbital occupancy  >  0.10e

                        Line of Centers        Hybrid 1             Hybrid 2
                        ---------------  -------------------  ------------------
           NBO            Theta   Phi    Theta   Phi    Dev   Theta   Phi    Dev
 ===============================================================================
   2. LP ( 1) O  1          --     --      0.0    0.0   --      --     --    --
   3. LP ( 2) O  1          --     --     90.7   90.0   --      --     --    --


 SECOND ORDER PERTURBATION THEORY ANALYSIS OF FOCK MATRIX IN NBO BASIS

     Threshold for printing:   0.50 kcal/mol
                                                          E(2) E(NL)-E(L) F(L,NL)
      Donor (L) NBO              Acceptor (NL) NBO      kcal/mol   a.u.    a.u.
 ===============================================================================

 within unit  1
    2. LP ( 1) O  1            18. RY ( 2) H  2            1.26    1.68   0.041
    2. LP ( 1) O  1            22. RY ( 2) H  3            1.26    1.68   0.041
    3. LP ( 2) O  1            17. RY ( 1) H  2            1.93    2.28   0.059
    3. LP ( 2) O  1            21. RY ( 1) H  3            1.93    2.28   0.059
    4. BD ( 1) O  1- H  2      23. RY ( 3) H  3            0.88    2.42   0.041
    5. BD ( 1) O  1- H  3      19. RY ( 3) H  2            0.88    2.42   0.041


 NATURAL BOND ORBITALS (Summary):

                                                     Principal Delocalizations
           NBO                 Occupancy    Energy   (geminal,vicinal,remote)
 ===============================================================================
 Molecular unit  1  (H2O)
 ------ Lewis --------------------------------------
    1. CR ( 1) O  1             2.00000   -20.55769
    2. LP ( 1) O  1             1.99791    -0.82689  18(v),22(v)
    3. LP ( 2) O  1             1.99749    -0.48742  17(v),21(v)
    4. BD ( 1) O  1- H  2       1.99887    -0.86061  23(v)
    5. BD ( 1) O  1- H  3       1.99887    -0.86061  19(v)
 ------ non-Lewis ----------------------------------
    6. BD*( 1) O  1- H  2       0.00025     0.65775
    7. BD*( 1) O  1- H  3       0.00025     0.65775
    8. RY ( 1) O  1             0.00000     1.47004
    9. RY ( 2) O  1             0.00000     1.74821
   10. RY ( 3) O  1             0.00000     1.31444
   11. RY ( 4) O  1             0.00000     1.20203
   12. RY ( 5) O  1             0.00000     3.05850
   13. RY ( 6) O  1             0.00000     3.58832
   14. RY ( 7) O  1             0.00000     3.04009
   15. RY ( 8) O  1             0.00000     3.25653
   16. RY ( 9) O  1             0.00000     3.09166
   17. RY ( 1) H  2             0.00125     1.78784
   18. RY ( 2) H  2             0.00106     0.84994
   19. RY ( 3) H  2             0.00086     1.55492
   20. RY ( 4) H  2             0.00000     2.58253
   21. RY ( 1) H  3             0.00125     1.78784
   22. RY ( 2) H  3             0.00106     0.84994
   23. RY ( 3) H  3             0.00086     1.55492
   24. RY ( 4) H  3             0.00000     2.58253
          -------------------------------
                 Total Lewis    9.99314  ( 99.9314%)
           Valence non-Lewis    0.00051  (  0.0051%)
           Rydberg non-Lewis    0.00635  (  0.0635%)
          -------------------------------
               Total unit  1   10.00000  (100.0000%)
              Charge unit  1    0.00000

 $CHOOSE
   LONE 1 2 END
   BOND S 1 2 S 1 3 END
 $END

 NBO analysis completed in 0.03 CPU seconds (1067260382 wall seconds)
 Maximum scratch memory used by NBO was 227628 words (1.74 MB)

===================================================================================
=   BAD TERMINATION OF ONE OF YOUR APPLICATION PROCESSES
=   PID 10417 RUNNING AT n029
=   EXIT CODE: 139
=   CLEANING UP REMAINING PROCESSES
=   YOU CAN IGNORE THE BELOW CLEANUP MESSAGES
===================================================================================
YOUR APPLICATION TERMINATED WITH THE EXIT STRING: Segmentation fault (signal 11)
This typically refers to a problem with your application.
Please see the FAQ page for debugging suggestions
