    -----------------------------------------------------------------------
          Psi4: An Open-Source Ab Initio Electronic Structure Package
                              Psi4 0.5 Driver

                          Git: Rev {master} dbe9080

    J. M. Turney, A. C. Simmonett, R. M. Parrish, E. G. Hohenstein,
    F. A. Evangelista, J. T. Fermann, B. J. Mintz, L. A. Burns, J. J. Wilke,
    M. L. Abrams, N. J. Russ, M. L. Leininger, C. L. Janssen, E. T. Seidl,
    W. D. Allen, H. F. Schaefer, R. A. King, E. F. Valeev, C. D. Sherrill,
    and T. D. Crawford, WIREs Comput. Mol. Sci. 2, 556-565 (2012)
    (doi: 10.1002/wcms.93)

                         Additional Contributions by
    A. E. DePrince, M. Saitow, U. Bozkaya, A. Yu. Sokolov
    -----------------------------------------------------------------------


    Psi4 started on: Mon Mar 14 15:16:16 2016

    Process ID:  10888
    PSI4DATADIR: /home/dsmith/Gits/dgas_psi/share
    Memory level set to 256.000 MB

  ==> Input File <==

--------------------------------------------------------------------------
#! Test QCISD(T) for H2O/cc-pvdz Energy
molecule h2o {
0 1
O
H 1 1.0 
H 1 1.0 2 104.5
}
set {
  e_convergence 1e-10
  d_convergence 1e-10
  r_convergence 1e-10
  basis cc-pvdz
  freeze_core true
}
energy('qcisd(t)')

refscf    = -76.02141844515494 #TEST
refqcisd  =  -0.214455072238 #TEST
refqcisdt =  -0.217610678343 #TEST

compare_values(refscf, get_variable("SCF TOTAL ENERGY"), 8, "SCF total energy") #TEST
compare_values(refqcisd, get_variable("QCISD CORRELATION ENERGY"), 8, "QCISD correlation energy") #TEST
compare_values(refqcisdt, get_variable("QCISD(T) CORRELATION ENERGY"), 8, "QCISD(T) correlation energy") #TEST

clean()
--------------------------------------------------------------------------

*** tstart() called on ds1.sherrill.chemistry.gatech.edu
*** at Mon Mar 14 15:16:16 2016


         ---------------------------------------------------------
                                   SCF
            by Justin Turney, Rob Parrish, and Andy Simmonett
                              RHF Reference
                        1 Threads,    256 MiB Core
         ---------------------------------------------------------

  ==> Geometry <==

    Molecular point group: c2v
    Full point group: C2v

    Geometry (in Angstrom), charge = 0, multiplicity = 1:

       Center              X                  Y                   Z               Mass       
    ------------   -----------------  -----------------  -----------------  -----------------
           O          0.000000000000     0.000000000000    -0.068516219310    15.994914619560
           H          0.000000000000    -0.790689573744     0.543701060724     1.007825032070
           H          0.000000000000     0.790689573744     0.543701060724     1.007825032070

  Running in c2v symmetry.

  Rotational constants: A =     25.12555  B =     13.37733  C =      8.72955 [cm^-1]
  Rotational constants: A = 753245.06586  B = 401042.16407  C = 261705.25278 [MHz]
  Nuclear repulsion =    8.801465529972067

  Charge       = 0
  Multiplicity = 1
  Electrons    = 10
  Nalpha       = 5
  Nbeta        = 5

  ==> Algorithm <==

  SCF Algorithm Type is PK.
  DIIS enabled.
  MOM disabled.
  Fractional occupation disabled.
  Guess Type is CORE.
  Energy threshold   = 1.00e-10
  Density threshold  = 1.00e-10
  Integral threshold = 0.00e+00

  ==> Primary Basis <==

  Basis Set: CC-PVDZ
    Number of shells: 12
    Number of basis function: 24
    Number of Cartesian functions: 25
    Spherical Harmonics?: true
    Max angular momentum: 2

  ==> Pre-Iterations <==

   -------------------------------------------------------
    Irrep   Nso     Nmo     Nalpha   Nbeta   Ndocc  Nsocc
   -------------------------------------------------------
     A1        11      11       0       0       0       0
     A2         2       2       0       0       0       0
     B1         4       4       0       0       0       0
     B2         7       7       0       0       0       0
   -------------------------------------------------------
    Total      24      24       5       5       5       0
   -------------------------------------------------------

  ==> Integral Setup <==

	Batch   1 pq = [       0,     107] index = [             0,5778]
  ==> DiskJK: Disk-Based J/K Matrices <==

    J tasked:                  Yes
    K tasked:                  Yes
    wK tasked:                  No
    Memory (MB):               183
    Schwarz Cutoff:          1E-12

  Minimum eigenvalue in the overlap matrix is 3.7382439507E-02.
  Using Symmetric Orthogonalization.
  SCF Guess: Core (One-Electron) Hamiltonian.

  ==> Iterations <==

                        Total Energy        Delta E     RMS |[F,P]|

    Occupation by irrep:
             A1    A2    B1    B2 
    DOCC [     3,    0,    0,    2 ]

   @RHF iter   1:   -68.92345273387481   -6.89235e+01   2.17246e-01 
    Occupation by irrep:
             A1    A2    B1    B2 
    DOCC [     3,    0,    1,    1 ]

   @RHF iter   2:   -69.87832927887135   -9.54877e-01   1.85057e-01 DIIS
   @RHF iter   3:   -75.76505683712051   -5.88673e+00   5.89320e-02 DIIS
   @RHF iter   4:   -75.99909055478020   -2.34034e-01   1.58268e-02 DIIS
   @RHF iter   5:   -76.02109883592935   -2.20083e-02   1.49473e-03 DIIS
   @RHF iter   6:   -76.02136729063047   -2.68455e-04   7.42845e-04 DIIS
   @RHF iter   7:   -76.02141644684093   -4.91562e-05   9.96120e-05 DIIS
   @RHF iter   8:   -76.02141833859487   -1.89175e-06   3.53792e-05 DIIS
   @RHF iter   9:   -76.02141844395751   -1.05363e-07   2.19420e-06 DIIS
   @RHF iter  10:   -76.02141844507089   -1.11338e-09   8.32534e-07 DIIS
   @RHF iter  11:   -76.02141844515252   -8.16271e-11   1.58269e-07 DIIS
   @RHF iter  12:   -76.02141844515488   -2.35900e-12   1.09922e-08 DIIS
   @RHF iter  13:   -76.02141844515488    0.00000e+00   1.07089e-09 DIIS
   @RHF iter  14:   -76.02141844515488    0.00000e+00   1.45663e-10 DIIS
   @RHF iter  15:   -76.02141844515486    1.42109e-14   8.92642e-12 DIIS

  ==> Post-Iterations <==

    Orbital Energies (a.u.)
    -----------------------

    Doubly Occupied:                                                      

       1A1   -20.557846     2A1    -1.316181     1B2    -0.677073  
       3A1    -0.558726     1B1    -0.490383  

    Virtual:                                                              

       4A1     0.178011     2B2     0.249490     3B2     0.760274  
       5A1     0.816118     6A1     1.166182     2B1     1.198611  
       4B2     1.256467     7A1     1.452518     1A2     1.466082  
       3B1     1.667951     8A1     1.877148     5B2     1.889827  
       6B2     2.354901     9A1     2.388286     4B1     3.248786  
       2A2     3.297834    10A1     3.453879    11A1     3.821364  
       7B2     4.099041  

    Final Occupation by Irrep:
             A1    A2    B1    B2 
    DOCC [     3,    0,    1,    1 ]

  Energy converged.

  @RHF Final Energy:   -76.02141844515486

   => Energetics <=

    Nuclear Repulsion Energy =              8.8014655299720665
    One-Electron Energy =                -122.4453516198961722
    Two-Electron Energy =                  37.6224676447692161
    DFT Exchange-Correlation Energy =       0.0000000000000000
    Empirical Dispersion Energy =           0.0000000000000000
    PCM Polarization Energy =               0.0000000000000000
    EFP Energy =                            0.0000000000000000
    Total Energy =                        -76.0214184451548931

    Alert: EFP and PCM quantities not currently incorporated into SCF psivars.

Properties will be evaluated at   0.000000,   0.000000,   0.000000 Bohr
  ==> Properties <==


Properties computed using the SCF density matrix

  Nuclear Dipole Moment: (a.u.)
     X:     0.0000      Y:     0.0000      Z:     1.0191

  Electronic Dipole Moment: (a.u.)
     X:     0.0000      Y:     0.0000      Z:    -0.1947

  Dipole Moment: (a.u.)
     X:     0.0000      Y:     0.0000      Z:     0.8244     Total:     0.8244

  Dipole Moment: (Debye)
     X:     0.0000      Y:     0.0000      Z:     2.0955     Total:     2.0955


  Saving occupied orbitals to File 180.

*** tstop() called on ds1.sherrill.chemistry.gatech.edu at Mon Mar 14 15:16:16 2016
Module time:
	user time   =       0.03 seconds =       0.00 minutes
	system time =       0.01 seconds =       0.00 minutes
	total time  =          0 seconds =       0.00 minutes
Total time:
	user time   =       0.03 seconds =       0.00 minutes
	system time =       0.01 seconds =       0.00 minutes
	total time  =          0 seconds =       0.00 minutes

*** tstart() called on ds1.sherrill.chemistry.gatech.edu
*** at Mon Mar 14 15:16:16 2016

        ==> Transform all two-electron integrals <==

	Presorting SO-basis two-electron integrals.
	Sorting File: SO Ints (nn|nn) nbuckets = 1
	Transforming the one-electron integrals and constructing Fock matrices
	Starting first half-transformation.
	Sorting half-transformed integrals.
	First half integral transformation complete.
	Starting second half-transformation.
	Two-electron integral transformation complete.

*** tstop() called on ds1.sherrill.chemistry.gatech.edu at Mon Mar 14 15:16:16 2016
Module time:
	user time   =      -0.00 seconds =      -0.00 minutes
	system time =       0.01 seconds =       0.00 minutes
	total time  =          0 seconds =       0.00 minutes
Total time:
	user time   =       0.03 seconds =       0.00 minutes
	system time =       0.02 seconds =       0.00 minutes
	total time  =          0 seconds =       0.00 minutes

*** tstart() called on ds1.sherrill.chemistry.gatech.edu
*** at Mon Mar 14 15:16:16 2016


        **********************************************************
        *                                                        *
        *                   CCSD Integral Sort                   *
        *                                                        *
        **********************************************************


        CC integral sort will use                      1.65 mb

        Number of (ab|cd) temporary files:                2
        Number of (ab|ci) temporary files:                3
        Starting temporary file number:                 270

        Initial sort........done.

        Sort (IJ|KL)........done.
        Sort (IJ|KA) 1/2....done.
        Sort (IJ|KA) 2/2....done.
        Sort (IA|JB)........done.
        Sort (IJ|AB)........done.
        Sort (IA|BC) 1/3....done.
        Sort (IA|BC) 2/3....done.
        Sort (IA|BC) 3/3....done.
        Sort (AB|CD) 1/2....done.
        Sort (AB|CD) 2/2....done.


*** tstop() called on ds1.sherrill.chemistry.gatech.edu at Mon Mar 14 15:16:16 2016
Module time:
	user time   =      -0.00 seconds =      -0.00 minutes
	system time =       0.01 seconds =       0.00 minutes
	total time  =          0 seconds =       0.00 minutes
Total time:
	user time   =       0.03 seconds =       0.00 minutes
	system time =       0.03 seconds =       0.00 minutes
	total time  =          0 seconds =       0.00 minutes

*** tstart() called on ds1.sherrill.chemistry.gatech.edu
*** at Mon Mar 14 15:16:16 2016



        *****************************************************
        *                                                   *
        *                       QCISD                       *
        *                  Eugene DePrince                  *
        *                                                   *
        *****************************************************



  ==> Input parameters <==

        Freeze core orbitals?                 yes
        Use frozen natural orbitals?           no
        r_convergence:                  1.000e-10
        e_convergence:                  1.000e-10
        Number of DIIS vectors:                 8
        Number of frozen core orbitals:         1
        Number of active occupied orbitals:     4
        Number of active virtual orbitals:     19
        Number of frozen virtual orbitals:      0

  ==> Memory <==

        available memory =                            244.14 mb
        minimum memory requirements for QCISD =         0.14 mb
        memory requirements for QCISD(T) =              0.25 mb

  ==> Define tiling <==

        v(ab,cd) diagrams will be evaluated in   1 blocks.
        v(ab,ci) diagrams will be evaluated in   1 blocks over ov2.
        v(ab,ci) diagrams will be evaluated in   1 blocks over ov.

  Allocate cpu memory (     0.42 mb).....done.
  Initialize cpu memory..................done.

  ==> MP4(SDQ) <==

        1st-order doubles amplitudes...............done.
        MP2 energy.................................done.
        MP3 energy.................................done.
        2nd-order singles and doubles amplitudes...done.
        MP4(SD)....................................done.
        MP4(Q).....................................done.

  Begin singles and doubles quadratic ci iterations

   Iter  DIIS          Energy       d(Energy)          |d(T)|     time
      0   0 1   -0.2132949788   -0.2132949788    0.0090491528        0
      1   1 1   -0.2139687074   -0.0006737286    0.0037022646        0
      2   2 1   -0.2144802611   -0.0005115537    0.0016627376        0
      3   3 1   -0.2144585594    0.0000217017    0.0002446188        0
      4   4 1   -0.2144539017    0.0000046577    0.0001056737        0
      5   5 1   -0.2144556760   -0.0000017743    0.0000307120        0
      6   6 1   -0.2144551043    0.0000005717    0.0000050478        0
      7   7 1   -0.2144550728    0.0000000315    0.0000014199        0
      8   8 1   -0.2144550718    0.0000000010    0.0000002256        0
      9   8 2   -0.2144550717    0.0000000000    0.0000000391        1
     10   8 3   -0.2144550723   -0.0000000006    0.0000000081        0
     11   8 4   -0.2144550722    0.0000000001    0.0000000021        0
     12   8 5   -0.2144550722   -0.0000000001    0.0000000005        0
     13   8 6   -0.2144550722   -0.0000000000    0.0000000001        0

  QCISD iterations converged!

        T1 diagnostic:                         0.006703471272
        D1 diagnostic:                         0.013262750433

        OS MP2 correlation energy:            -0.153488826718
        SS MP2 correlation energy:            -0.051203580280
        MP2 correlation energy:               -0.204692406998
      * MP2 total energy:                    -76.226110852153

        OS MP2.5 correlation energy:          -0.158861629978
        SS MP2.5 correlation energy:          -0.049135163154
        MP2.5 correlation energy:             -0.207996793132
      * MP2.5 total energy:                  -76.229415238287

        OS MP3 correlation energy:            -0.164234433238
        SS MP3 correlation energy:            -0.047066746028
        MP3 correlation energy:               -0.211301179266
      * MP3 total energy:                    -76.232719624421

        OS MP4(SDQ) correlation energy:       -0.167844953905
        SS MP4(SDQ) correlation energy:       -0.044544705894
        MP4(SDQ) correlation energy:          -0.213919357127
      * MP4(SDQ) total energy:               -76.235337802281

        OS QCISD correlation energy:          -0.169103830569
        SS QCISD correlation energy:          -0.045351241670
        QCISD correlation energy:             -0.214455072238
      * QCISD total energy:                  -76.235873517393

  Total time for QCISD iterations:       0.05 s (user)
                                         0.09 s (system)
                                            1 s (total)

  Time per iteration:                    0.00 s (user)
                                         0.01 s (system)
                                         0.08 s (total)

*** tstop() called on ds1.sherrill.chemistry.gatech.edu at Mon Mar 14 15:16:17 2016
Module time:
	user time   =       0.06 seconds =       0.00 minutes
	system time =       0.10 seconds =       0.00 minutes
	total time  =          1 seconds =       0.02 minutes
Total time:
	user time   =       0.09 seconds =       0.00 minutes
	system time =       0.13 seconds =       0.00 minutes
	total time  =          1 seconds =       0.02 minutes

*** tstart() called on ds1.sherrill.chemistry.gatech.edu
*** at Mon Mar 14 15:16:17 2016


        *******************************************************
        *                                                     *
        *                     QCISD(T)                        *
        *                                                     *
        *******************************************************

        num_threads:                      1
        available memory:         244.14 mb
        memory requirements:        0.25 mb

        Number of ijk combinations: 20

        Computing (T) correction...

        % complete  total time
              10.0         0 s
              20.0         0 s
              30.0         0 s
              40.0         0 s
              50.0         0 s
              60.0         0 s
              70.0         0 s
              80.0         0 s
              90.0         0 s

        (T) energy                             -0.003155606105

        QCISD(T) correlation energy            -0.217610678343
      * QCISD(T) total energy                 -76.239029123498


*** tstop() called on ds1.sherrill.chemistry.gatech.edu at Mon Mar 14 15:16:17 2016
Module time:
	user time   =      -0.00 seconds =      -0.00 minutes
	system time =       0.01 seconds =       0.00 minutes
	total time  =          0 seconds =       0.00 minutes
Total time:
	user time   =       0.09 seconds =       0.00 minutes
	system time =       0.14 seconds =       0.00 minutes
	total time  =          1 seconds =       0.02 minutes
	SCF total energy..................................................PASSED
	QCISD correlation energy..........................................PASSED
	QCISD(T) correlation energy.......................................PASSED

*** PSI4 exiting successfully. Buy a developer a beer!
