
    -----------------------------------------------------------------------
          Psi4: An Open-Source Ab Initio Electronic Structure Package
                               Psi4 1.6a1.dev51 

                         Git: Rev {ccdensity_fix} 4732348 dirty


    D. G. A. Smith, L. A. Burns, A. C. Simmonett, R. M. Parrish,
    M. C. Schieber, R. Galvelis, P. Kraus, H. Kruse, R. Di Remigio,
    A. Alenaizan, A. M. James, S. Lehtola, J. P. Misiewicz, M. Scheurer,
    R. A. Shaw, J. B. Schriber, Y. Xie, Z. L. Glick, D. A. Sirianni,
    J. S. O'Brien, J. M. Waldrop, A. Kumar, E. G. Hohenstein,
    B. P. Pritchard, B. R. Brooks, H. F. Schaefer III, A. Yu. Sokolov,
    K. Patkowski, A. E. DePrince III, U. Bozkaya, R. A. King,
    F. A. Evangelista, J. M. Turney, T. D. Crawford, C. D. Sherrill,
    J. Chem. Phys. 152(18) 184108 (2020). https://doi.org/10.1063/5.0006002

                            Additional Code Authors
    E. T. Seidl, C. L. Janssen, E. F. Valeev, M. L. Leininger,
    J. F. Gonthier, R. M. Richard, H. R. McAlexander, M. Saitow, X. Wang,
    P. Verma, M. H. Lechner, and A. Jiang

             Previous Authors, Complete List of Code Contributors,
                       and Citations for Specific Modules
    https://github.com/psi4/psi4/blob/master/codemeta.json
    https://github.com/psi4/psi4/graphs/contributors
    http://psicode.org/psi4manual/master/introduction.html#citing-psifour

    -----------------------------------------------------------------------


    Psi4 started on: Saturday, 12 February 2022 03:19PM

    Process ID: 65567
    Host:       Jonathons-MacBook-Pro.local
    PSIDATADIR: /Users/jonathonmisiewicz/psi4/objdir/stage/share/psi4
    Memory:     500.0 MiB
    Threads:    1
    
  ==> Input File <==

--------------------------------------------------------------------------
#! CCSD Response for H2O2

molecule h2o2 {
    O        -0.054730547952    -1.312218696095    -0.093235962587
    O         0.054730547952     1.312218696095    -0.093235962587
    H         0.662345455220    -1.720870706405     1.479722385924
    H        -0.662345455220     1.720870706405     1.479722385924
units bohr
noreorient
}

set {
  freeze_core false
  omega [589, nm]
  basis cc-pVDZ
}

properties('ccsd',properties=['roa_tensor'])
--------------------------------------------------------------------------

*** tstart() called on Jonathons-MacBook-Pro.local
*** at Sat Feb 12 15:19:29 2022

   => Loading Basis Set <=

    Name: CC-PVDZ
    Role: ORBITAL
    Keyword: BASIS
    atoms 1-2 entry O          line   198 file /Users/jonathonmisiewicz/psi4/objdir/stage/share/psi4/basis/cc-pvdz.gbs 
    atoms 3-4 entry H          line    22 file /Users/jonathonmisiewicz/psi4/objdir/stage/share/psi4/basis/cc-pvdz.gbs 


         ---------------------------------------------------------
                                   SCF
               by Justin Turney, Rob Parrish, Andy Simmonett
                          and Daniel G. A. Smith
                              RHF Reference
                        1 Threads,    500 MiB Core
         ---------------------------------------------------------

  ==> Geometry <==

    Molecular point group: c2
    Full point group: C2

    Geometry (in Bohr), charge = 0, multiplicity = 1:

       Center              X                  Y                   Z               Mass       
    ------------   -----------------  -----------------  -----------------  -----------------
         O           -0.054730547952    -1.312218696095    -0.093235962601    15.994914619570
         O            0.054730547952     1.312218696095    -0.093235962601    15.994914619570
         H            0.662345455220    -1.720870706405     1.479722385910     1.007825032230
         H           -0.662345455220     1.720870706405     1.479722385910     1.007825032230

  Running in c2 symmetry.

  Rotational constants: A =     10.61423  B =      0.97044  C =      0.91566 [cm^-1]
  Rotational constants: A = 318206.62310  B =  29093.20182  C =  27450.82862 [MHz]
  Nuclear repulsion =   38.253971301898780

  Charge       = 0
  Multiplicity = 1
  Electrons    = 18
  Nalpha       = 9
  Nbeta        = 9

  ==> Algorithm <==

  SCF Algorithm Type is PK.
  DIIS enabled.
  MOM disabled.
  Fractional occupation disabled.
  Guess Type is SAD.
  Energy threshold   = 1.00e-10
  Density threshold  = 1.00e-10
  Integral threshold = 1.00e-12

  ==> Primary Basis <==

  Basis Set: CC-PVDZ
    Blend: CC-PVDZ
    Number of shells: 18
    Number of basis functions: 38
    Number of Cartesian functions: 40
    Spherical Harmonics?: true
    Max angular momentum: 2

  ==> Integral Setup <==

  Using in-core PK algorithm.
   Calculation information:
      Number of atoms:                   4
      Number of AO shells:              18
      Number of primitives:             54
      Number of atomic orbitals:        40
      Number of basis functions:        38

      Integral cutoff                 1.00e-12
      Number of threads:                 1

  Performing in-core PK
  Using 549822 doubles for integral storage.
  We computed 14706 shell quartets total.
  Whereas there are 14706 unique shell quartets.

  ==> DiskJK: Disk-Based J/K Matrices <==

    J tasked:                  Yes
    K tasked:                  Yes
    wK tasked:                  No
    Memory [MiB]:              375
    Schwarz Cutoff:          1E-12

    OpenMP threads:              1

  Minimum eigenvalue in the overlap matrix is 3.0969229145E-02.
  Reciprocal condition number of the overlap matrix is 8.7476035903E-03.
    Using symmetric orthogonalization.

  ==> Pre-Iterations <==

  SCF Guess: Superposition of Atomic Densities via on-the-fly atomic UHF (no occupation information).

   -------------------------
    Irrep   Nso     Nmo    
   -------------------------
     A         19      19 
     B         19      19 
   -------------------------
    Total      38      38
   -------------------------

  ==> Iterations <==

                        Total Energy        Delta E     RMS |[F,P]|

   @RHF iter SAD:  -150.13109175655745   -1.50131e+02   0.00000e+00 
   @RHF iter   1:  -150.72994418203805   -5.98852e-01   1.20798e-02 ADIIS/DIIS
   @RHF iter   2:  -150.77474437176173   -4.48002e-02   3.93712e-03 ADIIS/DIIS
   @RHF iter   3:  -150.77872861849664   -3.98425e-03   9.99210e-04 ADIIS/DIIS
   @RHF iter   4:  -150.77914038720894   -4.11769e-04   2.79341e-04 ADIIS/DIIS
   @RHF iter   5:  -150.77918120416425   -4.08170e-05   4.89524e-05 DIIS
   @RHF iter   6:  -150.77918362205793   -2.41789e-06   1.25560e-05 DIIS
   @RHF iter   7:  -150.77918384507149   -2.23014e-07   3.89299e-06 DIIS
   @RHF iter   8:  -150.77918386710951   -2.20380e-08   8.16054e-07 DIIS
   @RHF iter   9:  -150.77918386789929   -7.89782e-10   1.49865e-07 DIIS
   @RHF iter  10:  -150.77918386792138   -2.20837e-11   3.10868e-08 DIIS
   @RHF iter  11:  -150.77918386792260   -1.22213e-12   6.61625e-09 DIIS
   @RHF iter  12:  -150.77918386792251    8.52651e-14   1.38474e-09 DIIS
   @RHF iter  13:  -150.77918386792257   -5.68434e-14   3.05202e-10 DIIS
   @RHF iter  14:  -150.77918386792260   -2.84217e-14   6.31847e-11 DIIS
  Energy and wave function converged.


  ==> Post-Iterations <==

    Orbital Energies [Eh]
    ---------------------

    Doubly Occupied:                                                      

       1A    -20.619349     1B    -20.619013     2A     -1.507787  
       2B     -1.207608     3A     -0.772079     3B     -0.669171  
       4A     -0.610850     4B     -0.534579     5A     -0.457771  

    Virtual:                                                              

       6A      0.170058     5B      0.207922     6B      0.357579  
       7A      0.826680     7B      0.851681     8A      1.130818  
       8B      1.137986     9B      1.173859     9A      1.187142  
      10A      1.286565    10B      1.298497    11A      1.497098  
      12A      1.540883    11B      1.559287    12B      1.733951  
      13A      1.913157    13B      2.037507    14A      2.460010  
      14B      2.503912    15B      2.672803    15A      2.821554  
      16A      2.932536    17A      3.274207    16B      3.309357  
      18A      3.503492    17B      3.609638    18B      3.917634  
      19A      4.000575    19B      4.287100  

    Final Occupation by Irrep:
              A     B 
    DOCC [     5,    4 ]

  @RHF Final Energy:  -150.77918386792260

   => Energetics <=

    Nuclear Repulsion Energy =             38.2539713018987797
    One-Electron Energy =                -284.0698976786380854
    Two-Electron Energy =                  95.0367425088167010
    Total Energy =                       -150.7791838679225975

Computation Completed


Properties will be evaluated at   0.000000,   0.000000,   0.000000 [a0]

Properties computed using the SCF density matrix

  Nuclear Dipole Moment: [e a0]
     X:     0.0000      Y:     0.0000      Z:     1.4677

  Electronic Dipole Moment: [e a0]
     X:     0.0000      Y:     0.0000      Z:    -0.2602

  Dipole Moment: [e a0]
     X:     0.0000      Y:     0.0000      Z:     1.2074     Total:     1.2074

  Dipole Moment: [D]
     X:     0.0000      Y:     0.0000      Z:     3.0690     Total:     3.0690


*** tstop() called on Jonathons-MacBook-Pro.local at Sat Feb 12 15:19:30 2022
Module time:
	user time   =       1.15 seconds =       0.02 minutes
	system time =       0.12 seconds =       0.00 minutes
	total time  =          1 seconds =       0.02 minutes
Total time:
	user time   =       1.15 seconds =       0.02 minutes
	system time =       0.12 seconds =       0.00 minutes
	total time  =          1 seconds =       0.02 minutes
 MINTS: Wrapper to libmints.
   by Justin Turney

   Calculation information:
      Number of threads:                 1
      Number of atoms:                   4
      Number of AO shells:              18
      Number of SO shells:               9
      Number of primitives:             54
      Number of atomic orbitals:        40
      Number of basis functions:        38

      Number of irreps:                  2
      Integral cutoff                 1.00e-12
      Number of functions per irrep: [  19   19 ]

 OEINTS: Overlap, kinetic, potential, dipole, and quadrupole integrals
         stored in file 35.

      Computing two-electron integrals...done
      Computed 117739 non-zero two-electron integrals.
        Stored in file 33.


*** tstart() called on Jonathons-MacBook-Pro.local
*** at Sat Feb 12 15:19:30 2022


	Wfn Parameters:
	--------------------
	Wavefunction         = CCSD
	Number of irreps     = 2
	Number of MOs        = 38
	Number of active MOs = 38
	AO-Basis             = NONE
	Semicanonical        = false
	Reference            = RHF
	Print Level          = 1

	IRREP	# MOs	# FZDC	# DOCC	# SOCC	# VIRT	# FZVR
	-----	-----	------	------	------	------	------
	 A	   19	    0	    5	    0	    14	    0
	 B	   19	    0	    4	    0	    15	    0
	Transforming integrals...
	IWL integrals will be deleted.
	(OO|OO)...
	Presorting SO-basis two-electron integrals.
	Sorting File: SO Ints (nn|nn) nbuckets = 1
	Constructing frozen core operators
	Starting first half-transformation.
	Sorting half-transformed integrals.
	First half integral transformation complete.
	Starting second half-transformation.
	Two-electron integral transformation complete.
	(OO|OV)...
	Starting second half-transformation.
	Two-electron integral transformation complete.
	(OO|VV)...
	Starting second half-transformation.
	Two-electron integral transformation complete.
	(OV|OO)...
	Starting first half-transformation.
	Sorting half-transformed integrals.
	First half integral transformation complete.
	Starting second half-transformation.
	Two-electron integral transformation complete.
	(OV|OV)...
	Starting second half-transformation.
	Two-electron integral transformation complete.
	(OV|VV)...
	Starting second half-transformation.
	Two-electron integral transformation complete.
	(VV|OO)...
	Starting first half-transformation.
	Sorting half-transformed integrals.
	First half integral transformation complete.
	Starting second half-transformation.
	Two-electron integral transformation complete.
	(VV|OV)...
	Starting second half-transformation.
	Two-electron integral transformation complete.
	(VV|VV)...
	Starting second half-transformation.
	Two-electron integral transformation complete.
	Frozen core energy     =      0.00000000000000

	Size of irrep 0 of <ab|cd> integrals:      0.177 (MW) /      1.418 (MB)
	Size of irrep 1 of <ab|cd> integrals:      0.176 (MW) /      1.411 (MB)
	Total:                                     0.354 (MW) /      2.829 (MB)

	Size of irrep 0 of <ia|bc> integrals:      0.055 (MW) /      0.438 (MB)
	Size of irrep 1 of <ia|bc> integrals:      0.055 (MW) /      0.440 (MB)
	Total:                                     0.110 (MW) /      0.878 (MB)

	Size of irrep 0 of tijab amplitudes:       0.017 (MW) /      0.138 (MB)
	Size of irrep 1 of tijab amplitudes:       0.017 (MW) /      0.134 (MB)
	Total:                                     0.034 (MW) /      0.272 (MB)

	Nuclear Rep. energy          =     38.25397130189878
	SCF energy                   =   -150.77918386792260
	One-electron energy          =   -284.06989768243102
	Two-electron energy          =     95.03674251260959
	Reference energy             =   -150.77918386792265

*** tstop() called on Jonathons-MacBook-Pro.local at Sat Feb 12 15:19:31 2022
Module time:
	user time   =       0.12 seconds =       0.00 minutes
	system time =       0.24 seconds =       0.00 minutes
	total time  =          1 seconds =       0.02 minutes
Total time:
	user time   =       1.42 seconds =       0.02 minutes
	system time =       0.39 seconds =       0.01 minutes
	total time  =          2 seconds =       0.03 minutes
            **************************
            *                        *
            *        CCENERGY        *
            *                        *
            **************************

    Nuclear Rep. energy (wfn)     =   38.253971301898780
    SCF energy          (wfn)     = -150.779183867922598
    Reference energy    (file100) = -150.779183867922654

    Input parameters:
    -----------------
    Wave function   =     CCSD
    Reference wfn   =     RHF
    Brueckner       =     No
    Memory (Mbytes) =     524.3
    Maxiter         =     50
    R_Convergence   =     1.0e-07
    E_Convergence   =     1.0e-08
    Restart         =     Yes
    DIIS            =     Yes
    AO Basis        =     NONE
    ABCD            =     NEW
    Cache Level     =     2
    Cache Type      =     LOW
    Print Level     =     1
    Num. of threads =     1
    # Amps to Print =     10
    Print MP2 Amps? =     No
    Analyze T2 Amps =     No
    Print Pair Ener =     No
    Local CC        =     No
    SCS-MP2         =     False
    SCSN-MP2        =     False
    SCS-CCSD        =     False

MP2 correlation energy -0.3846819202183502
                Solving CC Amplitude Equations
                ------------------------------
  Iter             Energy              RMS        T1Diag      D1Diag    New D1Diag    D2Diag
  ----     ---------------------    ---------   ----------  ----------  ----------   --------
     0        -0.384681920218350    0.000e+00    0.000000    0.000000    0.000000    0.143443
     1        -0.388195063375176    4.161e-02    0.005536    0.014944    0.014944    0.146546
     2        -0.397131368993452    1.579e-02    0.006295    0.016701    0.016701    0.156214
     3        -0.398540157751685    5.272e-03    0.007094    0.018500    0.018500    0.160058
     4        -0.398592388314298    1.389e-03    0.007211    0.018629    0.018629    0.160897
     5        -0.398626159818644    5.016e-04    0.007271    0.018667    0.018667    0.161087
     6        -0.398618320814936    1.894e-04    0.007295    0.018670    0.018670    0.161082
     7        -0.398614908708726    5.957e-05    0.007301    0.018667    0.018667    0.161072
     8        -0.398614877275146    2.091e-05    0.007303    0.018667    0.018667    0.161070
     9        -0.398614537486384    7.866e-06    0.007303    0.018666    0.018666    0.161069
    10        -0.398614816176060    3.334e-06    0.007303    0.018666    0.018666    0.161069
    11        -0.398614791744887    1.107e-06    0.007304    0.018666    0.018666    0.161069
    12        -0.398614829315558    3.663e-07    0.007304    0.018666    0.018666    0.161069
    13        -0.398614827847895    1.109e-07    0.007304    0.018666    0.018666    0.161069
    14        -0.398614828157357    3.779e-08    0.007304    0.018666    0.018666    0.161069

    Iterations converged.


    Largest TIA Amplitudes:
              7  14        -0.0101502103
              8  14        -0.0087340595
              3   7        -0.0082767744
              3   9        -0.0079615875
              3   4         0.0077314694
              2   8        -0.0067261148
              2   0        -0.0066430741
              7  17         0.0064676899
              2   3         0.0061934100
              8  16         0.0060750570

    Largest TIjAb Amplitudes:
      3   3  15  15        -0.0681394445
      3   3  14  15         0.0337125674
      3   3  15  14         0.0337125674
      2   3  15  15         0.0313369593
      3   2  15  15         0.0313369593
      2   2  15  15        -0.0310987404
      4   4  17  17        -0.0224365418
      4   4  15  15        -0.0219022228
      2   2   1   1        -0.0213000213
      3   3  14  14        -0.0200219571

    SCF energy       (wfn)                    = -150.779183867922598
    Reference energy (file100)                = -150.779183867922654

    Opposite-spin MP2 correlation energy      =   -0.285626227171874
    Same-spin MP2 correlation energy          =   -0.099055693046476
    Singles MP2 correlation energy            =   -0.000000000000000
    MP2 correlation energy                    =   -0.384681920218350
      * MP2 total energy                      = -151.163865788141010

    Opposite-spin CCSD correlation energy     =   -0.311603037120795
    Same-spin CCSD correlation energy         =   -0.087011791036562
    Singles CCSD correlation energy           =    0.000000000000000
    CCSD correlation energy                   =   -0.398614828157357
      * CCSD total energy                     = -151.177798696080004


			**************************
			*                        *
			*         CCHBAR         *
			*                        *
			**************************


			**************************
			*        CCLAMBDA        *
			**************************


	Nuclear Rep. energy (wfn)     =   38.253971301898780
	Reference           (wfn)     =                    0
	SCF energy          (wfn)     = -150.779183867922598
	Reference energy    (CC_INFO) = -150.779183867922654
	CCSD energy         (CC_INFO) =   -0.398614828157357
	Total CCSD energy   (CC_INFO) = -151.177798696080004

	Input parameters:
	-----------------
	Maxiter           =     50
	Convergence       = 1.0e-07
	Restart           =     No
	Cache Level       =     2
	Model III         =     No
	DIIS              =     Yes
	AO Basis          =     No
	ABCD              =     NEW
	Local CC          =     No
	Parameters for left-handed eigenvectors:
	    Irr   Root  Ground-State?    EOM energy        R0
	  1   0     0        Yes       0.0000000000   1.0000000000
	Labels for eigenvector 1:
	LIA 0 -1, Lia 0 -1, LIJAB 0 -1, Lijab 0 -1, LIjAb 0 -1, 2LIjAb - LIjbA 0 -1
	Deleting old CC_LAMBDA data.
	Symmetry of left-hand state: A
	Symmetry of left-hand eigenvector: A

	          Solving Lambda Equations
	          ------------------------
	Iter     PseudoEnergy or Norm         RMS  
	----     ---------------------     --------
	   0        -0.398624699627845    0.000e+00
	   1        -0.391214048570689    8.462e-03
	   2        -0.390364515553340    2.118e-03
	   3        -0.390185508068917    7.366e-04
	   4        -0.390186454461606    2.599e-04
	   5        -0.390188067868143    1.092e-04
	   6        -0.390187382518825    3.731e-05
	   7        -0.390187977595261    1.258e-05
	   8        -0.390188017895408    4.692e-06
	   9        -0.390187964802781    1.968e-06
	  10        -0.390187962252321    6.939e-07
	  11        -0.390187961565701    2.239e-07
	  12        -0.390187964870325    7.240e-08

	Largest LIA Amplitudes:
	          7  14        -0.0081022820
	          3   7        -0.0070235768
	          3   4         0.0069916601
	          3   9        -0.0068965989
	          8  14        -0.0068236617
	          3   3        -0.0057527613
	          2   8        -0.0055687935
	          2   3         0.0053706171
	          8  16         0.0053347729
	          7  17         0.0051518564

	Largest LIjAb Amplitudes:
	  3   3  15  15        -0.0651028563
	  3   3  14  15         0.0320888191
	  3   3  15  14         0.0320888191
	  2   3  15  15         0.0299752804
	  3   2  15  15         0.0299752804
	  2   2  15  15        -0.0298862579
	  4   4  17  17        -0.0223692554
	  4   4  15  15        -0.0208228065
	  2   2   1   1        -0.0208221500
	  3   3  14  14        -0.0190900077

	Iterations converged.

	Overlap <L|e^T> =        0.89181921409
			**************************
			*                        *
			*       ccresponse       *
			*                        *
			**************************

	Input parameters:
	-----------------
	Property         =    ROA_TENSOR
	Reference wfn    =    RHF
	Memory (Mbytes)  =    524.3
	Cache Level      =    0
	Print Level      =    1
	Maxiter          =    50
	Convergence      =    1.0e-07
	Restart          =    Allowed
	DIIS             =    Yes
	Model III        =    No
	Linear Model     =    No
	ABCD             =    NEW
	Irrep X          =    B
	Irrep Y          =    B
	Irrep Z          =    A
	Irrep RX         =    B
	Irrep RY         =    B
	Irrep RZ         =    A
	Gauge            =    VELOCITY
	Applied field  0 =    0.077 E_h (589.00 nm, 2.105 eV, 16977.93 cm-1)
	Analyze X2 Amps  =    No
	Local CC         =    No


	Computing P_X-Perturbed Wave Function (0.000 E_h).
	Iter   Pseudopolarizability       RMS 
	----   --------------------   -----------
	   0         8.791849505480
	   1         9.874826203575    2.079e-01
	   2        10.415122648198    1.004e-01
	   3        10.434344977555    3.529e-02
	   4        10.441342562141    1.361e-02
	   5        10.442871941875    5.151e-03
	   6        10.443282191957    2.216e-03
	   7        10.443461544673    9.411e-04
	   8        10.443396791129    3.834e-04
	   9        10.443410427151    1.235e-04
	  10        10.443417458181    4.765e-05
	  11        10.443410372840    1.289e-05
	  12        10.443404691606    3.554e-06
	  13        10.443403491039    8.645e-07
	  14        10.443403391653    3.217e-07
	  15        10.443403375807    1.324e-07
	-----------------------------------------
	Converged P_X-Perturbed Wfn to 5.683e-08

	Computing L_X-Perturbed Wave Function (0.000 E_h).
	Iter   Pseudopolarizability       RMS 
	----   --------------------   -----------
	   0         4.886661193644
	   1         6.056741276424    3.035e-01
	   2         7.155869457435    1.783e-01
	   3         7.200400055753    4.476e-02
	   4         7.231758703162    1.895e-02
	   5         7.233814775343    6.466e-03
	   6         7.234478515688    3.100e-03
	   7         7.235145006256    1.290e-03
	   8         7.235054395382    5.109e-04
	   9         7.235048179821    1.584e-04
	  10         7.235049145576    5.400e-05
	  11         7.235061983163    1.702e-05
	  12         7.235063878329    6.080e-06
	  13         7.235062645981    2.029e-06
	  14         7.235062217033    7.304e-07
	  15         7.235062029299    2.737e-07
	  16         7.235061929719    1.061e-07
	-----------------------------------------
	Converged L_X-Perturbed Wfn to 4.463e-08

	Computing P_Y-Perturbed Wave Function (0.000 E_h).
	Iter   Pseudopolarizability       RMS 
	----   --------------------   -----------
	   0         9.142006738662
	   1        10.624821273094    2.763e-01
	   2        11.570599760470    1.363e-01
	   3        11.606723108902    3.199e-02
	   4        11.615453593556    1.430e-02
	   5        11.617276086274    3.644e-03
	   6        11.617146399254    1.215e-03
	   7        11.617330671579    3.699e-04
	   8        11.617324722217    1.475e-04
	   9        11.617299748660    7.453e-05
	  10        11.617306054457    3.554e-05
	  11        11.617312362817    1.275e-05
	  12        11.617315055975    3.776e-06
	  13        11.617313282606    1.308e-06
	  14        11.617312708341    5.317e-07
	  15        11.617312512623    1.794e-07
	-----------------------------------------
	Converged P_Y-Perturbed Wfn to 6.034e-08

	Computing L_Y-Perturbed Wave Function (0.000 E_h).
	Iter   Pseudopolarizability       RMS 
	----   --------------------   -----------
	   0         0.250096256322
	   1         0.332522411605    8.410e-02
	   2         0.417303491137    5.141e-02
	   3         0.423284199690    1.414e-02
	   4         0.425106258625    3.705e-03
	   5         0.424977847406    1.123e-03
	   6         0.424958663236    4.533e-04
	   7         0.424998418546    2.392e-04
	   8         0.424985241882    9.820e-05
	   9         0.424989207896    2.255e-05
	  10         0.424989689818    8.188e-06
	  11         0.424989142717    2.336e-06
	  12         0.424988579794    8.196e-07
	  13         0.424988534419    1.946e-07
	-----------------------------------------
	Converged L_Y-Perturbed Wfn to 8.886e-08

	Computing P_Z-Perturbed Wave Function (0.000 E_h).
	Iter   Pseudopolarizability       RMS 
	----   --------------------   -----------
	   0         9.517222057223
	   1        10.765478514721    2.474e-01
	   2        11.512737139486    1.157e-01
	   3        11.522021410445    2.789e-02
	   4        11.525146414925    1.213e-02
	   5        11.526724013900    3.629e-03
	   6        11.526779277380    1.364e-03
	   7        11.526909415111    5.798e-04
	   8        11.526912921185    2.172e-04
	   9        11.526894658061    6.328e-05
	  10        11.526898204928    2.000e-05
	  11        11.526900096085    7.487e-06
	  12        11.526901189838    2.578e-06
	  13        11.526900501516    9.421e-07
	  14        11.526900187105    3.588e-07
	  15        11.526900070291    1.346e-07
	-----------------------------------------
	Converged P_Z-Perturbed Wfn to 5.270e-08

	Computing L_Z-Perturbed Wave Function (0.000 E_h).
	Iter   Pseudopolarizability       RMS 
	----   --------------------   -----------
	   0         4.304406331452
	   1         5.241871759909    2.659e-01
	   2         6.106793600100    1.693e-01
	   3         6.202781583265    5.866e-02
	   4         6.243845399800    1.952e-02
	   5         6.242578238472    5.856e-03
	   6         6.243082316481    2.214e-03
	   7         6.243406666011    7.231e-04
	   8         6.243252262562    2.718e-04
	   9         6.243257299798    7.101e-05
	  10         6.243255341307    2.410e-05
	  11         6.243255564219    8.644e-06
	  12         6.243251498040    3.747e-06
	  13         6.243250285749    1.491e-06
	  14         6.243250638461    6.113e-07
	  15         6.243250956089    2.005e-07
	-----------------------------------------
	Converged L_Z-Perturbed Wfn to 6.787e-08

	Computing <<P;L>>_(0.000) tensor.

    CCSD Optical Rotation Tensor (Velocity Gauge): <<P;L>>_(0.000)
  -------------------------------------------------------------------------
   Evaluated at omega = 0.00 E_h (Inf nm, 0.0 eV, 0.0 cm-1)
  -------------------------------------------------------------------------

                   0                     1                     2        

    0      0.432503170311545    -0.331857323590442     0.000000000000000
    1     -0.197475949240893     0.012520076490456     0.000000000000000
    2      0.000000000000000     0.000000000000000    -0.461313899176918

	Computing Mu_X-Perturbed Wave Function (-0.077 E_h).
	Iter   Pseudopolarizability       RMS 
	----   --------------------   -----------
	   0         3.701674414840
	   1         4.466205828363    2.236e-01
	   2         5.049571100631    1.154e-01
	   3         5.053949952864    2.409e-02
	   4         5.060916940123    8.650e-03
	   5         5.061406705824    2.467e-03
	   6         5.061350634153    6.677e-04
	   7         5.061433100683    2.664e-04
	   8         5.061399267598    9.121e-05
	   9         5.061393026026    3.528e-05
	  10         5.061393366617    1.598e-05
	  11         5.061394688853    5.030e-06
	  12         5.061394399341    1.099e-06
	  13         5.061394075888    2.781e-07
	-----------------------------------------
	Converged Mu_X-Perturbed Wfn to 8.430e-08

	Computing Mu_X-Perturbed Wave Function (0.077 E_h).
	Iter   Pseudopolarizability       RMS 
	----   --------------------   -----------
	   0         4.057304192998
	   1         5.012402629694    2.952e-01
	   2         5.976255362878    1.793e-01
	   3         6.016957782964    5.182e-02
	   4         6.052490182165    2.334e-02
	   5         6.056619460404    9.340e-03
	   6         6.056529723595    3.809e-03
	   7         6.057267952095    2.041e-03
	   8         6.056907800008    9.820e-04
	   9         6.056897439764    4.959e-04
	  10         6.056914645966    2.015e-04
	  11         6.056907036231    5.193e-05
	  12         6.056890373285    1.778e-05
	  13         6.056884363526    6.839e-06
	  14         6.056886036462    3.161e-06
	  15         6.056887940796    1.286e-06
	  16         6.056888574007    4.585e-07
	  17         6.056888569045    1.879e-07
	-----------------------------------------
	Converged Mu_X-Perturbed Wfn to 7.837e-08

	Computing P_X-Perturbed Wave Function (-0.077 E_h).
	Iter   Pseudopolarizability       RMS 
	----   --------------------   -----------
	   0         8.542533679148
	   1         9.550751397802    1.875e-01
	   2        10.009737592295    8.303e-02
	   3        10.018791160245    2.522e-02
	   4        10.021334243299    8.859e-03
	   5        10.021974376503    2.951e-03
	   6        10.022125412051    1.125e-03
	   7        10.022197437756    4.316e-04
	   8        10.022170506694    1.588e-04
	   9        10.022172915166    4.375e-05
	  10        10.022174706991    1.539e-05
	  11        10.022172826891    4.311e-06
	  12        10.022171304749    1.149e-06
	  13        10.022170966092    2.487e-07
	-----------------------------------------
	Converged P_X-Perturbed Wfn to 7.666e-08

	Computing L_X-Perturbed Wave Function (0.077 E_h).
	Iter   Pseudopolarizability       RMS 
	----   --------------------   -----------
	   0         5.110362146499
	   1         6.423602599474    3.511e-01
	   2         7.859984440971    2.242e-01
	   3         7.962369812602    6.663e-02
	   4         8.029317240672    3.132e-02
	   5         8.035548658882    1.253e-02
	   6         8.038141080526    6.778e-03
	   7         8.040224064317    3.244e-03
	   8         8.040092704816    1.565e-03
	   9         8.040156586316    5.668e-04
	  10         8.040180196937    2.142e-04
	  11         8.040228512845    7.462e-05
	  12         8.040226716810    3.193e-05
	  13         8.040218588025    1.122e-05
	  14         8.040217088718    4.322e-06
	  15         8.040216425030    1.822e-06
	  16         8.040215692854    8.604e-07
	  17         8.040214918092    4.036e-07
	  18         8.040214532046    2.000e-07
	  19         8.040214412775    1.159e-07
	-----------------------------------------
	Converged L_X-Perturbed Wfn to 5.802e-08

	Computing Mu_Y-Perturbed Wave Function (-0.077 E_h).
	Iter   Pseudopolarizability       RMS 
	----   --------------------   -----------
	   0         7.682092018455
	   1         9.710746042530    4.035e-01
	   2        11.687269509496    2.141e-01
	   3        11.708468832450    3.640e-02
	   4        11.735154334001    1.727e-02
	   5        11.738659800710    4.385e-03
	   6        11.738204562256    1.371e-03
	   7        11.738457093291    5.970e-04
	   8        11.738481909811    2.545e-04
	   9        11.738418006523    8.250e-05
	  10        11.738426692178    2.167e-05
	  11        11.738443116145    7.221e-06
	  12        11.738451547760    1.655e-06
	  13        11.738451745003    4.698e-07
	  14        11.738451287512    2.137e-07
	-----------------------------------------
	Converged Mu_Y-Perturbed Wfn to 7.056e-08

	Computing Mu_Y-Perturbed Wave Function (0.077 E_h).
	Iter   Pseudopolarizability       RMS 
	----   --------------------   -----------
	   0         8.734078829064
	   1        11.372482003376    5.267e-01
	   2        14.625138958204    3.172e-01
	   3        14.707458953928    6.768e-02
	   4        14.802431838347    3.812e-02
	   5        14.817274303863    1.312e-02
	   6        14.816185883861    5.533e-03
	   7        14.817784789015    3.298e-03
	   8        14.818252343345    1.701e-03
	   9        14.817811887283    5.900e-04
	  10        14.817864349207    2.121e-04
	  11        14.818061369682    1.007e-04
	  12        14.818194106929    3.557e-05
	  13        14.818182701254    1.287e-05
	  14        14.818158363475    6.183e-06
	  15        14.818145334303    2.934e-06
	  16        14.818143461649    1.121e-06
	  17        14.818143634898    3.282e-07
	  18        14.818143560527    2.019e-07
	  19        14.818143503605    1.097e-07
	-----------------------------------------
	Converged Mu_Y-Perturbed Wfn to 3.717e-08

	Computing P_Y-Perturbed Wave Function (-0.077 E_h).
	Iter   Pseudopolarizability       RMS 
	----   --------------------   -----------
	   0         8.812990810177
	   1        10.171843310504    2.477e-01
	   2        10.959725460670    1.141e-01
	   3        10.982059732526    2.422e-02
	   4        10.985800380525    1.012e-02
	   5        10.986781491825    2.298e-03
	   6        10.986692082107    7.035e-04
	   7        10.986788770182    2.025e-04
	   8        10.986787200891    6.323e-05
	   9        10.986776253061    2.684e-05
	  10        10.986778054415    1.224e-05
	  11        10.986780472331    4.666e-06
	  12        10.986781545715    1.140e-06
	  13        10.986781064112    3.064e-07
	  14        10.986780901581    1.160e-07
	-----------------------------------------
	Converged P_Y-Perturbed Wfn to 3.880e-08

	Computing L_Y-Perturbed Wave Function (0.077 E_h).
	Iter   Pseudopolarizability       RMS 
	----   --------------------   -----------
	   0         0.262633836313
	   1         0.354933360531    9.748e-02
	   2         0.466629573419    6.516e-02
	   3         0.480858941128    2.190e-02
	   4         0.485088715376    6.615e-03
	   5         0.484933491805    2.522e-03
	   6         0.484906036000    1.298e-03
	   7         0.485092237600    7.672e-04
	   8         0.485041900833    2.958e-04
	   9         0.485057705961    7.779e-05
	  10         0.485058820682    3.420e-05
	  11         0.485055938496    1.000e-05
	  12         0.485053055782    3.974e-06
	  13         0.485052835670    1.263e-06
	  14         0.485053255039    6.830e-07
	  15         0.485053445755    2.280e-07
	-----------------------------------------
	Converged L_Y-Perturbed Wfn to 9.226e-08

	Computing Mu_Z-Perturbed Wave Function (-0.077 E_h).
	Iter   Pseudopolarizability       RMS 
	----   --------------------   -----------
	   0         5.589388158319
	   1         6.873021150307    3.048e-01
	   2         7.928921854879    1.503e-01
	   3         7.927317325416    2.453e-02
	   4         7.934899140943    1.048e-02
	   5         7.936156278878    2.537e-03
	   6         7.936046888324    8.182e-04
	   7         7.936116716647    3.326e-04
	   8         7.936106179257    1.061e-04
	   9         7.936086102277    3.219e-05
	  10         7.936088113740    1.024e-05
	  11         7.936092033157    3.844e-06
	  12         7.936094238853    1.071e-06
	  13         7.936094263816    3.684e-07
	  14         7.936094044735    1.329e-07
	-----------------------------------------
	Converged Mu_Z-Perturbed Wfn to 4.235e-08

	Computing Mu_Z-Perturbed Wave Function (0.077 E_h).
	Iter   Pseudopolarizability       RMS 
	----   --------------------   -----------
	   0         6.253187530003
	   1         7.896306830198    3.986e-01
	   2         9.620732697411    2.265e-01
	   3         9.638587582337    4.898e-02
	   4         9.675383144770    2.494e-02
	   5         9.681366185540    8.203e-03
	   6         9.681090362612    3.258e-03
	   7         9.681530095191    1.667e-03
	   8         9.681501489403    6.286e-04
	   9         9.681394338864    2.154e-04
	  10         9.681413589421    7.645e-05
	  11         9.681445299340    3.380e-05
	  12         9.681467094517    1.322e-05
	  13         9.681465060593    6.061e-06
	  14         9.681459721737    2.930e-06
	  15         9.681456794336    1.402e-06
	  16         9.681456579840    6.184e-07
	  17         9.681456804638    2.702e-07
	  18         9.681456933193    1.198e-07
	-----------------------------------------
	Converged Mu_Z-Perturbed Wfn to 5.009e-08

	Computing P_Z-Perturbed Wave Function (-0.077 E_h).
	Iter   Pseudopolarizability       RMS 
	----   --------------------   -----------
	   0         9.200464708753
	   1        10.346822417381    2.220e-01
	   2        10.971763481054    9.650e-02
	   3        10.975740590281    2.048e-02
	   4        10.976064814529    8.272e-03
	   5        10.976882446422    2.213e-03
	   6        10.976885036975    7.474e-04
	   7        10.976946619863    2.889e-04
	   8        10.976950755843    9.823e-05
	   9        10.976941834739    2.666e-05
	  10        10.976943088139    7.829e-06
	  11        10.976943865067    2.818e-06
	  12        10.976944409489    8.775e-07
	  13        10.976944226646    2.902e-07
	  14        10.976944135759    1.006e-07
	-----------------------------------------
	Converged P_Z-Perturbed Wfn to 3.307e-08

	Computing L_Z-Perturbed Wave Function (0.077 E_h).
	Iter   Pseudopolarizability       RMS 
	----   --------------------   -----------
	   0         4.475329532579
	   1         5.518347534253    3.096e-01
	   2         6.646665896319    2.165e-01
	   3         6.872592338423    9.221e-02
	   4         6.973440664749    3.626e-02
	   5         6.974394669107    1.325e-02
	   6         6.977028839759    5.757e-03
	   7         6.978147315365    2.088e-03
	   8         6.977545322784    8.810e-04
	   9         6.977573019497    3.001e-04
	  10         6.977566287377    1.472e-04
	  11         6.977556457646    6.560e-05
	  12         6.977514815420    2.900e-05
	  13         6.977508503879    9.720e-06
	  14         6.977513197553    3.322e-06
	  15         6.977515494472    1.148e-06
	  16         6.977516257985    4.351e-07
	  17         6.977516326218    1.364e-07
	-----------------------------------------
	Converged L_Z-Perturbed Wfn to 4.957e-08

	Computing Q_XX-Perturbed Wave Function (0.077 E_h).
	Iter   Pseudopolarizability       RMS 
	----   --------------------   -----------
	   0        16.113420541740
	   1        20.114071883931    4.956e-01
	   2        23.075627111083    2.496e-01
	   3        23.146615509196    6.283e-02
	   4        23.204621367090    3.027e-02
	   5        23.208820493449    8.041e-03
	   6        23.211099941147    2.922e-03
	   7        23.211848144131    1.133e-03
	   8        23.211709663099    5.570e-04
	   9        23.211698266234    2.572e-04
	  10        23.211766692336    1.104e-04
	  11        23.211794523855    4.498e-05
	  12        23.211783681129    2.050e-05
	  13        23.211769668022    7.681e-06
	  14        23.211766297311    2.453e-06
	  15        23.211764911613    8.895e-07
	  16        23.211764254010    3.878e-07
	  17        23.211763955276    1.725e-07
	-----------------------------------------
	Converged Q_XX-Perturbed Wfn to 7.664e-08

	Computing Q_XY-Perturbed Wave Function (0.077 E_h).
	Iter   Pseudopolarizability       RMS 
	----   --------------------   -----------
	   0        25.909125393510
	   1        33.801467209683    9.058e-01
	   2        42.618147783876    6.017e-01
	   3        43.569474612153    2.433e-01
	   4        44.423510779129    1.229e-01
	   5        44.526347038765    4.054e-02
	   6        44.539175873249    1.251e-02
	   7        44.546738283510    5.188e-03
	   8        44.543945556961    2.054e-03
	   9        44.543718123594    6.275e-04
	  10        44.543938827333    2.478e-04
	  11        44.544029159478    9.200e-05
	  12        44.543997095195    4.219e-05
	  13        44.543965126096    1.985e-05
	  14        44.543970313752    8.095e-06
	  15        44.543976242613    3.044e-06
	  16        44.543977085487    1.205e-06
	  17        44.543975487967    5.193e-07
	  18        44.543973356262    2.666e-07
	  19        44.543972390033    1.022e-07
	-----------------------------------------
	Converged Q_XY-Perturbed Wfn to 3.057e-08

	Computing Q_XZ-Perturbed Wave Function (0.077 E_h).
	Iter   Pseudopolarizability       RMS 
	----   --------------------   -----------
	   0        10.001440299797
	   1        13.147461798254    5.019e-01
	   2        15.905455878328    2.785e-01
	   3        15.998802782958    7.948e-02
	   4        16.066409718080    3.638e-02
	   5        16.076392706535    1.680e-02
	   6        16.082323008431    8.487e-03
	   7        16.084709889869    4.114e-03
	   8        16.083721735847    1.750e-03
	   9        16.083914969884    6.700e-04
	  10        16.084117243209    2.779e-04
	  11        16.084113138964    7.428e-05
	  12        16.084056896809    2.454e-05
	  13        16.084040229691    7.212e-06
	  14        16.084040304551    2.696e-06
	  15        16.084041360627    1.115e-06
	  16        16.084041611227    5.795e-07
	  17        16.084041206725    2.834e-07
	  18        16.084040933947    1.195e-07
	-----------------------------------------
	Converged Q_XZ-Perturbed Wfn to 5.632e-08

	Computing Q_YX-Perturbed Wave Function (0.077 E_h).
	Iter   Pseudopolarizability       RMS 
	----   --------------------   -----------
	   0        25.909125393510
	   1        33.801467209683    9.058e-01
	   2        42.618147783876    6.017e-01
	   3        43.569474612153    2.433e-01
	   4        44.423510779129    1.229e-01
	   5        44.526347038765    4.054e-02
	   6        44.539175873249    1.251e-02
	   7        44.546738283510    5.188e-03
	   8        44.543945556961    2.054e-03
	   9        44.543718123594    6.275e-04
	  10        44.543938827333    2.478e-04
	  11        44.544029159478    9.200e-05
	  12        44.543997095195    4.219e-05
	  13        44.543965126096    1.985e-05
	  14        44.543970313752    8.095e-06
	  15        44.543976242613    3.044e-06
	  16        44.543977085487    1.205e-06
	  17        44.543975487967    5.193e-07
	  18        44.543973356262    2.666e-07
	  19        44.543972390033    1.022e-07
	-----------------------------------------
	Converged Q_YX-Perturbed Wfn to 3.057e-08

	Computing Q_YY-Perturbed Wave Function (0.077 E_h).
	Iter   Pseudopolarizability       RMS 
	----   --------------------   -----------
	   0        34.532788476992
	   1        41.818157094437    6.285e-01
	   2        46.955934151323    3.213e-01
	   3        47.250760063520    1.122e-01
	   4        47.426212762795    5.464e-02
	   5        47.443730480746    1.916e-02
	   6        47.449264715192    7.378e-03
	   7        47.451134827084    3.197e-03
	   8        47.450859370983    1.341e-03
	   9        47.450986106770    4.346e-04
	  10        47.451146840594    1.696e-04
	  11        47.451126257826    5.746e-05
	  12        47.451069990060    2.431e-05
	  13        47.451038382522    9.303e-06
	  14        47.451028885739    4.822e-06
	  15        47.451024863792    2.584e-06
	  16        47.451023019414    1.171e-06
	  17        47.451022066679    4.532e-07
	  18        47.451022007375    1.497e-07
	-----------------------------------------
	Converged Q_YY-Perturbed Wfn to 6.644e-08

	Computing Q_YZ-Perturbed Wave Function (0.077 E_h).
	Iter   Pseudopolarizability       RMS 
	----   --------------------   -----------
	   0        45.008235401582
	   1        60.535097037772    1.325e+00
	   2        79.387272154844    8.233e-01
	   3        80.000780929526    2.063e-01
	   4        80.749251277178    1.067e-01
	   5        80.841812248009    2.893e-02
	   6        80.854829464398    1.062e-02
	   7        80.862014301418    4.431e-03
	   8        80.860634220955    1.698e-03
	   9        80.859569452516    8.978e-04
	  10        80.858985196194    5.400e-04
	  11        80.859786889388    2.521e-04
	  12        80.860293665993    9.340e-05
	  13        80.860261762160    3.973e-05
	  14        80.860133794997    1.968e-05
	  15        80.860064880306    7.481e-06
	  16        80.860052776452    2.844e-06
	  17        80.860050686573    1.000e-06
	  18        80.860051456526    4.107e-07
	  19        80.860050954703    1.782e-07
	-----------------------------------------
	Converged Q_YZ-Perturbed Wfn to 7.735e-08

	Computing Q_ZX-Perturbed Wave Function (0.077 E_h).
	Iter   Pseudopolarizability       RMS 
	----   --------------------   -----------
	   0        10.001440299797
	   1        13.147461798254    5.019e-01
	   2        15.905455878328    2.785e-01
	   3        15.998802782958    7.948e-02
	   4        16.066409718080    3.638e-02
	   5        16.076392706535    1.680e-02
	   6        16.082323008431    8.487e-03
	   7        16.084709889869    4.114e-03
	   8        16.083721735847    1.750e-03
	   9        16.083914969884    6.700e-04
	  10        16.084117243209    2.779e-04
	  11        16.084113138964    7.428e-05
	  12        16.084056896809    2.454e-05
	  13        16.084040229691    7.212e-06
	  14        16.084040304551    2.696e-06
	  15        16.084041360627    1.115e-06
	  16        16.084041611227    5.795e-07
	  17        16.084041206725    2.834e-07
	  18        16.084040933947    1.195e-07
	-----------------------------------------
	Converged Q_ZX-Perturbed Wfn to 5.632e-08

	Computing Q_ZY-Perturbed Wave Function (0.077 E_h).
	Iter   Pseudopolarizability       RMS 
	----   --------------------   -----------
	   0        45.008235401582
	   1        60.535097037772    1.325e+00
	   2        79.387272154844    8.233e-01
	   3        80.000780929526    2.063e-01
	   4        80.749251277178    1.067e-01
	   5        80.841812248009    2.893e-02
	   6        80.854829464398    1.062e-02
	   7        80.862014301418    4.431e-03
	   8        80.860634220955    1.698e-03
	   9        80.859569452516    8.978e-04
	  10        80.858985196194    5.400e-04
	  11        80.859786889388    2.521e-04
	  12        80.860293665993    9.340e-05
	  13        80.860261762160    3.973e-05
	  14        80.860133794997    1.968e-05
	  15        80.860064880306    7.481e-06
	  16        80.860052776452    2.844e-06
	  17        80.860050686573    1.000e-06
	  18        80.860051456526    4.107e-07
	  19        80.860050954703    1.782e-07
	-----------------------------------------
	Converged Q_ZY-Perturbed Wfn to 7.735e-08

	Computing Q_ZZ-Perturbed Wave Function (0.077 E_h).
	Iter   Pseudopolarizability       RMS 
	----   --------------------   -----------
	   0        19.662089368212
	   1        24.761074420000    5.727e-01
	   2        28.618488926976    3.024e-01
	   3        28.791739451230    9.773e-02
	   4        28.891648011647    4.119e-02
	   5        28.906909740720    1.670e-02
	   6        28.914051152480    6.364e-03
	   7        28.915865426002    2.569e-03
	   8        28.915344063123    1.052e-03
	   9        28.915350984059    3.233e-04
	  10        28.915419444667    1.329e-04
	  11        28.915398750341    4.553e-05
	  12        28.915357569983    1.775e-05
	  13        28.915344918424    5.278e-06
	  14        28.915343378542    2.120e-06
	  15        28.915342544028    1.088e-06
	  16        28.915341452245    5.939e-07
	  17        28.915340445045    2.783e-07
	  18        28.915340273962    1.135e-07
	-----------------------------------------
	Converged Q_ZZ-Perturbed Wfn to 5.266e-08

	Computing 1/2 <<Mu;Mu>>_(0.077) tensor.
	Computing 1/2 <<P;L>>_(0.077) tensor.
	Computing 1/2 <<Mu;Q>>_(0.077) tensor.

	Computing P*_X-Perturbed Wave Function (0.077 E_h).
	Iter   Pseudopolarizability       RMS 
	----   --------------------   -----------
	   0         9.060667107213
	   1        10.230094331833    2.336e-01
	   2        10.878623310666    1.246e-01
	   3        10.920755475451    5.172e-02
	   4        10.940073592800    2.266e-02
	   5        10.944573462611    1.007e-02
	   6        10.946062995316    5.009e-03
	   7        10.946724959637    2.433e-03
	   8        10.946587522118    1.129e-03
	   9        10.946678480221    4.413e-04
	  10        10.946714665293    1.827e-04
	  11        10.946683114809    4.749e-05
	  12        10.946657639330    1.451e-05
	  13        10.946652290833    4.569e-06
	  14        10.946652161370    2.193e-06
	  15        10.946652311423    9.841e-07
	  16        10.946652170321    4.231e-07
	  17        10.946651978847    1.867e-07
	  18        10.946651882362    1.012e-07
	-----------------------------------------
	Converged P*_X-Perturbed Wfn to 4.472e-08

	Computing L*_X-Perturbed Wave Function (-0.077 E_h).
	Iter   Pseudopolarizability       RMS 
	----   --------------------   -----------
	   0         4.688113425770
	   1         5.741498306932    2.665e-01
	   2         6.609560308995    1.453e-01
	   3         6.630463292169    3.197e-02
	   4         6.646768468168    1.241e-02
	   5         6.647630139460    3.715e-03
	   6         6.647850474795    1.592e-03
	   7         6.648121955104    6.038e-04
	   8         6.648081065761    2.075e-04
	   9         6.648073479746    5.707e-05
	  10         6.648072993479    1.759e-05
	  11         6.648077362903    5.089e-06
	  12         6.648078332487    1.449e-06
	  13         6.648078079380    4.425e-07
	  14         6.648077942996    1.615e-07
	-----------------------------------------
	Converged L*_X-Perturbed Wfn to 5.768e-08

	Computing P*_Y-Perturbed Wave Function (0.077 E_h).
	Iter   Pseudopolarizability       RMS 
	----   --------------------   -----------
	   0         9.507619434276
	   1        11.138227594445    3.116e-01
	   2        12.296565595750    1.658e-01
	   3        12.358209815784    4.377e-02
	   4        12.378046484514    2.114e-02
	   5        12.381846695815    6.242e-03
	   6        12.381701897066    2.293e-03
	   7        12.382093991071    7.879e-04
	   8        12.382073474260    4.104e-04
	   9        12.382007729879    2.356e-04
	  10        12.382035954041    1.188e-04
	  11        12.382058128515    4.754e-05
	  12        12.382066916021    2.007e-05
	  13        12.382056860811    7.631e-06
	  14        12.382053858651    2.828e-06
	  15        12.382052923373    1.052e-06
	  16        12.382052862014    4.232e-07
	  17        12.382052650276    1.827e-07
	-----------------------------------------
	Converged P*_Y-Perturbed Wfn to 6.758e-08

	Computing L*_Y-Perturbed Wave Function (-0.077 E_h).
	Iter   Pseudopolarizability       RMS 
	----   --------------------   -----------
	   0         0.238988351583
	   1         0.313357016823    7.380e-02
	   2         0.379958534082    4.166e-02
	   3         0.382751712094    9.776e-03
	   4         0.383652093031    2.304e-03
	   5         0.383571356966    5.862e-04
	   6         0.383562021161    1.868e-04
	   7         0.383573371948    8.272e-05
	   8         0.383569452162    3.591e-05
	   9         0.383570743205    8.691e-06
	  10         0.383570960979    2.649e-06
	  11         0.383570827173    7.177e-07
	  12         0.383570672941    2.328e-07
	-----------------------------------------
	Converged L*_Y-Perturbed Wfn to 4.632e-08

	Computing P*_Z-Perturbed Wave Function (0.077 E_h).
	Iter   Pseudopolarizability       RMS 
	----   --------------------   -----------
	   0         9.864920677955
	   1        11.233855850930    2.789e-01
	   2        12.146354177879    1.415e-01
	   3        12.167457193356    3.954e-02
	   4        12.177946730928    1.875e-02
	   5        12.181408634620    6.469e-03
	   6        12.181692879173    2.767e-03
	   7        12.182028146949    1.329e-03
	   8        12.182037386487    5.669e-04
	   9        12.182000771466    1.860e-04
	  10        12.182016630476    6.954e-05
	  11        12.182023239907    3.243e-05
	  12        12.182025135065    1.576e-05
	  13        12.182020072269    7.115e-06
	  14        12.182018296516    3.126e-06
	  15        12.182017778567    1.369e-06
	  16        12.182017707230    5.555e-07
	  17        12.182017562070    2.154e-07
	-----------------------------------------
	Converged P*_Z-Perturbed Wfn to 9.868e-08

	Computing L*_Z-Perturbed Wave Function (-0.077 E_h).
	Iter   Pseudopolarizability       RMS 
	----   --------------------   -----------
	   0         4.150959806417
	   1         5.002082684326    2.326e-01
	   2         5.684029548231    1.364e-01
	   3         5.730062785856    4.045e-02
	   4         5.750019833031    1.196e-02
	   5         5.749109116339    3.146e-03
	   6         5.749287446537    1.051e-03
	   7         5.749426381420    3.241e-04
	   8         5.749379260792    1.156e-04
	   9         5.749383311871    3.001e-05
	  10         5.749383594166    9.479e-06
	  11         5.749384324091    3.047e-06
	  12         5.749383620181    1.191e-06
	  13         5.749383522508    4.017e-07
	  14         5.749383683573    1.511e-07
	-----------------------------------------
	Converged L*_Z-Perturbed Wfn to 4.933e-08

	Computing Q_XX-Perturbed Wave Function (-0.077 E_h).
	Iter   Pseudopolarizability       RMS 
	----   --------------------   -----------
	   0        14.805312478725
	   1        18.148639921062    4.034e-01
	   2        20.228012744816    1.777e-01
	   3        20.248814362069    3.433e-02
	   4        20.265866397499    1.459e-02
	   5        20.266754455442    3.378e-03
	   6        20.267427847686    1.063e-03
	   7        20.267656909856    3.577e-04
	   8        20.267606649337    1.198e-04
	   9        20.267598871056    3.861e-05
	  10        20.267606610310    1.277e-05
	  11        20.267611133871    4.577e-06
	  12        20.267611253489    1.579e-06
	  13        20.267610329082    5.593e-07
	  14        20.267610061156    1.788e-07
	-----------------------------------------
	Converged Q_XX-Perturbed Wfn to 4.619e-08

	Computing Q_XY-Perturbed Wave Function (-0.077 E_h).
	Iter   Pseudopolarizability       RMS 
	----   --------------------   -----------
	   0        23.448099869244
	   1        29.712317071386    6.721e-01
	   2        34.917120401053    3.700e-01
	   3        35.035803768673    9.803e-02
	   4        35.172513759212    3.905e-02
	   5        35.180440040529    1.004e-02
	   6        35.181436710965    2.444e-03
	   7        35.182468163819    7.788e-04
	   8        35.182176173770    2.604e-04
	   9        35.182134147843    7.397e-05
	  10        35.182141737922    2.517e-05
	  11        35.182158737600    8.021e-06
	  12        35.182160421521    1.833e-06
	  13        35.182159184999    4.627e-07
	  14        35.182158663295    1.591e-07
	-----------------------------------------
	Converged Q_XY-Perturbed Wfn to 6.553e-08

	Computing Q_XZ-Perturbed Wave Function (-0.077 E_h).
	Iter   Pseudopolarizability       RMS 
	----   --------------------   -----------
	   0         9.101914600591
	   1        11.665920032049    3.919e-01
	   2        13.454458809654    1.855e-01
	   3        13.466343687108    3.656e-02
	   4        13.479504105131    1.348e-02
	   5        13.480126731913    4.525e-03
	   6        13.480885442053    1.735e-03
	   7        13.481202694093    6.953e-04
	   8        13.481033564418    2.341e-04
	   9        13.481039026697    6.618e-05
	  10        13.481050355050    2.469e-05
	  11        13.481052925123    6.947e-06
	  12        13.481050056843    1.813e-06
	  13        13.481049040706    4.471e-07
	  14        13.481048963650    1.417e-07
	-----------------------------------------
	Converged Q_XZ-Perturbed Wfn to 4.434e-08

	Computing Q_YX-Perturbed Wave Function (-0.077 E_h).
	Iter   Pseudopolarizability       RMS 
	----   --------------------   -----------
	   0        23.448099869244
	   1        29.712317071386    6.721e-01
	   2        34.917120401053    3.700e-01
	   3        35.035803768673    9.803e-02
	   4        35.172513759212    3.905e-02
	   5        35.180440040529    1.004e-02
	   6        35.181436710965    2.444e-03
	   7        35.182468163819    7.788e-04
	   8        35.182176173770    2.604e-04
	   9        35.182134147843    7.397e-05
	  10        35.182141737922    2.517e-05
	  11        35.182158737600    8.021e-06
	  12        35.182160421521    1.833e-06
	  13        35.182159184999    4.627e-07
	  14        35.182158663295    1.591e-07
	-----------------------------------------
	Converged Q_YX-Perturbed Wfn to 6.553e-08

	Computing Q_YY-Perturbed Wave Function (-0.077 E_h).
	Iter   Pseudopolarizability       RMS 
	----   --------------------   -----------
	   0        31.974515716990
	   1        38.164010222735    5.239e-01
	   2        41.924440398910    2.362e-01
	   3        42.036040277453    6.239e-02
	   4        42.087565600366    2.567e-02
	   5        42.090719520716    7.023e-03
	   6        42.091569292157    2.110e-03
	   7        42.091876717155    7.057e-04
	   8        42.091765811711    2.524e-04
	   9        42.091771417039    7.936e-05
	  10        42.091796874088    2.532e-05
	  11        42.091793279681    6.574e-06
	  12        42.091787184075    2.119e-06
	  13        42.091784186006    6.605e-07
	  14        42.091783481576    2.328e-07
	-----------------------------------------
	Converged Q_YY-Perturbed Wfn to 8.729e-08

	Computing Q_YZ-Perturbed Wave Function (-0.077 E_h).
	Iter   Pseudopolarizability       RMS 
	----   --------------------   -----------
	   0        39.954772744042
	   1        51.957752280097    9.905e-01
	   2        62.902860081869    5.252e-01
	   3        62.947362916394    9.308e-02
	   4        63.100669559336    4.106e-02
	   5        63.116806498177    8.563e-03
	   6        63.118498845517    2.530e-03
	   7        63.119865906510    8.132e-04
	   8        63.119722899365    2.197e-04
	   9        63.119592623075    6.781e-05
	  10        63.119569464246    3.132e-05
	  11        63.119605929166    1.574e-05
	  12        63.119628386382    4.587e-06
	  13        63.119627176401    1.382e-06
	  14        63.119624562835    5.588e-07
	  15        63.119623040640    1.875e-07
	-----------------------------------------
	Converged Q_YZ-Perturbed Wfn to 5.966e-08

	Computing Q_ZX-Perturbed Wave Function (-0.077 E_h).
	Iter   Pseudopolarizability       RMS 
	----   --------------------   -----------
	   0         9.101914600591
	   1        11.665920032049    3.919e-01
	   2        13.454458809654    1.855e-01
	   3        13.466343687108    3.656e-02
	   4        13.479504105131    1.348e-02
	   5        13.480126731913    4.525e-03
	   6        13.480885442053    1.735e-03
	   7        13.481202694093    6.953e-04
	   8        13.481033564418    2.341e-04
	   9        13.481039026697    6.618e-05
	  10        13.481050355050    2.469e-05
	  11        13.481052925123    6.947e-06
	  12        13.481050056843    1.813e-06
	  13        13.481049040706    4.471e-07
	  14        13.481048963650    1.417e-07
	-----------------------------------------
	Converged Q_ZX-Perturbed Wfn to 4.434e-08

	Computing Q_ZY-Perturbed Wave Function (-0.077 E_h).
	Iter   Pseudopolarizability       RMS 
	----   --------------------   -----------
	   0        39.954772744042
	   1        51.957752280097    9.905e-01
	   2        62.902860081869    5.252e-01
	   3        62.947362916394    9.308e-02
	   4        63.100669559336    4.106e-02
	   5        63.116806498177    8.563e-03
	   6        63.118498845517    2.530e-03
	   7        63.119865906510    8.132e-04
	   8        63.119722899365    2.197e-04
	   9        63.119592623075    6.781e-05
	  10        63.119569464246    3.132e-05
	  11        63.119605929166    1.574e-05
	  12        63.119628386382    4.587e-06
	  13        63.119627176401    1.382e-06
	  14        63.119624562835    5.588e-07
	  15        63.119623040640    1.875e-07
	-----------------------------------------
	Converged Q_ZY-Perturbed Wfn to 5.966e-08

	Computing Q_ZZ-Perturbed Wave Function (-0.077 E_h).
	Iter   Pseudopolarizability       RMS 
	----   --------------------   -----------
	   0        18.104195771598
	   1        22.365315062639    4.613e-01
	   2        25.033890389349    2.101e-01
	   3        25.076482285854    4.921e-02
	   4        25.100811883944    1.753e-02
	   5        25.103376030263    5.652e-03
	   6        25.104642695893    1.684e-03
	   7        25.104978315107    5.592e-04
	   8        25.104854397865    2.026e-04
	   9        25.104846090701    5.719e-05
	  10        25.104856056471    2.013e-05
	  11        25.104855290491    5.788e-06
	  12        25.104851594810    1.835e-06
	  13        25.104850205330    4.810e-07
	  14        25.104849997286    1.585e-07
	-----------------------------------------
	Converged Q_ZZ-Perturbed Wfn to 6.258e-08

	Computing 1/2 <<P*;L*>>_(0.077) tensor.
	Computing <<Mu;Q>>_(-0.077) tensor.

                 CCSD Dipole Polarizability [(e^2 a0^2)/E_h]:
  -------------------------------------------------------------------------
   Evaluated at omega = 0.077357 E_h (589.00 nm, 2.105 eV, 16977.93 cm-1)
  -------------------------------------------------------------------------

                   0                     1                     2        

    0      5.442456938699039    -0.829631300710540     0.000000000000000
    1     -0.829631300710540    12.750805638017125     0.000000000000000
    2      0.000000000000000     0.000000000000000     8.574680089100873

         CCSD Optical Rotation Tensor (Velocity Gauge):
  -------------------------------------------------------------------------
   Evaluated at omega = 0.077357 E_h (589.00 nm, 2.105 eV, 16977.93 cm-1)
  -------------------------------------------------------------------------

                   0                     1                     2        

    0      0.444271559563171    -0.343249618294797     0.000000000000000
    1     -0.220426046552221     0.013132320723532     0.000000000000000
    2      0.000000000000000     0.000000000000000    -0.470902367218709

        CCSD Optical Rotation Tensor (Modified Velocity Gauge):
  -------------------------------------------------------------------------
   Evaluated at omega = 0.077357 E_h (589.00 nm, 2.105 eV, 16977.93 cm-1)
  -------------------------------------------------------------------------

                   0                     1                     2        

    0      0.011768389251626    -0.011392294704355     0.000000000000000
    1     -0.022950097311328     0.000612244233077     0.000000000000000
    2      0.000000000000000     0.000000000000000    -0.009588468041791

    CCSD Electric-Dipole/Quadrupole Polarizability [(e^2 a0^2)/E_h]:
  -------------------------------------------------------------------------
   Evaluated at omega = 0.077357 E_h (589.00 nm, 2.105 eV, 16977.93 cm-1)
  -------------------------------------------------------------------------

                   0                     1                     2        

    0      0.000000000000000     0.000000000000000     3.900095508706231
    1      0.000000000000000     0.000000000000000    -5.834071939276820
    2      3.900095508706231    -5.834071939276820     0.000000000000000

                   0                     1                     2        

    0      0.000000000000000     0.000000000000000    -2.378762400760358
    1      0.000000000000000     0.000000000000000     6.852406904104008
    2     -2.378762400760358     6.852406904104008     0.000000000000000

                   0                     1                     2        

    0     -4.548246648393270    -5.301116089249589     0.000000000000000
    1     -5.301116089249589    -1.354243751850194     0.000000000000000
    2      0.000000000000000     0.000000000000000     5.902490425685267

    Psi4 stopped on: Saturday, 12 February 2022 03:20PM
    Psi4 wall time for execution: 0:00:59.74

*** Psi4 exiting successfully. Buy a developer a beer!
