    -----------------------------------------------------------------------
          PSI4: An Open-Source Ab Initio Electronic Structure Package
                              PSI 4.0.0-alpha Driver

    J. M. Turney, A. C. Simmonett, R. M. Parrish, E. G. Hohenstein,
    F. Evangelista, J. T. Fermann, B. J. Mintz, L. A. Burns, J. J. Wilke,
    M. L. Abrams, N. J. Russ, M. L. Leininger, C. L. Janssen, E. T. Seidl,
    W. D. Allen, H. F. Schaefer, R. A. King, E. F. Valeev, C. D. Sherrill,
    and T. D. Crawford, WIREs Comput. Mol. Sci., (2011)
                         Additional Contributions by
    -----------------------------------------------------------------------


    Using LocalCommunicator (Number of processes = 1)

    Memory level set to 256.000 MB

  ==> Input File <==

--------------------------------------------------------------------------
#! Intercalls among python wrappers- database, cbs, optimize, energy, etc.
#! Though each call below functions individually, running them all in sequence or
#! mixing up the sequence is aspirational at present.
#! Also aspirational is using the intended types of gradients.

ref_DB_E = 0.016075135344  #TEST
ref_DB_CBS_E = 0.034877478903  #TEST
ref_CBS_E = -1.148830624581  #TEST
ref_CBS_E_postopt = -1.17444630 #TEST
ref_OPT_E_0 = -1.140254531567  #TEST
ref_OPT_E_1 = -1.122959828171  #TEST
ref_DB_OPT_E_BASIC = 37075.200420269888  #TEST
ref_DB_OPT_E_S22 = 4.636003565957  #TEST
ref_OPT_CBS_E_0 = -1.174446301062  #TEST

molecule h2 {
    H
    H 1 1.00
}

set globals {
    BASIS 3-21G
    REFERENCE RHF
    SCF_TYPE PK
    PRINT 1
    CONVERGENCE 11
    JOBTYPE SP
    GUESS CORE
}

# optimize(cbs(energy()))
optimize('mp2',func=cbs,corl_basis='cc-pv[dt]z',corl_scheme=corl_xtpl_helgaker_2,delta_wfn='ccsd',delta_basis='3-21g')
compare_values(ref_OPT_CBS_E_0, get_variable('CBS TOTAL ENERGY'), 7, "[1] Wrapper optimize (findif G) calling complete_basis_set calling energy")  #TEST

# database(energy())
db('mp2','RGC10',cast_up='sto-3g',subset=['HeHe-0.85','HeHe-1.0'],tabulate=['mp2 total energy'])
compare_values(ref_DB_E, get_variable('RGC10 DATABASE ROOT-MEAN-SQUARE DEVIATION'), 7, "[2] Wrapper database calling energy incl castup")  #TEST

# database(cbs(energy()))
db('mp2','RGC10',func=cbs,subset=['HeHe-0.85','HeHe-1.0'],tabulate=['mp2 total energy','current energy'],corl_basis='cc-pV[DT]Z',corl_scheme=corl_xtpl_helgaker_2,delta_wfn='ccsd(t)',delta_basis='3-21g')
compare_values(ref_DB_CBS_E, get_variable('RGC10 DATABASE ROOT-MEAN-SQUARE DEVIATION'), 7, "[3] Wrapper database calling complete_basis_set calling energy")  #TEST

# cbs(energy())  use first compare_values for h2 geom above, second for h2 geom after optimization in [1]
cbs(corl_wfn='mp2',corl_basis='cc-pv[dt]z',corl_scheme=corl_xtpl_helgaker_2,delta_wfn='ccsd',delta_basis='3-21g',delta2_wfn='ccsd(t)',delta2_wfn_lesser='ccsd',delta2_basis='3-21g')
#compare_values(ref_CBS_E, get_variable('CBS TOTAL ENERGY'), 7, "[4] Wrapper complete_basis_set calling energy")  #TEST
compare_values(ref_CBS_E_postopt, get_variable('CBS TOTAL ENERGY'), 7, "[4] Wrapper complete_basis_set calling energy")  #TEST

# opt(energy())
# TODO switch to mp2 once gradients thoroughly working again
optimize('mp2',dertype='none')
compare_values(ref_OPT_E_0, get_variable('CURRENT ENERGY'), 7, "[5] Wrapper optimize (findif G) calling energy")  #TEST
optimize('scf')
compare_values(ref_OPT_E_1, get_variable('CURRENT ENERGY'), 7, "[6] Wrapper optimize (analytic G) calling energy")  #TEST
h2.reset_point_group('c1')
h2.fix_orientation(1)
h2.update_geometry()
optimize('mp2')
compare_values(ref_OPT_E_0, get_variable('CURRENT ENERGY'), 7, "[7] Wrapper optimize (analytic G) calling energy")  #TEST

# database(opt(energy()))
db('mp2','S22',db_func=optimize,subset=[1],tabulate=['mp2 total energy','current energy'])
compare_values(ref_DB_OPT_E_S22, get_variable('S22 DATABASE ROOT-MEAN-SQUARE DEVIATION'), 5, "[8] Wrapper database S22 calling optimize (analytic G) calling energy")  #TEST

clean()

--------------------------------------------------------------------------
	Using finite-differences of energies to determine gradients.
	Generating geometries for use with 3-point formula.
	Displacement size will be 5.00e-03.
	Number of atoms is 2.
	Number of SALC's is 1.
	irrep = 0, ncomponent = 2
		0: atom 0, direction 2, coef 0.707107
		1: atom 1, direction 2, coef -0.707107
	Number of displacements (including reference) is 3.

  //>>>>>>>>>>>>>>>>>>>>>>>>>>>>>>>>>>>//
  //    Loading displacement 1 of 3    //
  //<<<<<<<<<<<<<<<<<<<<<<<<<<<<<<<<<<<//

  //>>>>>>>>>>>>>>>>>>>>>>>>>>>>>>>>>>>//
  //             CBS Setup             //
  //<<<<<<<<<<<<<<<<<<<<<<<<<<<<<<<<<<<//

    Naive listing of computations required.
            scf / cc-pvtz                  for  SCF TOTAL ENERGY
            mp2 / cc-pvdz                  for  MP2 CORRELATION ENERGY
            mp2 / cc-pvtz                  for  MP2 CORRELATION ENERGY
           ccsd / 3-21g                    for  CCSD CORRELATION ENERGY
            mp2 / 3-21g                    for  MP2 CORRELATION ENERGY

    Enlightened listing of computations required.
            mp2 / cc-pvdz                  for  MP2 CORRELATION ENERGY
            mp2 / cc-pvtz                  for  MP2 CORRELATION ENERGY
           ccsd / 3-21g                    for  CCSD CORRELATION ENERGY

  //>>>>>>>>>>>>>>>>>>>>>>>>>>>>>>>>>>>//
  //   CBS Computation: MP2 / CC-PVDZ  //
  //<<<<<<<<<<<<<<<<<<<<<<<<<<<<<<<<<<<//


*** tstart() called on localhost
*** at Wed Nov 16 00:34:01 2011

	There are an even number of electrons - assuming singlet.
	Specify the multiplicity with the MULTP option in the
	input if this is incorrect


         ---------------------------------------------------------
                                   SCF
            by Justin Turney, Rob Parrish, and Andy Simmonett
                              RHF Reference
                        1 Threads,    256 MiB Core
         ---------------------------------------------------------

  ==> Geometry <==

    Molecular point group: d2h

    Geometry (in Angstrom), charge = 0, multiplicity = 1:

       Center              X                  Y                   Z       
    ------------   -----------------  -----------------  -----------------
           H          0.000000000000     0.000000000000    -0.501863646767
           H          0.000000000000     0.000000000000     0.501863646767

    Number of unique atoms: 1

    Atoms equivalency:
       unique atom 0: 0 1 

  Running in d2h symmetry.

  Nuclear repulsion =    0.527212174471215

  Charge       = 0
  Multiplicity = 1
  Electrons    = 2
  Nalpha       = 1
  Nbeta        = 1

  ==> Algorithm <==

  SCF Algorithm Type is PK.
  DIIS enabled.
  MOM disabled.
  Guess Type is CORE.
  Energy threshold   = 1.00e-08
  Density threshold  = 1.00e-08
  Integral threshold = 0.00e+00

  ==> Primary Basis: CC-PVDZ <==

  Basis Set
    Number of shells: 6
    Number of basis function: 10
    Number of Cartesian functions: 10
    Spherical Harmonics?: true
    Max angular momentum: 1

  ==> Pre-Iterations <==

  Minimum eigenvalue in the overlap matrix is 1.1287442507E-01.
  Using Symmetric Orthogonalization.
  SCF Guess: Core (One-Electron) Hamiltonian.

  Initial RHF energy:    -0.59984732684806

   -------------------------------------------------------
    Irrep   Nso     Nmo     Nalpha   Nbeta   Ndocc  Nsocc
   -------------------------------------------------------
     Ag         3       3       1       1       1       0
     B1g        0       0       0       0       0       0
     B2g        1       1       0       0       0       0
     B3g        1       1       0       0       0       0
     Au         0       0       0       0       0       0
     B1u        3       3       0       0       0       0
     B2u        1       1       0       0       0       0
     B3u        1       1       0       0       0       0
   -------------------------------------------------------
    Total      10      10       1       1       1       0
   -------------------------------------------------------

  ==> Integral Setup <==

 MINTS: Wrapper to libmints.
   by Justin Turney

   Calculation information:
      Number of atoms:                   2
      Number of AO shells:               6
      Number of SO shells:               3
      Number of primitives:             10
      Number of atomic orbitals:        10
      Number of basis functions:        10

      Number of irreps:                  8
      Number of functions per irrep: [   3    0    1    1    0    3    1    1 ]

      Computing integrals...done

      Computed 292 non-zero integrals.

  ==> Iterations <==

                        Total Energy        Delta E     Density RMS

   @RHF iter   1:    -1.04975790160069   -4.49911e-01   0.00000e+00  
   @RHF iter   2:    -1.09789945285265   -4.81416e-02   4.03122e-02 DIIS
   @RHF iter   3:    -1.09948037165550   -1.58092e-03   8.47713e-03 DIIS
   @RHF iter   4:    -1.09948223493586   -1.86328e-06   2.26263e-04 DIIS
   @RHF iter   5:    -1.09948224427760   -9.34174e-09   2.18329e-05 DIIS
   @RHF iter   6:    -1.09948224427762   -1.44329e-14   1.50948e-08 DIIS

  ==> Post-Iterations <==

	Orbital Energies (a.u.)
	-----------------------

	Doubly Occupied:                                                      

	   1Ag    -0.524219  

	Virtual:                                                              

	   1B1u    0.142778     2Ag     0.540435     2B1u    0.793283  
	   1B2u    1.287412     1B3u    1.287412     3Ag     1.675049  
	   1B3g    1.869210     1B2g    1.869210     3B1u    2.728949  

	Final Occupation by Irrep:
	         Ag   B1g   B2g   B3g    Au   B1u   B2u   B3u 
	DOCC [     1,    0,    0,    0,    0,    0,    0,    0 ]

  Energy converged.

  @RHF Final Energy:    -1.09948224427762

  ==> Properties <==
  Nuclear Dipole Moment: (a.u.)
     X:     0.0000      Y:     0.0000      Z:     0.0000

  Electronic Dipole Moment: (a.u.)
     X:     0.0000      Y:     0.0000      Z:     0.0000

  Dipole Moment: (a.u.)
     X:     0.0000      Y:     0.0000      Z:     0.0000     Total:     0.0000

  Dipole Moment: (Debye)
     X:     0.0000      Y:     0.0000      Z:     0.0000     Total:     0.0000


  Saving occupied orbitals to File 180.

*** tstop() called on localhost at Wed Nov 16 00:34:01 2011
Module time:
	user time   =       0.07 seconds =       0.00 minutes
	system time =       0.01 seconds =       0.00 minutes
	total time  =          0 seconds =       0.00 minutes
Total time:
	user time   =       0.07 seconds =       0.00 minutes
	system time =       0.01 seconds =       0.00 minutes
	total time  =          0 seconds =       0.00 minutes

*** tstart() called on localhost
*** at Wed Nov 16 00:34:01 2011


	**************************************************
	* TRANSQT2: Program to transform integrals from  *
	*           the SO basis to the MO basis.        *
	*                                                *
	*            Daniel, David, & Justin             *
	**************************************************


	Input parameters:
	-----------------
	Wave function   =	MP2
	Backtransform   =	No
	Print Level     =	1
	Print TEIs      =	No
	Reference wfn   =	RHF
	Derivative      =	None
	Delete TEI File =	Yes
	Memory (Mbytes) =	100.0
	Cache Level     =	2
	Cache Type      =	LRU
	Chkpt Parameters:
	--------------------
	Number of irreps     = 8
	Number of SOs        = 10
	Number of MOs        = 10
	Number of active MOs = 10

	Label	# SOs	# FZDC	# DOCC	# SOCC	# VIRT	# FZVR
	-----	-----	------	------	------	------	------
	 Ag	   3	    0	    1	    0	    2	    0
	 B1g	   0	    0	    0	    0	    0	    0
	 B2g	   1	    0	    0	    0	    1	    0
	 B3g	   1	    0	    0	    0	    1	    0
	 Au	   0	    0	    0	    0	    0	    0
	 B1u	   3	    0	    0	    0	    3	    0
	 B2u	   1	    0	    0	    0	    1	    0
	 B3u	   1	    0	    0	    0	    1	    0

	Nuclear Rep. energy (chkpt) =      0.52721217447122
	SCF energy          (chkpt) =     -1.09948224427762

	Presorting SO-basis two-electron integrals.
	Sorting File: SO Ints (pq,rs) nbuckets = 1
	Frozen-core energy =    0.000000000000000
	Starting first half-transformation.
	Sorting half-transformed integrals.
	Starting second half-transformation.
	Two-electron integral transformation complete.

*** tstop() called on localhost at Wed Nov 16 00:34:01 2011
Module time:
	user time   =       0.01 seconds =       0.00 minutes
	system time =       0.00 seconds =       0.00 minutes
	total time  =          0 seconds =       0.00 minutes
Total time:
	user time   =       0.08 seconds =       0.00 minutes
	system time =       0.01 seconds =       0.00 minutes
	total time  =          0 seconds =       0.00 minutes

*** tstart() called on localhost
*** at Wed Nov 16 00:34:01 2011


			**************************
			*                        *
			*         CCSORT         *
			*                        *
			**************************


	Input parameters:
	-----------------
	Wave function   =	MP2
	Reference wfn   =	RHF
	Derivative      =	None
	Memory (Mbytes) =	256.0
	AO Basis        =	NONE
	Make (ab|cd)    =	False
	Make unpacked (ab|cd) =	False
	Cache Level     =	2
	Cache Type      =	LRU
	Local CC        =     No


	Chkpt Parameters:
	--------------------
	Number of irreps     = 8
	Number of MOs        = 10
	Number of active MOs = 10

	Label	# MOs	# FZDC	# DOCC	# SOCC	# VIRT	# FZVR
	-----	-----	------	------	------	------	------
	 Ag	   3	    0	    1	    0	    2	    0
	 B1g	   0	    0	    0	    0	    0	    0
	 B2g	   1	    0	    0	    0	    1	    0
	 B3g	   1	    0	    0	    0	    1	    0
	 Au	   0	    0	    0	    0	    0	    0
	 B1u	   3	    0	    0	    0	    3	    0
	 B2u	   1	    0	    0	    0	    1	    0
	 B3u	   1	    0	    0	    0	    1	    0

	Nuclear Rep. energy (chkpt) =      0.52721217447122
	SCF energy          (chkpt) =     -1.09948224427762

	Size of irrep 0 of <ab|cd> integrals:      0.000 (MW) /      0.002 (MB)
	Size of irrep 1 of <ab|cd> integrals:      0.000 (MW) /      0.000 (MB)
	Size of irrep 2 of <ab|cd> integrals:      0.000 (MW) /      0.001 (MB)
	Size of irrep 3 of <ab|cd> integrals:      0.000 (MW) /      0.001 (MB)
	Size of irrep 4 of <ab|cd> integrals:      0.000 (MW) /      0.000 (MB)
	Size of irrep 5 of <ab|cd> integrals:      0.000 (MW) /      0.002 (MB)
	Size of irrep 6 of <ab|cd> integrals:      0.000 (MW) /      0.001 (MB)
	Size of irrep 7 of <ab|cd> integrals:      0.000 (MW) /      0.001 (MB)
	Total:                                     0.001 (MW) /      0.008 (MB)

	Size of irrep 0 of <ia|bc> integrals:      0.000 (MW) /      0.000 (MB)
	Size of irrep 1 of <ia|bc> integrals:      0.000 (MW) /      0.000 (MB)
	Size of irrep 2 of <ia|bc> integrals:      0.000 (MW) /      0.000 (MB)
	Size of irrep 3 of <ia|bc> integrals:      0.000 (MW) /      0.000 (MB)
	Size of irrep 4 of <ia|bc> integrals:      0.000 (MW) /      0.000 (MB)
	Size of irrep 5 of <ia|bc> integrals:      0.000 (MW) /      0.000 (MB)
	Size of irrep 6 of <ia|bc> integrals:      0.000 (MW) /      0.000 (MB)
	Size of irrep 7 of <ia|bc> integrals:      0.000 (MW) /      0.000 (MB)
	Total:                                     0.000 (MW) /      0.001 (MB)

	Size of irrep 0 of tijab amplitudes:       0.000 (MW) /      0.000 (MB)
	Size of irrep 1 of tijab amplitudes:       0.000 (MW) /      0.000 (MB)
	Size of irrep 2 of tijab amplitudes:       0.000 (MW) /      0.000 (MB)
	Size of irrep 3 of tijab amplitudes:       0.000 (MW) /      0.000 (MB)
	Size of irrep 4 of tijab amplitudes:       0.000 (MW) /      0.000 (MB)
	Size of irrep 5 of tijab amplitudes:       0.000 (MW) /      0.000 (MB)
	Size of irrep 6 of tijab amplitudes:       0.000 (MW) /      0.000 (MB)
	Size of irrep 7 of tijab amplitudes:       0.000 (MW) /      0.000 (MB)
	Total:                                     0.000 (MW) /      0.000 (MB)


	Sorting File: A <ij|kl> nbuckets = 1
	Sorting File: C <ia|jb> nbuckets = 1
	Sorting File: D <ij|ab> nbuckets = 1
	Sorting File: E <ai|jk> nbuckets = 1
	Sorting File: F <ia|bc> nbuckets = 1
	One-electron energy          =     -2.20495009832274
	Two-electron (AA) energy     =      0.00000000000000
	Two-electron (BB) energy     =      0.00000000000000
	Two-electron (AB) energy     =      0.57825567957391
	Two-electron energy          =      0.57825567957391
	Frozen-core energy (transqt) =      0.00000000000000
	Reference energy             =     -1.09948224427762

*** tstop() called on localhost at Wed Nov 16 00:34:01 2011
Module time:
	user time   =       0.02 seconds =       0.00 minutes
	system time =       0.03 seconds =       0.00 minutes
	total time  =          0 seconds =       0.00 minutes
Total time:
	user time   =       0.10 seconds =       0.00 minutes
	system time =       0.04 seconds =       0.00 minutes
	total time  =          0 seconds =       0.00 minutes

*** tstart() called on localhost
*** at Wed Nov 16 00:34:01 2011

			*************************
			*                       *
			*          MP2          *
			*                       *
			*************************

	Nuclear rep. energy     =    0.527212174471215
	SCF energy              =   -1.099482244277618

	Input parameters:
	-----------------
	Wave function 	=	MP2
	Reference WFN 	=	RHF
	Derivative    	=	NONE
	Cache Level   	=	2
	Cache Type    	=	LRU
	Memory (MB)   	=	256.0
	Print Level   	=	1
	OPDM          	=	NO
	SCS           	=	True
	SCALE_OS      	=	1.200000
	SCALE_SS      	=	0.333333

	Scaled_OS correlation energy      =   -0.034489870585154
	Scaled_SS correlation energy      =    0.000000000000000
	SCS-MP2 correlation energy        =   -0.034489870585154
      * SCS-MP2 total energy              =   -1.133972114862772

	Opposite-spin correlation energy  =   -0.028741558820962
	Same-spin correlation energy      =    0.000000000000000
	MP2 correlation energy            =   -0.028741558820962
      * MP2 total energy                  =   -1.128223803098580


*** tstop() called on localhost at Wed Nov 16 00:34:01 2011
Module time:
	user time   =       0.02 seconds =       0.00 minutes
	system time =       0.02 seconds =       0.00 minutes
	total time  =          0 seconds =       0.00 minutes
Total time:
	user time   =       0.12 seconds =       0.00 minutes
	system time =       0.06 seconds =       0.00 minutes
	total time  =          0 seconds =       0.00 minutes

  //>>>>>>>>>>>>>>>>>>>>>>>>>>>>>>>>>>>//
  //   CBS Computation: MP2 / CC-PVTZ  //
  //<<<<<<<<<<<<<<<<<<<<<<<<<<<<<<<<<<<//


*** tstart() called on localhost
*** at Wed Nov 16 00:34:01 2011

	There are an even number of electrons - assuming singlet.
	Specify the multiplicity with the MULTP option in the
	input if this is incorrect


         ---------------------------------------------------------
                                   SCF
            by Justin Turney, Rob Parrish, and Andy Simmonett
                              RHF Reference
                        1 Threads,    256 MiB Core
         ---------------------------------------------------------

  ==> Geometry <==

    Molecular point group: d2h

    Geometry (in Angstrom), charge = 0, multiplicity = 1:

       Center              X                  Y                   Z       
    ------------   -----------------  -----------------  -----------------
           H          0.000000000000     0.000000000000    -0.501863646767
           H          0.000000000000     0.000000000000     0.501863646767

    Number of unique atoms: 1

    Atoms equivalency:
       unique atom 0: 0 1 

  Running in d2h symmetry.

  Nuclear repulsion =    0.527212174471215

  Charge       = 0
  Multiplicity = 1
  Electrons    = 2
  Nalpha       = 1
  Nbeta        = 1

  ==> Algorithm <==

  SCF Algorithm Type is PK.
  DIIS enabled.
  MOM disabled.
  Guess Type is CORE.
  Energy threshold   = 1.00e-08
  Density threshold  = 1.00e-08
  Integral threshold = 0.00e+00

  ==> Primary Basis: CC-PVTZ <==

  Basis Set
    Number of shells: 12
    Number of basis function: 28
    Number of Cartesian functions: 30
    Spherical Harmonics?: true
    Max angular momentum: 2

  ==> Pre-Iterations <==

  Minimum eigenvalue in the overlap matrix is 7.0871752591E-03.
  Using Symmetric Orthogonalization.
  SCF Guess: Core (One-Electron) Hamiltonian.

  Initial RHF energy:    -0.60166731849191

   -------------------------------------------------------
    Irrep   Nso     Nmo     Nalpha   Nbeta   Ndocc  Nsocc
   -------------------------------------------------------
     Ag         7       7       1       1       1       0
     B1g        1       1       0       0       0       0
     B2g        3       3       0       0       0       0
     B3g        3       3       0       0       0       0
     Au         1       1       0       0       0       0
     B1u        7       7       0       0       0       0
     B2u        3       3       0       0       0       0
     B3u        3       3       0       0       0       0
   -------------------------------------------------------
    Total      28      28       1       1       1       0
   -------------------------------------------------------

  ==> Integral Setup <==

 MINTS: Wrapper to libmints.
   by Justin Turney

   Calculation information:
      Number of atoms:                   2
      Number of AO shells:              12
      Number of SO shells:               6
      Number of primitives:             16
      Number of atomic orbitals:        30
      Number of basis functions:        28

      Number of irreps:                  8
      Number of functions per irrep: [   7    1    3    3    1    7    3    3 ]

      Computing integrals...done

      Computed 10381 non-zero integrals.

  ==> Iterations <==

                        Total Energy        Delta E     Density RMS

   @RHF iter   1:    -1.05217336381219   -4.50506e-01   0.00000e+00  
   @RHF iter   2:    -1.09950028086361   -4.73269e-02   1.11882e-02 DIIS
   @RHF iter   3:    -1.10136298564226   -1.86270e-03   3.10665e-03 DIIS
   @RHF iter   4:    -1.10138147548705   -1.84898e-05   4.41185e-04 DIIS
   @RHF iter   5:    -1.10138152280655   -4.73195e-08   2.27362e-05 DIIS
   @RHF iter   6:    -1.10138152317517   -3.68619e-10   1.02521e-06 DIIS
   @RHF iter   7:    -1.10138152317536   -1.92291e-13   2.47562e-08 DIIS

  ==> Post-Iterations <==

	Orbital Energies (a.u.)
	-----------------------

	Doubly Occupied:                                                      

	   1Ag    -0.525466  

	Virtual:                                                              

	   1B1u    0.123843     2Ag     0.328599     2B1u    0.545271  
	   1B2u    0.671424     1B3u    0.671424     3Ag     1.006192  
	   1B3g    1.061969     1B2g    1.061969     3B1u    1.474522  
	   4Ag     2.522334     4B1u    2.600199     1B1g    3.207911  
	   5Ag     3.207911     2B2u    3.223511     2B3u    3.223511  
	   6Ag     3.453184     1Au     3.819316     5B1u    3.819316  
	   3B2u    3.941325     3B3u    3.941325     2B3g    4.003188  
	   2B2g    4.003188     6B1u    4.090318     3B3g    4.900375  
	   3B2g    4.900375     7Ag     4.968231     7B1u    6.218251  

	Final Occupation by Irrep:
	         Ag   B1g   B2g   B3g    Au   B1u   B2u   B3u 
	DOCC [     1,    0,    0,    0,    0,    0,    0,    0 ]

  Energy converged.

  @RHF Final Energy:    -1.10138152317536

  ==> Properties <==
  Nuclear Dipole Moment: (a.u.)
     X:     0.0000      Y:     0.0000      Z:     0.0000

  Electronic Dipole Moment: (a.u.)
     X:     0.0000      Y:     0.0000      Z:     0.0000

  Dipole Moment: (a.u.)
     X:     0.0000      Y:     0.0000      Z:     0.0000     Total:     0.0000

  Dipole Moment: (Debye)
     X:     0.0000      Y:     0.0000      Z:     0.0000     Total:     0.0000


  Saving occupied orbitals to File 180.

*** tstop() called on localhost at Wed Nov 16 00:34:01 2011
Module time:
	user time   =       0.15 seconds =       0.00 minutes
	system time =       0.01 seconds =       0.00 minutes
	total time  =          0 seconds =       0.00 minutes
Total time:
	user time   =       0.27 seconds =       0.00 minutes
	system time =       0.07 seconds =       0.00 minutes
	total time  =          0 seconds =       0.00 minutes

*** tstart() called on localhost
*** at Wed Nov 16 00:34:01 2011


	**************************************************
	* TRANSQT2: Program to transform integrals from  *
	*           the SO basis to the MO basis.        *
	*                                                *
	*            Daniel, David, & Justin             *
	**************************************************


	Input parameters:
	-----------------
	Wave function   =	MP2
	Backtransform   =	No
	Print Level     =	1
	Print TEIs      =	No
	Reference wfn   =	RHF
	Derivative      =	None
	Delete TEI File =	Yes
	Memory (Mbytes) =	100.0
	Cache Level     =	2
	Cache Type      =	LRU
	Chkpt Parameters:
	--------------------
	Number of irreps     = 8
	Number of SOs        = 28
	Number of MOs        = 28
	Number of active MOs = 28

	Label	# SOs	# FZDC	# DOCC	# SOCC	# VIRT	# FZVR
	-----	-----	------	------	------	------	------
	 Ag	   7	    0	    1	    0	    6	    0
	 B1g	   1	    0	    0	    0	    1	    0
	 B2g	   3	    0	    0	    0	    3	    0
	 B3g	   3	    0	    0	    0	    3	    0
	 Au	   1	    0	    0	    0	    1	    0
	 B1u	   7	    0	    0	    0	    7	    0
	 B2u	   3	    0	    0	    0	    3	    0
	 B3u	   3	    0	    0	    0	    3	    0

	Nuclear Rep. energy (chkpt) =      0.52721217447122
	SCF energy          (chkpt) =     -1.10138152317536

	Presorting SO-basis two-electron integrals.
	Sorting File: SO Ints (pq,rs) nbuckets = 1
	Frozen-core energy =    0.000000000000000
	Starting first half-transformation.
	Sorting half-transformed integrals.
	Starting second half-transformation.
	Two-electron integral transformation complete.

*** tstop() called on localhost at Wed Nov 16 00:34:02 2011
Module time:
	user time   =       0.02 seconds =       0.00 minutes
	system time =       0.00 seconds =       0.00 minutes
	total time  =          1 seconds =       0.02 minutes
Total time:
	user time   =       0.29 seconds =       0.00 minutes
	system time =       0.07 seconds =       0.00 minutes
	total time  =          1 seconds =       0.02 minutes

*** tstart() called on localhost
*** at Wed Nov 16 00:34:02 2011


			**************************
			*                        *
			*         CCSORT         *
			*                        *
			**************************


	Input parameters:
	-----------------
	Wave function   =	MP2
	Reference wfn   =	RHF
	Derivative      =	None
	Memory (Mbytes) =	256.0
	AO Basis        =	NONE
	Make (ab|cd)    =	False
	Make unpacked (ab|cd) =	False
	Cache Level     =	2
	Cache Type      =	LRU
	Local CC        =     No


	Chkpt Parameters:
	--------------------
	Number of irreps     = 8
	Number of MOs        = 28
	Number of active MOs = 28

	Label	# MOs	# FZDC	# DOCC	# SOCC	# VIRT	# FZVR
	-----	-----	------	------	------	------	------
	 Ag	   7	    0	    1	    0	    6	    0
	 B1g	   1	    0	    0	    0	    1	    0
	 B2g	   3	    0	    0	    0	    3	    0
	 B3g	   3	    0	    0	    0	    3	    0
	 Au	   1	    0	    0	    0	    1	    0
	 B1u	   7	    0	    0	    0	    7	    0
	 B2u	   3	    0	    0	    0	    3	    0
	 B3u	   3	    0	    0	    0	    3	    0

	Nuclear Rep. energy (chkpt) =      0.52721217447122
	SCF energy          (chkpt) =     -1.10138152317536

	Size of irrep 0 of <ab|cd> integrals:      0.015 (MW) /      0.121 (MB)
	Size of irrep 1 of <ab|cd> integrals:      0.004 (MW) /      0.031 (MB)
	Size of irrep 2 of <ab|cd> integrals:      0.008 (MW) /      0.065 (MB)
	Size of irrep 3 of <ab|cd> integrals:      0.008 (MW) /      0.065 (MB)
	Size of irrep 4 of <ab|cd> integrals:      0.004 (MW) /      0.031 (MB)
	Size of irrep 5 of <ab|cd> integrals:      0.015 (MW) /      0.119 (MB)
	Size of irrep 6 of <ab|cd> integrals:      0.008 (MW) /      0.065 (MB)
	Size of irrep 7 of <ab|cd> integrals:      0.008 (MW) /      0.065 (MB)
	Total:                                     0.070 (MW) /      0.561 (MB)

	Size of irrep 0 of <ia|bc> integrals:      0.001 (MW) /      0.006 (MB)
	Size of irrep 1 of <ia|bc> integrals:      0.000 (MW) /      0.000 (MB)
	Size of irrep 2 of <ia|bc> integrals:      0.000 (MW) /      0.002 (MB)
	Size of irrep 3 of <ia|bc> integrals:      0.000 (MW) /      0.002 (MB)
	Size of irrep 4 of <ia|bc> integrals:      0.000 (MW) /      0.000 (MB)
	Size of irrep 5 of <ia|bc> integrals:      0.001 (MW) /      0.007 (MB)
	Size of irrep 6 of <ia|bc> integrals:      0.000 (MW) /      0.002 (MB)
	Size of irrep 7 of <ia|bc> integrals:      0.000 (MW) /      0.002 (MB)
	Total:                                     0.003 (MW) /      0.022 (MB)

	Size of irrep 0 of tijab amplitudes:       0.000 (MW) /      0.001 (MB)
	Size of irrep 1 of tijab amplitudes:       0.000 (MW) /      0.000 (MB)
	Size of irrep 2 of tijab amplitudes:       0.000 (MW) /      0.000 (MB)
	Size of irrep 3 of tijab amplitudes:       0.000 (MW) /      0.000 (MB)
	Size of irrep 4 of tijab amplitudes:       0.000 (MW) /      0.000 (MB)
	Size of irrep 5 of tijab amplitudes:       0.000 (MW) /      0.000 (MB)
	Size of irrep 6 of tijab amplitudes:       0.000 (MW) /      0.000 (MB)
	Size of irrep 7 of tijab amplitudes:       0.000 (MW) /      0.000 (MB)
	Total:                                     0.000 (MW) /      0.001 (MB)


	Sorting File: A <ij|kl> nbuckets = 1
	Sorting File: C <ia|jb> nbuckets = 1
	Sorting File: D <ij|ab> nbuckets = 1
	Sorting File: E <ai|jk> nbuckets = 1
	Sorting File: F <ia|bc> nbuckets = 1
	One-electron energy          =     -2.20625561247377
	Two-electron (AA) energy     =      0.00000000000000
	Two-electron (BB) energy     =      0.00000000000000
	Two-electron (AB) energy     =      0.57766191482720
	Two-electron energy          =      0.57766191482720
	Frozen-core energy (transqt) =      0.00000000000000
	Reference energy             =     -1.10138152317536

*** tstop() called on localhost at Wed Nov 16 00:34:02 2011
Module time:
	user time   =       0.02 seconds =       0.00 minutes
	system time =       0.03 seconds =       0.00 minutes
	total time  =          0 seconds =       0.00 minutes
Total time:
	user time   =       0.31 seconds =       0.01 minutes
	system time =       0.10 seconds =       0.00 minutes
	total time  =          1 seconds =       0.02 minutes

*** tstart() called on localhost
*** at Wed Nov 16 00:34:02 2011

			*************************
			*                       *
			*          MP2          *
			*                       *
			*************************

	Nuclear rep. energy     =    0.527212174471215
	SCF energy              =   -1.101381523175359

	Input parameters:
	-----------------
	Wave function 	=	MP2
	Reference WFN 	=	RHF
	Derivative    	=	NONE
	Cache Level   	=	2
	Cache Type    	=	LRU
	Memory (MB)   	=	256.0
	Print Level   	=	1
	OPDM          	=	NO
	SCS           	=	True
	SCALE_OS      	=	1.200000
	SCALE_SS      	=	0.333333

	Scaled_OS correlation energy      =   -0.039863755807598
	Scaled_SS correlation energy      =    0.000000000000000
	SCS-MP2 correlation energy        =   -0.039863755807598
      * SCS-MP2 total energy              =   -1.141245278982957

	Opposite-spin correlation energy  =   -0.033219796506332
	Same-spin correlation energy      =    0.000000000000000
	MP2 correlation energy            =   -0.033219796506332
      * MP2 total energy                  =   -1.134601319681691


*** tstop() called on localhost at Wed Nov 16 00:34:02 2011
Module time:
	user time   =       0.01 seconds =       0.00 minutes
	system time =       0.02 seconds =       0.00 minutes
	total time  =          0 seconds =       0.00 minutes
Total time:
	user time   =       0.34 seconds =       0.01 minutes
	system time =       0.12 seconds =       0.00 minutes
	total time  =          1 seconds =       0.02 minutes

  //>>>>>>>>>>>>>>>>>>>>>>>>>>>>>>>>>>>//
  //   CBS Computation: CCSD / 3-21G   //
  //<<<<<<<<<<<<<<<<<<<<<<<<<<<<<<<<<<<//


*** tstart() called on localhost
*** at Wed Nov 16 00:34:02 2011

	There are an even number of electrons - assuming singlet.
	Specify the multiplicity with the MULTP option in the
	input if this is incorrect


         ---------------------------------------------------------
                                   SCF
            by Justin Turney, Rob Parrish, and Andy Simmonett
                              RHF Reference
                        1 Threads,    256 MiB Core
         ---------------------------------------------------------

  ==> Geometry <==

    Molecular point group: d2h

    Geometry (in Angstrom), charge = 0, multiplicity = 1:

       Center              X                  Y                   Z       
    ------------   -----------------  -----------------  -----------------
           H          0.000000000000     0.000000000000    -0.501863646767
           H          0.000000000000     0.000000000000     0.501863646767

    Number of unique atoms: 1

    Atoms equivalency:
       unique atom 0: 0 1 

  Running in d2h symmetry.

  Nuclear repulsion =    0.527212174471215

  Charge       = 0
  Multiplicity = 1
  Electrons    = 2
  Nalpha       = 1
  Nbeta        = 1

  ==> Algorithm <==

  SCF Algorithm Type is PK.
  DIIS enabled.
  MOM disabled.
  Guess Type is CORE.
  Energy threshold   = 1.00e-08
  Density threshold  = 1.00e-08
  Integral threshold = 0.00e+00

  ==> Primary Basis: 3-21G <==

  Basis Set
    Number of shells: 4
    Number of basis function: 4
    Number of Cartesian functions: 4
    Spherical Harmonics?: false
    Max angular momentum: 0

  ==> Pre-Iterations <==

  Minimum eigenvalue in the overlap matrix is 1.6541318486E-01.
  Using Symmetric Orthogonalization.
  SCF Guess: Core (One-Electron) Hamiltonian.

  Initial RHF energy:    -0.58272577871383

   -------------------------------------------------------
    Irrep   Nso     Nmo     Nalpha   Nbeta   Ndocc  Nsocc
   -------------------------------------------------------
     Ag         2       2       1       1       1       0
     B1g        0       0       0       0       0       0
     B2g        0       0       0       0       0       0
     B3g        0       0       0       0       0       0
     Au         0       0       0       0       0       0
     B1u        2       2       0       0       0       0
     B2u        0       0       0       0       0       0
     B3u        0       0       0       0       0       0
   -------------------------------------------------------
    Total       4       4       1       1       1       0
   -------------------------------------------------------

  ==> Integral Setup <==

 MINTS: Wrapper to libmints.
   by Justin Turney

   Calculation information:
      Number of atoms:                   2
      Number of AO shells:               4
      Number of SO shells:               2
      Number of primitives:              6
      Number of atomic orbitals:         4
      Number of basis functions:         4

      Number of irreps:                  8
      Number of functions per irrep: [   2    0    0    0    0    2    0    0 ]

      Computing integrals...done

      Computed 31 non-zero integrals.

  ==> Iterations <==

                        Total Energy        Delta E     Density RMS

   @RHF iter   1:    -1.05993450968719   -4.77209e-01   0.00000e+00  
   @RHF iter   2:    -1.08997924440522   -3.00447e-02   4.52023e-02 DIIS
   @RHF iter   3:    -1.09069529803934   -7.16054e-04   8.09415e-03 DIIS
   @RHF iter   4:    -1.09069529875994   -7.20596e-10   5.24734e-06 DIIS
   @RHF iter   5:    -1.09069529884845   -8.85096e-11   1.35789e-06 DIIS
   @RHF iter   6:    -1.09069529887560   -2.71483e-11   6.23525e-07 DIIS
   @RHF iter   7:    -1.09069529888735   -1.17510e-11   3.58070e-07 DIIS
   @RHF iter   8:    -1.09069529889347   -6.12710e-12   2.32373e-07 DIIS
   @RHF iter   9:    -1.09069529889707   -3.59357e-12   1.62976e-07 DIIS
   @RHF iter  10:    -1.09069529889935   -2.28684e-12   1.20626e-07 DIIS
   @RHF iter  11:    -1.09069529890090   -1.54343e-12   9.28829e-08 DIIS
   @RHF iter  12:    -1.09069529890647   -5.57532e-12   7.14672e-07 DIIS

  ==> Post-Iterations <==

	Orbital Energies (a.u.)
	-----------------------

	Doubly Occupied:                                                      

	   1Ag    -0.522069  

	Virtual:                                                              

	   1B1u    0.187038     2Ag     1.069710     2B1u    1.296470  

	Final Occupation by Irrep:
	         Ag   B1g   B2g   B3g    Au   B1u   B2u   B3u 
	DOCC [     1,    0,    0,    0,    0,    0,    0,    0 ]

  Energy converged.

  @RHF Final Energy:    -1.09069529890647

  ==> Properties <==
  Nuclear Dipole Moment: (a.u.)
     X:     0.0000      Y:     0.0000      Z:     0.0000

  Electronic Dipole Moment: (a.u.)
     X:     0.0000      Y:     0.0000      Z:     0.0000

  Dipole Moment: (a.u.)
     X:     0.0000      Y:     0.0000      Z:     0.0000     Total:     0.0000

  Dipole Moment: (Debye)
     X:     0.0000      Y:     0.0000      Z:     0.0000     Total:     0.0000


  Saving occupied orbitals to File 180.

*** tstop() called on localhost at Wed Nov 16 00:34:02 2011
Module time:
	user time   =       0.04 seconds =       0.00 minutes
	system time =       0.01 seconds =       0.00 minutes
	total time  =          0 seconds =       0.00 minutes
Total time:
	user time   =       0.38 seconds =       0.01 minutes
	system time =       0.13 seconds =       0.00 minutes
	total time  =          1 seconds =       0.02 minutes

*** tstart() called on localhost
*** at Wed Nov 16 00:34:02 2011


	**************************************************
	* TRANSQT2: Program to transform integrals from  *
	*           the SO basis to the MO basis.        *
	*                                                *
	*            Daniel, David, & Justin             *
	**************************************************


	Input parameters:
	-----------------
	Wave function   =	CCSD
	Backtransform   =	No
	Print Level     =	1
	Print TEIs      =	No
	Reference wfn   =	RHF
	Derivative      =	None
	Delete TEI File =	Yes
	Memory (Mbytes) =	100.0
	Cache Level     =	2
	Cache Type      =	LRU
	Chkpt Parameters:
	--------------------
	Number of irreps     = 8
	Number of SOs        = 4
	Number of MOs        = 4
	Number of active MOs = 4

	Label	# SOs	# FZDC	# DOCC	# SOCC	# VIRT	# FZVR
	-----	-----	------	------	------	------	------
	 Ag	   2	    0	    1	    0	    1	    0
	 B1g	   0	    0	    0	    0	    0	    0
	 B2g	   0	    0	    0	    0	    0	    0
	 B3g	   0	    0	    0	    0	    0	    0
	 Au	   0	    0	    0	    0	    0	    0
	 B1u	   2	    0	    0	    0	    2	    0
	 B2u	   0	    0	    0	    0	    0	    0
	 B3u	   0	    0	    0	    0	    0	    0

	Nuclear Rep. energy (chkpt) =      0.52721217447122
	SCF energy          (chkpt) =     -1.09069529890647

	Presorting SO-basis two-electron integrals.
	Sorting File: SO Ints (pq,rs) nbuckets = 1
	Frozen-core energy =    0.000000000000000
	Starting first half-transformation.
	Sorting half-transformed integrals.
	Starting second half-transformation.
	Two-electron integral transformation complete.

*** tstop() called on localhost at Wed Nov 16 00:34:02 2011
Module time:
	user time   =       0.01 seconds =       0.00 minutes
	system time =       0.00 seconds =       0.00 minutes
	total time  =          0 seconds =       0.00 minutes
Total time:
	user time   =       0.39 seconds =       0.01 minutes
	system time =       0.13 seconds =       0.00 minutes
	total time  =          1 seconds =       0.02 minutes

*** tstart() called on localhost
*** at Wed Nov 16 00:34:02 2011


			**************************
			*                        *
			*         CCSORT         *
			*                        *
			**************************


	Input parameters:
	-----------------
	Wave function   =	CCSD
	Reference wfn   =	RHF
	Derivative      =	None
	Memory (Mbytes) =	256.0
	AO Basis        =	NONE
	Make (ab|cd)    =	True
	Make unpacked (ab|cd) =	False
	Cache Level     =	2
	Cache Type      =	LRU
	Local CC        =     No


	Chkpt Parameters:
	--------------------
	Number of irreps     = 8
	Number of MOs        = 4
	Number of active MOs = 4

	Label	# MOs	# FZDC	# DOCC	# SOCC	# VIRT	# FZVR
	-----	-----	------	------	------	------	------
	 Ag	   2	    0	    1	    0	    1	    0
	 B1g	   0	    0	    0	    0	    0	    0
	 B2g	   0	    0	    0	    0	    0	    0
	 B3g	   0	    0	    0	    0	    0	    0
	 Au	   0	    0	    0	    0	    0	    0
	 B1u	   2	    0	    0	    0	    2	    0
	 B2u	   0	    0	    0	    0	    0	    0
	 B3u	   0	    0	    0	    0	    0	    0

	Nuclear Rep. energy (chkpt) =      0.52721217447122
	SCF energy          (chkpt) =     -1.09069529890647

	Size of irrep 0 of <ab|cd> integrals:      0.000 (MW) /      0.000 (MB)
	Size of irrep 1 of <ab|cd> integrals:      0.000 (MW) /      0.000 (MB)
	Size of irrep 2 of <ab|cd> integrals:      0.000 (MW) /      0.000 (MB)
	Size of irrep 3 of <ab|cd> integrals:      0.000 (MW) /      0.000 (MB)
	Size of irrep 4 of <ab|cd> integrals:      0.000 (MW) /      0.000 (MB)
	Size of irrep 5 of <ab|cd> integrals:      0.000 (MW) /      0.000 (MB)
	Size of irrep 6 of <ab|cd> integrals:      0.000 (MW) /      0.000 (MB)
	Size of irrep 7 of <ab|cd> integrals:      0.000 (MW) /      0.000 (MB)
	Total:                                     0.000 (MW) /      0.000 (MB)

	Size of irrep 0 of <ia|bc> integrals:      0.000 (MW) /      0.000 (MB)
	Size of irrep 1 of <ia|bc> integrals:      0.000 (MW) /      0.000 (MB)
	Size of irrep 2 of <ia|bc> integrals:      0.000 (MW) /      0.000 (MB)
	Size of irrep 3 of <ia|bc> integrals:      0.000 (MW) /      0.000 (MB)
	Size of irrep 4 of <ia|bc> integrals:      0.000 (MW) /      0.000 (MB)
	Size of irrep 5 of <ia|bc> integrals:      0.000 (MW) /      0.000 (MB)
	Size of irrep 6 of <ia|bc> integrals:      0.000 (MW) /      0.000 (MB)
	Size of irrep 7 of <ia|bc> integrals:      0.000 (MW) /      0.000 (MB)
	Total:                                     0.000 (MW) /      0.000 (MB)

	Size of irrep 0 of tijab amplitudes:       0.000 (MW) /      0.000 (MB)
	Size of irrep 1 of tijab amplitudes:       0.000 (MW) /      0.000 (MB)
	Size of irrep 2 of tijab amplitudes:       0.000 (MW) /      0.000 (MB)
	Size of irrep 3 of tijab amplitudes:       0.000 (MW) /      0.000 (MB)
	Size of irrep 4 of tijab amplitudes:       0.000 (MW) /      0.000 (MB)
	Size of irrep 5 of tijab amplitudes:       0.000 (MW) /      0.000 (MB)
	Size of irrep 6 of tijab amplitudes:       0.000 (MW) /      0.000 (MB)
	Size of irrep 7 of tijab amplitudes:       0.000 (MW) /      0.000 (MB)
	Total:                                     0.000 (MW) /      0.000 (MB)


	Sorting File: A <ij|kl> nbuckets = 1
	Sorting File: B(+) <ab|cd> nbuckets = 1
	Sorting File: C <ia|jb> nbuckets = 1
	Sorting File: D <ij|ab> nbuckets = 1
	Sorting File: E <ai|jk> nbuckets = 1
	Sorting File: F <ia|bc> nbuckets = 1
	One-electron energy          =     -2.19167749514927
	Two-electron (AA) energy     =      0.00000000000000
	Two-electron (BB) energy     =      0.00000000000000
	Two-electron (AB) energy     =      0.57377002177158
	Two-electron energy          =      0.57377002177158
	Frozen-core energy (transqt) =      0.00000000000000
	Reference energy             =     -1.09069529890647

*** tstop() called on localhost at Wed Nov 16 00:34:02 2011
Module time:
	user time   =       0.02 seconds =       0.00 minutes
	system time =       0.03 seconds =       0.00 minutes
	total time  =          0 seconds =       0.00 minutes
Total time:
	user time   =       0.41 seconds =       0.01 minutes
	system time =       0.16 seconds =       0.00 minutes
	total time  =          1 seconds =       0.02 minutes

*** tstart() called on localhost
*** at Wed Nov 16 00:34:02 2011

			**************************
			*                        *
			*        CCENERGY        *
			*                        *
			**************************

	Nuclear Rep. energy (chkpt)   =    0.527212174471215
	SCF energy          (chkpt)   =   -1.090695298906473
	Reference energy    (file100) =   -1.090695298906473

	Input parameters:
	-----------------
	Wave function   =     CCSD
	Reference wfn   =     RHF
	Memory (Mbytes) =     256.0
	Maxiter         =     50
	Convergence     =     1.0e-11
	Restart         =     No
	DIIS            =     Yes
	AO Basis        =     NONE
	ABCD            =     NEW
	Cache Level     =     2
	Cache Type      =     LOW
	Print Level     =     1
	Num. of threads =     1
	# Amps to Print =     10
	Print MP2 Amps? =     No
	Analyze T2 Amps =     No
	Print Pair Ener =     No
	Local CC        =     No
	SCS-MP2         =     False
	SCSN-MP2        =     False
	SCS-CCSD        =     False

	            Solving CC Amplitude Equations
	            ------------------------------
  Iter             Energy              RMS        T1Diag      D1Diag    New D1Diag
  ----     ---------------------    ---------   ----------  ----------  ----------
     0        -0.020226580177803    0.000e+00    0.000000    0.000000    0.000000
     1        -0.027118661299703    4.094e-02    0.004641    0.006564    0.006564
     2        -0.031988261930771    1.816e-02    0.008794    0.012437    0.012437
     3        -0.031986566211681    8.600e-04    0.008810    0.012460    0.012460
     4        -0.031998975665227    8.208e-05    0.008791    0.012432    0.012432
     5        -0.031995641860714    1.108e-05    0.008787    0.012427    0.012427
     6        -0.031995315252084    1.651e-06    0.008787    0.012426    0.012426
     7        -0.031996635900639    2.970e-06    0.008788    0.012428    0.012428
     8        -0.031996035455369    2.384e-06    0.008787    0.012427    0.012427
     9        -0.031996047867887    5.032e-08    0.008787    0.012427    0.012427
    10        -0.031996047867914    2.029e-13    0.008787    0.012427    0.012427

	Iterations converged.


	Largest TIA Amplitudes:
	          0   0         0.0124272440

	Largest TIjAb Amplitudes:
	  0   0   1   1        -0.1464056091
	  0   0   1   2        -0.0534982796
	  0   0   2   1        -0.0534982796
	  0   0   2   2        -0.0336212488
	  0   0   0   0        -0.0329111587

	SCF energy       (chkpt)              =   -1.090695298906473
	Reference energy (file100)            =   -1.090695298906473

	Opposite-spin MP2 correlation energy  =   -0.020226580177803
	Same-spin MP2 correlation energy      =    0.000000000000000
	MP2 correlation energy                =   -0.020226580177803
      * MP2 total energy                      =   -1.110921879084276

	Opposite-spin CCSD correlation energy =   -0.031996047867907
	Same-spin CCSD correlation energy     =    0.000000000000000
	CCSD correlation energy               =   -0.031996047867914
      * CCSD total energy                     =   -1.122691346774387


*** tstop() called on localhost at Wed Nov 16 00:34:03 2011
Module time:
	user time   =       0.17 seconds =       0.00 minutes
	system time =       0.16 seconds =       0.00 minutes
	total time  =          1 seconds =       0.02 minutes
Total time:
	user time   =       0.59 seconds =       0.01 minutes
	system time =       0.32 seconds =       0.01 minutes
	total time  =          2 seconds =       0.03 minutes

  //>>>>>>>>>>>>>>>>>>>>>>>>>>>>>>>>>>>//
  //            CBS Results            //
  //<<<<<<<<<<<<<<<<<<<<<<<<<<<<<<<<<<<//


   ==> highest_1 <==

   HI-zeta (3) Total Energy:             -1.10138152

   ==> corl_xtpl_helgaker_2 <==

   LO-zeta (2) Correlation Energy:       -0.02874156
   HI-zeta (3) Correlation Energy:       -0.03321980
   Extrapolated Correlation Energy:      -0.03510537
   Beta Value:                            0.05091049

   ==> highest_1 <==

   HI-zeta (0) Correlation Energy:       -0.03199605

   ==> highest_1 <==

   HI-zeta (0) Correlation Energy:       -0.02022658

   ==> Components <==

  ---------------------------------------------------------------------------------------------------------
                          Method / Basis                      Rqd       Energy [H]   Variable
  ---------------------------------------------------------------------------------------------------------
                             scf / cc-pvdz                             -1.09948224   SCF TOTAL ENERGY
                             mp2 / cc-pvdz                      *      -0.02874156   MP2 CORRELATION ENERGY
                             scf / cc-pvtz                      *      -1.10138152   SCF TOTAL ENERGY
                             mp2 / cc-pvtz                      *      -0.03321980   MP2 CORRELATION ENERGY
                             scf / 3-21g                               -1.09069530   SCF TOTAL ENERGY
                             mp2 / 3-21g                        *      -0.02022658   MP2 CORRELATION ENERGY
                            ccsd / 3-21g                        *      -0.03199605   CCSD CORRELATION ENERGY
  ---------------------------------------------------------------------------------------------------------

   ==> Stages <==

  ---------------------------------------------------------------------------------------------------------
      Stage               Method / Basis                       Wt       Energy [H]   Scheme
  ---------------------------------------------------------------------------------------------------------
        scf                  scf / cc-pvtz                      1      -1.10138152   highest_1
       corl                  mp2 / cc-pv[dt]z                   1      -0.03510537   corl_xtpl_helgaker_2
      delta                 ccsd / 3-21g                        1      -0.03199605   highest_1
      delta                  mp2 / 3-21g                       -1      -0.02022658   highest_1
  ---------------------------------------------------------------------------------------------------------

   ==> CBS <==

  ---------------------------------------------------------------------------------------------------------
      Stage               Method / Basis                                Energy [H]   Scheme
  ---------------------------------------------------------------------------------------------------------
        scf                  scf / cc-pvtz                             -1.10138152   highest_1
       corl                  mp2 / cc-pv[dt]z                          -0.03510537   corl_xtpl_helgaker_2
      delta           ccsd - mp2 / 3-21g                               -0.01176947   highest_1
      total                  CBS                                       -1.14825636   
  ---------------------------------------------------------------------------------------------------------

  //>>>>>>>>>>>>>>>>>>>>>>>>>>>>>>>>>>>//
  //    Loading displacement 2 of 3    //
  //<<<<<<<<<<<<<<<<<<<<<<<<<<<<<<<<<<<//

  //>>>>>>>>>>>>>>>>>>>>>>>>>>>>>>>>>>>//
  //             CBS Setup             //
  //<<<<<<<<<<<<<<<<<<<<<<<<<<<<<<<<<<<//

    Naive listing of computations required.
            scf / cc-pvtz                  for  SCF TOTAL ENERGY
            mp2 / cc-pvdz                  for  MP2 CORRELATION ENERGY
            mp2 / cc-pvtz                  for  MP2 CORRELATION ENERGY
           ccsd / 3-21g                    for  CCSD CORRELATION ENERGY
            mp2 / 3-21g                    for  MP2 CORRELATION ENERGY

    Enlightened listing of computations required.
            mp2 / cc-pvdz                  for  MP2 CORRELATION ENERGY
            mp2 / cc-pvtz                  for  MP2 CORRELATION ENERGY
           ccsd / 3-21g                    for  CCSD CORRELATION ENERGY

  //>>>>>>>>>>>>>>>>>>>>>>>>>>>>>>>>>>>//
  //   CBS Computation: MP2 / CC-PVDZ  //
  //<<<<<<<<<<<<<<<<<<<<<<<<<<<<<<<<<<<//


*** tstart() called on localhost
*** at Wed Nov 16 00:34:03 2011

	There are an even number of electrons - assuming singlet.
	Specify the multiplicity with the MULTP option in the
	input if this is incorrect


         ---------------------------------------------------------
                                   SCF
            by Justin Turney, Rob Parrish, and Andy Simmonett
                              RHF Reference
                        1 Threads,    256 MiB Core
         ---------------------------------------------------------

  ==> Geometry <==

    Molecular point group: d2h

    Geometry (in Angstrom), charge = 0, multiplicity = 1:

       Center              X                  Y                   Z       
    ------------   -----------------  -----------------  -----------------
           H          0.000000000000     0.000000000000    -0.498136353233
           H          0.000000000000     0.000000000000     0.498136353233

    Number of unique atoms: 1

    Atoms equivalency:
       unique atom 0: 0 1 

  Running in d2h symmetry.

  Nuclear repulsion =    0.531157027152676

  Charge       = 0
  Multiplicity = 1
  Electrons    = 2
  Nalpha       = 1
  Nbeta        = 1

  ==> Algorithm <==

  SCF Algorithm Type is PK.
  DIIS enabled.
  MOM disabled.
  Guess Type is CORE.
  Energy threshold   = 1.00e-08
  Density threshold  = 1.00e-08
  Integral threshold = 0.00e+00

  ==> Primary Basis: CC-PVDZ <==

  Basis Set
    Number of shells: 6
    Number of basis function: 10
    Number of Cartesian functions: 10
    Spherical Harmonics?: true
    Max angular momentum: 1

  ==> Pre-Iterations <==

  Minimum eigenvalue in the overlap matrix is 1.1183846938E-01.
  Using Symmetric Orthogonalization.
  SCF Guess: Core (One-Electron) Hamiltonian.

  Initial RHF energy:    -0.59967951536876

   -------------------------------------------------------
    Irrep   Nso     Nmo     Nalpha   Nbeta   Ndocc  Nsocc
   -------------------------------------------------------
     Ag         3       3       1       1       1       0
     B1g        0       0       0       0       0       0
     B2g        1       1       0       0       0       0
     B3g        1       1       0       0       0       0
     Au         0       0       0       0       0       0
     B1u        3       3       0       0       0       0
     B2u        1       1       0       0       0       0
     B3u        1       1       0       0       0       0
   -------------------------------------------------------
    Total      10      10       1       1       1       0
   -------------------------------------------------------

  ==> Integral Setup <==

 MINTS: Wrapper to libmints.
   by Justin Turney

   Calculation information:
      Number of atoms:                   2
      Number of AO shells:               6
      Number of SO shells:               3
      Number of primitives:             10
      Number of atomic orbitals:        10
      Number of basis functions:        10

      Number of irreps:                  8
      Number of functions per irrep: [   3    0    1    1    0    3    1    1 ]

      Computing integrals...done

      Computed 292 non-zero integrals.

  ==> Iterations <==

                        Total Energy        Delta E     Density RMS

   @RHF iter   1:    -1.05089819933754   -4.51219e-01   0.00000e+00  
   @RHF iter   2:    -1.09922923922116   -4.83310e-02   4.03202e-02 DIIS
   @RHF iter   3:    -1.10081973881114   -1.59050e-03   8.48935e-03 DIIS
   @RHF iter   4:    -1.10082162152772   -1.88272e-06   2.27338e-04 DIIS
   @RHF iter   5:    -1.10082163120679   -9.67906e-09   2.21781e-05 DIIS
   @RHF iter   6:    -1.10082163120680   -1.26565e-14   1.56164e-08 DIIS

  ==> Post-Iterations <==

	Orbital Energies (a.u.)
	-----------------------

	Doubly Occupied:                                                      

	   1Ag    -0.525872  

	Virtual:                                                              

	   1B1u    0.144397     2Ag     0.538778     2B1u    0.796328  
	   1B3u    1.286858     1B2u    1.286858     3Ag     1.683278  
	   1B2g    1.873897     1B3g    1.873897     3B1u    2.741956  

	Final Occupation by Irrep:
	         Ag   B1g   B2g   B3g    Au   B1u   B2u   B3u 
	DOCC [     1,    0,    0,    0,    0,    0,    0,    0 ]

  Energy converged.

  @RHF Final Energy:    -1.10082163120680

  ==> Properties <==
  Nuclear Dipole Moment: (a.u.)
     X:     0.0000      Y:     0.0000      Z:     0.0000

  Electronic Dipole Moment: (a.u.)
     X:     0.0000      Y:     0.0000      Z:     0.0000

  Dipole Moment: (a.u.)
     X:     0.0000      Y:     0.0000      Z:     0.0000     Total:     0.0000

  Dipole Moment: (Debye)
     X:     0.0000      Y:     0.0000      Z:     0.0000     Total:     0.0000


  Saving occupied orbitals to File 180.

*** tstop() called on localhost at Wed Nov 16 00:34:03 2011
Module time:
	user time   =       0.07 seconds =       0.00 minutes
	system time =       0.01 seconds =       0.00 minutes
	total time  =          0 seconds =       0.00 minutes
Total time:
	user time   =       0.66 seconds =       0.01 minutes
	system time =       0.33 seconds =       0.01 minutes
	total time  =          2 seconds =       0.03 minutes

*** tstart() called on localhost
*** at Wed Nov 16 00:34:03 2011


	**************************************************
	* TRANSQT2: Program to transform integrals from  *
	*           the SO basis to the MO basis.        *
	*                                                *
	*            Daniel, David, & Justin             *
	**************************************************


	Input parameters:
	-----------------
	Wave function   =	MP2
	Backtransform   =	No
	Print Level     =	1
	Print TEIs      =	No
	Reference wfn   =	RHF
	Derivative      =	None
	Delete TEI File =	Yes
	Memory (Mbytes) =	100.0
	Cache Level     =	2
	Cache Type      =	LRU
	Chkpt Parameters:
	--------------------
	Number of irreps     = 8
	Number of SOs        = 10
	Number of MOs        = 10
	Number of active MOs = 10

	Label	# SOs	# FZDC	# DOCC	# SOCC	# VIRT	# FZVR
	-----	-----	------	------	------	------	------
	 Ag	   3	    0	    1	    0	    2	    0
	 B1g	   0	    0	    0	    0	    0	    0
	 B2g	   1	    0	    0	    0	    1	    0
	 B3g	   1	    0	    0	    0	    1	    0
	 Au	   0	    0	    0	    0	    0	    0
	 B1u	   3	    0	    0	    0	    3	    0
	 B2u	   1	    0	    0	    0	    1	    0
	 B3u	   1	    0	    0	    0	    1	    0

	Nuclear Rep. energy (chkpt) =      0.53115702715268
	SCF energy          (chkpt) =     -1.10082163120680

	Presorting SO-basis two-electron integrals.
	Sorting File: SO Ints (pq,rs) nbuckets = 1
	Frozen-core energy =    0.000000000000000
	Starting first half-transformation.
	Sorting half-transformed integrals.
	Starting second half-transformation.
	Two-electron integral transformation complete.

*** tstop() called on localhost at Wed Nov 16 00:34:03 2011
Module time:
	user time   =       0.01 seconds =       0.00 minutes
	system time =       0.01 seconds =       0.00 minutes
	total time  =          0 seconds =       0.00 minutes
Total time:
	user time   =       0.67 seconds =       0.01 minutes
	system time =       0.34 seconds =       0.01 minutes
	total time  =          2 seconds =       0.03 minutes

*** tstart() called on localhost
*** at Wed Nov 16 00:34:03 2011


			**************************
			*                        *
			*         CCSORT         *
			*                        *
			**************************


	Input parameters:
	-----------------
	Wave function   =	MP2
	Reference wfn   =	RHF
	Derivative      =	None
	Memory (Mbytes) =	256.0
	AO Basis        =	NONE
	Make (ab|cd)    =	False
	Make unpacked (ab|cd) =	False
	Cache Level     =	2
	Cache Type      =	LRU
	Local CC        =     No


	Chkpt Parameters:
	--------------------
	Number of irreps     = 8
	Number of MOs        = 10
	Number of active MOs = 10

	Label	# MOs	# FZDC	# DOCC	# SOCC	# VIRT	# FZVR
	-----	-----	------	------	------	------	------
	 Ag	   3	    0	    1	    0	    2	    0
	 B1g	   0	    0	    0	    0	    0	    0
	 B2g	   1	    0	    0	    0	    1	    0
	 B3g	   1	    0	    0	    0	    1	    0
	 Au	   0	    0	    0	    0	    0	    0
	 B1u	   3	    0	    0	    0	    3	    0
	 B2u	   1	    0	    0	    0	    1	    0
	 B3u	   1	    0	    0	    0	    1	    0

	Nuclear Rep. energy (chkpt) =      0.53115702715268
	SCF energy          (chkpt) =     -1.10082163120680

	Size of irrep 0 of <ab|cd> integrals:      0.000 (MW) /      0.002 (MB)
	Size of irrep 1 of <ab|cd> integrals:      0.000 (MW) /      0.000 (MB)
	Size of irrep 2 of <ab|cd> integrals:      0.000 (MW) /      0.001 (MB)
	Size of irrep 3 of <ab|cd> integrals:      0.000 (MW) /      0.001 (MB)
	Size of irrep 4 of <ab|cd> integrals:      0.000 (MW) /      0.000 (MB)
	Size of irrep 5 of <ab|cd> integrals:      0.000 (MW) /      0.002 (MB)
	Size of irrep 6 of <ab|cd> integrals:      0.000 (MW) /      0.001 (MB)
	Size of irrep 7 of <ab|cd> integrals:      0.000 (MW) /      0.001 (MB)
	Total:                                     0.001 (MW) /      0.008 (MB)

	Size of irrep 0 of <ia|bc> integrals:      0.000 (MW) /      0.000 (MB)
	Size of irrep 1 of <ia|bc> integrals:      0.000 (MW) /      0.000 (MB)
	Size of irrep 2 of <ia|bc> integrals:      0.000 (MW) /      0.000 (MB)
	Size of irrep 3 of <ia|bc> integrals:      0.000 (MW) /      0.000 (MB)
	Size of irrep 4 of <ia|bc> integrals:      0.000 (MW) /      0.000 (MB)
	Size of irrep 5 of <ia|bc> integrals:      0.000 (MW) /      0.000 (MB)
	Size of irrep 6 of <ia|bc> integrals:      0.000 (MW) /      0.000 (MB)
	Size of irrep 7 of <ia|bc> integrals:      0.000 (MW) /      0.000 (MB)
	Total:                                     0.000 (MW) /      0.001 (MB)

	Size of irrep 0 of tijab amplitudes:       0.000 (MW) /      0.000 (MB)
	Size of irrep 1 of tijab amplitudes:       0.000 (MW) /      0.000 (MB)
	Size of irrep 2 of tijab amplitudes:       0.000 (MW) /      0.000 (MB)
	Size of irrep 3 of tijab amplitudes:       0.000 (MW) /      0.000 (MB)
	Size of irrep 4 of tijab amplitudes:       0.000 (MW) /      0.000 (MB)
	Size of irrep 5 of tijab amplitudes:       0.000 (MW) /      0.000 (MB)
	Size of irrep 6 of tijab amplitudes:       0.000 (MW) /      0.000 (MB)
	Size of irrep 7 of tijab amplitudes:       0.000 (MW) /      0.000 (MB)
	Total:                                     0.000 (MW) /      0.000 (MB)


	Sorting File: A <ij|kl> nbuckets = 1
	Sorting File: C <ia|jb> nbuckets = 1
	Sorting File: D <ij|ab> nbuckets = 1
	Sorting File: E <ai|jk> nbuckets = 1
	Sorting File: F <ia|bc> nbuckets = 1
	One-electron energy          =     -2.21221420311005
	Two-electron (AA) energy     =      0.00000000000000
	Two-electron (BB) energy     =      0.00000000000000
	Two-electron (AB) energy     =      0.58023554475058
	Two-electron energy          =      0.58023554475058
	Frozen-core energy (transqt) =      0.00000000000000
	Reference energy             =     -1.10082163120680

*** tstop() called on localhost at Wed Nov 16 00:34:05 2011
Module time:
	user time   =       0.03 seconds =       0.00 minutes
	system time =       0.04 seconds =       0.00 minutes
	total time  =          2 seconds =       0.03 minutes
Total time:
	user time   =       0.70 seconds =       0.01 minutes
	system time =       0.38 seconds =       0.01 minutes
	total time  =          4 seconds =       0.07 minutes

*** tstart() called on localhost
*** at Wed Nov 16 00:34:05 2011

			*************************
			*                       *
			*          MP2          *
			*                       *
			*************************

	Nuclear rep. energy     =    0.531157027152676
	SCF energy              =   -1.100821631206798

	Input parameters:
	-----------------
	Wave function 	=	MP2
	Reference WFN 	=	RHF
	Derivative    	=	NONE
	Cache Level   	=	2
	Cache Type    	=	LRU
	Memory (MB)   	=	256.0
	Print Level   	=	1
	OPDM          	=	NO
	SCS           	=	True
	SCALE_OS      	=	1.200000
	SCALE_SS      	=	0.333333

	Scaled_OS correlation energy      =   -0.034404483520881
	Scaled_SS correlation energy      =    0.000000000000000
	SCS-MP2 correlation energy        =   -0.034404483520881
      * SCS-MP2 total energy              =   -1.135226114727680

	Opposite-spin correlation energy  =   -0.028670402934068
	Same-spin correlation energy      =    0.000000000000000
	MP2 correlation energy            =   -0.028670402934068
      * MP2 total energy                  =   -1.129492034140866


*** tstop() called on localhost at Wed Nov 16 00:34:05 2011
Module time:
	user time   =       0.01 seconds =       0.00 minutes
	system time =       0.02 seconds =       0.00 minutes
	total time  =          0 seconds =       0.00 minutes
Total time:
	user time   =       0.72 seconds =       0.01 minutes
	system time =       0.40 seconds =       0.01 minutes
	total time  =          4 seconds =       0.07 minutes

  //>>>>>>>>>>>>>>>>>>>>>>>>>>>>>>>>>>>//
  //   CBS Computation: MP2 / CC-PVTZ  //
  //<<<<<<<<<<<<<<<<<<<<<<<<<<<<<<<<<<<//


*** tstart() called on localhost
*** at Wed Nov 16 00:34:05 2011

	There are an even number of electrons - assuming singlet.
	Specify the multiplicity with the MULTP option in the
	input if this is incorrect


         ---------------------------------------------------------
                                   SCF
            by Justin Turney, Rob Parrish, and Andy Simmonett
                              RHF Reference
                        1 Threads,    256 MiB Core
         ---------------------------------------------------------

  ==> Geometry <==

    Molecular point group: d2h

    Geometry (in Angstrom), charge = 0, multiplicity = 1:

       Center              X                  Y                   Z       
    ------------   -----------------  -----------------  -----------------
           H          0.000000000000     0.000000000000    -0.498136353233
           H          0.000000000000     0.000000000000     0.498136353233

    Number of unique atoms: 1

    Atoms equivalency:
       unique atom 0: 0 1 

  Running in d2h symmetry.

  Nuclear repulsion =    0.531157027152676

  Charge       = 0
  Multiplicity = 1
  Electrons    = 2
  Nalpha       = 1
  Nbeta        = 1

  ==> Algorithm <==

  SCF Algorithm Type is PK.
  DIIS enabled.
  MOM disabled.
  Guess Type is CORE.
  Energy threshold   = 1.00e-08
  Density threshold  = 1.00e-08
  Integral threshold = 0.00e+00

  ==> Primary Basis: CC-PVTZ <==

  Basis Set
    Number of shells: 12
    Number of basis function: 28
    Number of Cartesian functions: 30
    Spherical Harmonics?: true
    Max angular momentum: 2

  ==> Pre-Iterations <==

  Minimum eigenvalue in the overlap matrix is 6.8042476954E-03.
  Using Symmetric Orthogonalization.
  SCF Guess: Core (One-Electron) Hamiltonian.

  Initial RHF energy:    -0.60148569293295

   -------------------------------------------------------
    Irrep   Nso     Nmo     Nalpha   Nbeta   Ndocc  Nsocc
   -------------------------------------------------------
     Ag         7       7       1       1       1       0
     B1g        1       1       0       0       0       0
     B2g        3       3       0       0       0       0
     B3g        3       3       0       0       0       0
     Au         1       1       0       0       0       0
     B1u        7       7       0       0       0       0
     B2u        3       3       0       0       0       0
     B3u        3       3       0       0       0       0
   -------------------------------------------------------
    Total      28      28       1       1       1       0
   -------------------------------------------------------

  ==> Integral Setup <==

 MINTS: Wrapper to libmints.
   by Justin Turney

   Calculation information:
      Number of atoms:                   2
      Number of AO shells:              12
      Number of SO shells:               6
      Number of primitives:             16
      Number of atomic orbitals:        30
      Number of basis functions:        28

      Number of irreps:                  8
      Number of functions per irrep: [   7    1    3    3    1    7    3    3 ]

      Computing integrals...done

      Computed 10381 non-zero integrals.

  ==> Iterations <==

                        Total Energy        Delta E     Density RMS

   @RHF iter   1:    -1.05330333132962   -4.51818e-01   0.00000e+00  
   @RHF iter   2:    -1.10085760782941   -4.75543e-02   1.11415e-02 DIIS
   @RHF iter   3:    -1.10272115234656   -1.86354e-03   3.09111e-03 DIIS
   @RHF iter   4:    -1.10273980292801   -1.86506e-05   4.41664e-04 DIIS
   @RHF iter   5:    -1.10273985035984   -4.74318e-08   2.27318e-05 DIIS
   @RHF iter   6:    -1.10273985072895   -3.69113e-10   1.03512e-06 DIIS
   @RHF iter   7:    -1.10273985072915   -1.95843e-13   2.47627e-08 DIIS

  ==> Post-Iterations <==

	Orbital Energies (a.u.)
	-----------------------

	Doubly Occupied:                                                      

	   1Ag    -0.527133  

	Virtual:                                                              

	   1B1u    0.125202     2Ag     0.327959     2B1u    0.547702  
	   1B2u    0.671814     1B3u    0.671814     3Ag     1.009118  
	   1B2g    1.063860     1B3g    1.063860     3B1u    1.475911  
	   4Ag     2.519618     4B1u    2.591907     1B1g    3.205473  
	   5Ag     3.205473     2B2u    3.228982     2B3u    3.228982  
	   6Ag     3.462123     5B1u    3.826156     1Au     3.826156  
	   3B2u    3.944159     3B3u    3.944159     2B2g    4.002780  
	   2B3g    4.002780     6B1u    4.095869     3B2g    4.919621  
	   3B3g    4.919621     7Ag     4.985142     7B1u    6.232587  

	Final Occupation by Irrep:
	         Ag   B1g   B2g   B3g    Au   B1u   B2u   B3u 
	DOCC [     1,    0,    0,    0,    0,    0,    0,    0 ]

  Energy converged.

  @RHF Final Energy:    -1.10273985072915

  ==> Properties <==
  Nuclear Dipole Moment: (a.u.)
     X:     0.0000      Y:     0.0000      Z:     0.0000

  Electronic Dipole Moment: (a.u.)
     X:     0.0000      Y:     0.0000      Z:     0.0000

  Dipole Moment: (a.u.)
     X:     0.0000      Y:     0.0000      Z:     0.0000     Total:     0.0000

  Dipole Moment: (Debye)
     X:     0.0000      Y:     0.0000      Z:     0.0000     Total:     0.0000


  Saving occupied orbitals to File 180.

*** tstop() called on localhost at Wed Nov 16 00:34:06 2011
Module time:
	user time   =       0.16 seconds =       0.00 minutes
	system time =       0.01 seconds =       0.00 minutes
	total time  =          1 seconds =       0.02 minutes
Total time:
	user time   =       0.88 seconds =       0.01 minutes
	system time =       0.41 seconds =       0.01 minutes
	total time  =          5 seconds =       0.08 minutes

*** tstart() called on localhost
*** at Wed Nov 16 00:34:06 2011


	**************************************************
	* TRANSQT2: Program to transform integrals from  *
	*           the SO basis to the MO basis.        *
	*                                                *
	*            Daniel, David, & Justin             *
	**************************************************


	Input parameters:
	-----------------
	Wave function   =	MP2
	Backtransform   =	No
	Print Level     =	1
	Print TEIs      =	No
	Reference wfn   =	RHF
	Derivative      =	None
	Delete TEI File =	Yes
	Memory (Mbytes) =	100.0
	Cache Level     =	2
	Cache Type      =	LRU
	Chkpt Parameters:
	--------------------
	Number of irreps     = 8
	Number of SOs        = 28
	Number of MOs        = 28
	Number of active MOs = 28

	Label	# SOs	# FZDC	# DOCC	# SOCC	# VIRT	# FZVR
	-----	-----	------	------	------	------	------
	 Ag	   7	    0	    1	    0	    6	    0
	 B1g	   1	    0	    0	    0	    1	    0
	 B2g	   3	    0	    0	    0	    3	    0
	 B3g	   3	    0	    0	    0	    3	    0
	 Au	   1	    0	    0	    0	    1	    0
	 B1u	   7	    0	    0	    0	    7	    0
	 B2u	   3	    0	    0	    0	    3	    0
	 B3u	   3	    0	    0	    0	    3	    0

	Nuclear Rep. energy (chkpt) =      0.53115702715268
	SCF energy          (chkpt) =     -1.10273985072915

	Presorting SO-basis two-electron integrals.
	Sorting File: SO Ints (pq,rs) nbuckets = 1
	Frozen-core energy =    0.000000000000000
	Starting first half-transformation.
	Sorting half-transformed integrals.
	Starting second half-transformation.
	Two-electron integral transformation complete.

*** tstop() called on localhost at Wed Nov 16 00:34:06 2011
Module time:
	user time   =       0.02 seconds =       0.00 minutes
	system time =       0.01 seconds =       0.00 minutes
	total time  =          0 seconds =       0.00 minutes
Total time:
	user time   =       0.90 seconds =       0.01 minutes
	system time =       0.42 seconds =       0.01 minutes
	total time  =          5 seconds =       0.08 minutes

*** tstart() called on localhost
*** at Wed Nov 16 00:34:06 2011


			**************************
			*                        *
			*         CCSORT         *
			*                        *
			**************************


	Input parameters:
	-----------------
	Wave function   =	MP2
	Reference wfn   =	RHF
	Derivative      =	None
	Memory (Mbytes) =	256.0
	AO Basis        =	NONE
	Make (ab|cd)    =	False
	Make unpacked (ab|cd) =	False
	Cache Level     =	2
	Cache Type      =	LRU
	Local CC        =     No


	Chkpt Parameters:
	--------------------
	Number of irreps     = 8
	Number of MOs        = 28
	Number of active MOs = 28

	Label	# MOs	# FZDC	# DOCC	# SOCC	# VIRT	# FZVR
	-----	-----	------	------	------	------	------
	 Ag	   7	    0	    1	    0	    6	    0
	 B1g	   1	    0	    0	    0	    1	    0
	 B2g	   3	    0	    0	    0	    3	    0
	 B3g	   3	    0	    0	    0	    3	    0
	 Au	   1	    0	    0	    0	    1	    0
	 B1u	   7	    0	    0	    0	    7	    0
	 B2u	   3	    0	    0	    0	    3	    0
	 B3u	   3	    0	    0	    0	    3	    0

	Nuclear Rep. energy (chkpt) =      0.53115702715268
	SCF energy          (chkpt) =     -1.10273985072915

	Size of irrep 0 of <ab|cd> integrals:      0.015 (MW) /      0.121 (MB)
	Size of irrep 1 of <ab|cd> integrals:      0.004 (MW) /      0.031 (MB)
	Size of irrep 2 of <ab|cd> integrals:      0.008 (MW) /      0.065 (MB)
	Size of irrep 3 of <ab|cd> integrals:      0.008 (MW) /      0.065 (MB)
	Size of irrep 4 of <ab|cd> integrals:      0.004 (MW) /      0.031 (MB)
	Size of irrep 5 of <ab|cd> integrals:      0.015 (MW) /      0.119 (MB)
	Size of irrep 6 of <ab|cd> integrals:      0.008 (MW) /      0.065 (MB)
	Size of irrep 7 of <ab|cd> integrals:      0.008 (MW) /      0.065 (MB)
	Total:                                     0.070 (MW) /      0.561 (MB)

	Size of irrep 0 of <ia|bc> integrals:      0.001 (MW) /      0.006 (MB)
	Size of irrep 1 of <ia|bc> integrals:      0.000 (MW) /      0.000 (MB)
	Size of irrep 2 of <ia|bc> integrals:      0.000 (MW) /      0.002 (MB)
	Size of irrep 3 of <ia|bc> integrals:      0.000 (MW) /      0.002 (MB)
	Size of irrep 4 of <ia|bc> integrals:      0.000 (MW) /      0.000 (MB)
	Size of irrep 5 of <ia|bc> integrals:      0.001 (MW) /      0.007 (MB)
	Size of irrep 6 of <ia|bc> integrals:      0.000 (MW) /      0.002 (MB)
	Size of irrep 7 of <ia|bc> integrals:      0.000 (MW) /      0.002 (MB)
	Total:                                     0.003 (MW) /      0.022 (MB)

	Size of irrep 0 of tijab amplitudes:       0.000 (MW) /      0.001 (MB)
	Size of irrep 1 of tijab amplitudes:       0.000 (MW) /      0.000 (MB)
	Size of irrep 2 of tijab amplitudes:       0.000 (MW) /      0.000 (MB)
	Size of irrep 3 of tijab amplitudes:       0.000 (MW) /      0.000 (MB)
	Size of irrep 4 of tijab amplitudes:       0.000 (MW) /      0.000 (MB)
	Size of irrep 5 of tijab amplitudes:       0.000 (MW) /      0.000 (MB)
	Size of irrep 6 of tijab amplitudes:       0.000 (MW) /      0.000 (MB)
	Size of irrep 7 of tijab amplitudes:       0.000 (MW) /      0.000 (MB)
	Total:                                     0.000 (MW) /      0.001 (MB)


	Sorting File: A <ij|kl> nbuckets = 1
	Sorting File: C <ia|jb> nbuckets = 1
	Sorting File: D <ij|ab> nbuckets = 1
	Sorting File: E <ai|jk> nbuckets = 1
	Sorting File: F <ia|bc> nbuckets = 1
	One-electron energy          =     -2.21352699623374
	Two-electron (AA) energy     =      0.00000000000000
	Two-electron (BB) energy     =      0.00000000000000
	Two-electron (AB) energy     =      0.57963011835192
	Two-electron energy          =      0.57963011835192
	Frozen-core energy (transqt) =      0.00000000000000
	Reference energy             =     -1.10273985072915

*** tstop() called on localhost at Wed Nov 16 00:34:06 2011
Module time:
	user time   =       0.02 seconds =       0.00 minutes
	system time =       0.03 seconds =       0.00 minutes
	total time  =          0 seconds =       0.00 minutes
Total time:
	user time   =       0.92 seconds =       0.02 minutes
	system time =       0.45 seconds =       0.01 minutes
	total time  =          5 seconds =       0.08 minutes

*** tstart() called on localhost
*** at Wed Nov 16 00:34:06 2011

			*************************
			*                       *
			*          MP2          *
			*                       *
			*************************

	Nuclear rep. energy     =    0.531157027152676
	SCF energy              =   -1.102739850729148

	Input parameters:
	-----------------
	Wave function 	=	MP2
	Reference WFN 	=	RHF
	Derivative    	=	NONE
	Cache Level   	=	2
	Cache Type    	=	LRU
	Memory (MB)   	=	256.0
	Print Level   	=	1
	OPDM          	=	NO
	SCS           	=	True
	SCALE_OS      	=	1.200000
	SCALE_SS      	=	0.333333

	Scaled_OS correlation energy      =   -0.039791903763109
	Scaled_SS correlation energy      =    0.000000000000000
	SCS-MP2 correlation energy        =   -0.039791903763109
      * SCS-MP2 total energy              =   -1.142531754492257

	Opposite-spin correlation energy  =   -0.033159919802591
	Same-spin correlation energy      =    0.000000000000000
	MP2 correlation energy            =   -0.033159919802591
      * MP2 total energy                  =   -1.135899770531739


*** tstop() called on localhost at Wed Nov 16 00:34:06 2011
Module time:
	user time   =       0.01 seconds =       0.00 minutes
	system time =       0.02 seconds =       0.00 minutes
	total time  =          0 seconds =       0.00 minutes
Total time:
	user time   =       0.95 seconds =       0.02 minutes
	system time =       0.47 seconds =       0.01 minutes
	total time  =          5 seconds =       0.08 minutes

  //>>>>>>>>>>>>>>>>>>>>>>>>>>>>>>>>>>>//
  //   CBS Computation: CCSD / 3-21G   //
  //<<<<<<<<<<<<<<<<<<<<<<<<<<<<<<<<<<<//


*** tstart() called on localhost
*** at Wed Nov 16 00:34:06 2011

	There are an even number of electrons - assuming singlet.
	Specify the multiplicity with the MULTP option in the
	input if this is incorrect


         ---------------------------------------------------------
                                   SCF
            by Justin Turney, Rob Parrish, and Andy Simmonett
                              RHF Reference
                        1 Threads,    256 MiB Core
         ---------------------------------------------------------

  ==> Geometry <==

    Molecular point group: d2h

    Geometry (in Angstrom), charge = 0, multiplicity = 1:

       Center              X                  Y                   Z       
    ------------   -----------------  -----------------  -----------------
           H          0.000000000000     0.000000000000    -0.498136353233
           H          0.000000000000     0.000000000000     0.498136353233

    Number of unique atoms: 1

    Atoms equivalency:
       unique atom 0: 0 1 

  Running in d2h symmetry.

  Nuclear repulsion =    0.531157027152676

  Charge       = 0
  Multiplicity = 1
  Electrons    = 2
  Nalpha       = 1
  Nbeta        = 1

  ==> Algorithm <==

  SCF Algorithm Type is PK.
  DIIS enabled.
  MOM disabled.
  Guess Type is CORE.
  Energy threshold   = 1.00e-08
  Density threshold  = 1.00e-08
  Integral threshold = 0.00e+00

  ==> Primary Basis: 3-21G <==

  Basis Set
    Number of shells: 4
    Number of basis function: 4
    Number of Cartesian functions: 4
    Spherical Harmonics?: false
    Max angular momentum: 0

  ==> Pre-Iterations <==

  Minimum eigenvalue in the overlap matrix is 1.6391184551E-01.
  Using Symmetric Orthogonalization.
[...]
	Number of active MOs = 15

	Label	# SOs	# FZDC	# DOCC	# SOCC	# VIRT	# FZVR
	-----	-----	------	------	------	------	------
	 A'	   11	    0	    4	    0	    7	    0
	 A"	   4	    0	    1	    0	    3	    0

	Nuclear Rep. energy (chkpt) =     11.85609246229187
	SCF energy          (chkpt) =    -55.87154933570937

	Presorting SO-basis two-electron integrals.
	Sorting File: SO Ints (pq,rs) nbuckets = 1
	Frozen-core energy =    0.000000000000000
	Starting first half-transformation.
	Sorting half-transformed integrals.
	Starting second half-transformation.
	Two-electron integral transformation complete.

*** tstop() called on localhost at Wed Nov 16 00:38:05 2011
Module time:
	user time   =       0.00 seconds =       0.00 minutes
	system time =       0.00 seconds =       0.00 minutes
	total time  =          0 seconds =       0.00 minutes
Total time:
	user time   =      45.12 seconds =       0.75 minutes
	system time =      16.45 seconds =       0.27 minutes
	total time  =        244 seconds =       4.07 minutes

*** tstart() called on localhost
*** at Wed Nov 16 00:38:05 2011


			**************************
			*                        *
			*         CCSORT         *
			*                        *
			**************************


	Input parameters:
	-----------------
	Wave function   =	MP2
	Reference wfn   =	RHF
	Derivative      =	First
	Memory (Mbytes) =	256.0
	AO Basis        =	NONE
	Make (ab|cd)    =	False
	Make unpacked (ab|cd) =	False
	Cache Level     =	2
	Cache Type      =	LRU
	Local CC        =     No


	Chkpt Parameters:
	--------------------
	Number of irreps     = 2
	Number of MOs        = 15
	Number of active MOs = 15

	Label	# MOs	# FZDC	# DOCC	# SOCC	# VIRT	# FZVR
	-----	-----	------	------	------	------	------
	 A'	   11	    0	    4	    0	    7	    0
	 A"	   4	    0	    1	    0	    3	    0

	Nuclear Rep. energy (chkpt) =     11.85609246229187
	SCF energy          (chkpt) =    -55.87154933570937

	Size of irrep 0 of <ab|cd> integrals:      0.003 (MW) /      0.027 (MB)
	Size of irrep 1 of <ab|cd> integrals:      0.002 (MW) /      0.014 (MB)
	Total:                                     0.005 (MW) /      0.041 (MB)

	Size of irrep 0 of <ia|bc> integrals:      0.002 (MW) /      0.014 (MB)
	Size of irrep 1 of <ia|bc> integrals:      0.001 (MW) /      0.006 (MB)
	Total:                                     0.003 (MW) /      0.021 (MB)

	Size of irrep 0 of tijab amplitudes:       0.001 (MW) /      0.008 (MB)
	Size of irrep 1 of tijab amplitudes:       0.000 (MW) /      0.003 (MB)
	Total:                                     0.001 (MW) /      0.011 (MB)


	Sorting File: A <ij|kl> nbuckets = 1
	Sorting File: C <ia|jb> nbuckets = 1
	Sorting File: D <ij|ab> nbuckets = 1
	Sorting File: E <ai|jk> nbuckets = 1
	Sorting File: F <ia|bc> nbuckets = 1
	Sorting File: F <ai|bc> nbuckets = 1
	One-electron energy          =    -99.10037176354126
	Two-electron (AA) energy     =     11.85591140554043
	Two-electron (BB) energy     =     11.85591140554043
	Two-electron (AB) energy     =     19.51681855999961
	Two-electron energy          =     31.37272996554004
	Frozen-core energy (transqt) =      0.00000000000000
	Reference energy             =    -55.87154933570935

*** tstop() called on localhost at Wed Nov 16 00:38:06 2011
Module time:
	user time   =       0.03 seconds =       0.00 minutes
	system time =       0.04 seconds =       0.00 minutes
	total time  =          1 seconds =       0.02 minutes
Total time:
	user time   =      45.15 seconds =       0.75 minutes
	system time =      16.49 seconds =       0.27 minutes
	total time  =        245 seconds =       4.08 minutes

*** tstart() called on localhost
*** at Wed Nov 16 00:38:06 2011

			*************************
			*                       *
			*          MP2          *
			*                       *
			*************************

	Nuclear rep. energy     =   11.856092462291869
	SCF energy              =  -55.871549335709375

	Input parameters:
	-----------------
	Wave function 	=	MP2
	Reference WFN 	=	RHF
	Derivative    	=	FIRST
	Cache Level   	=	2
	Cache Type    	=	LRU
	Memory (MB)   	=	256.0
	Print Level   	=	1
	OPDM          	=	NO
	SCS           	=	True
	SCALE_OS      	=	1.200000
	SCALE_SS      	=	0.333333

Warning: SCS-MP2 computation requested but
derivative will be evaluated for standard MP2 energy.

	Scaled_OS correlation energy      =   -0.108653502625993
	Scaled_SS correlation energy      =   -0.007619580204834
	SCS-MP2 correlation energy        =   -0.116273082830827
      * SCS-MP2 total energy              =  -55.987822418540198

	Opposite-spin correlation energy  =   -0.090544585521661
	Same-spin correlation energy      =   -0.022858740614502
	MP2 correlation energy            =   -0.113403326136162
      * MP2 total energy                  =  -55.984952661845540

	Trace of OPDM(2)        =    0.000000000000000

	Energies re-computed from Fock-adjusted CC density:
	---------------------------------------------------
	One-electron energy        =    0.036123425715695
	IJKL energy                =   -0.355775949468501
	IJKA energy                =    0.023600720490210
	IJAB energy                =   -0.226806652272325
	IBJA energy                =    0.409455129524857
	MP2 correlation energy    =   -0.113403326010064
	Total MP2 energy          =  -55.984952661719440

	Energies re-computed from Mulliken density:
	-------------------------------------------
	One-electron energy        =    0.036123425715695
	IJKL energy                =   -0.355775949468500
	IJKA energy                =    0.023600720490210
	IJAB energy                =   -0.245650323960370
	IBJA energy                =    0.428298801212902
	Total two-electron energy  =   -0.149526751725758
	MP2 correlation energy    =   -0.113403326010064
	Total MP2 energy          =  -55.984952661719440

*** tstop() called on localhost at Wed Nov 16 00:38:06 2011
Module time:
	user time   =       0.03 seconds =       0.00 minutes
	system time =       0.02 seconds =       0.00 minutes
	total time  =          0 seconds =       0.00 minutes
Total time:
	user time   =      45.19 seconds =       0.75 minutes
	system time =      16.51 seconds =       0.28 minutes
	total time  =        245 seconds =       4.08 minutes

*** tstart() called on localhost
*** at Wed Nov 16 00:38:06 2011

 DERIV: Derivative code.
   by Justin Turney

    Molecular point group: cs

    Geometry (in Bohr), charge = 0, multiplicity = 1:

       Center              X                  Y                   Z       
    ------------   -----------------  -----------------  -----------------
           N          0.101431605188     0.040412326591     0.000000000000
           H         -0.131852099943    -1.034467037881    -1.580295912470
           H         -1.145622050881     1.507431054955     0.000000000000
           H         -0.131852099943    -1.034467037881     1.580295912470

	Presorting MO-basis TPDM.
	Sorting File: MO TPDM (AA|AA) nbuckets = 1
	Starting first half-transformation.
	Sorting half-transformed TPDM.
	First half integral transformation complete.
    SALC #0 TPDM contribution:         -2.051361
    SALC #1 TPDM contribution:         -0.817104
    SALC #2 TPDM contribution:         +0.447533
    SALC #3 TPDM contribution:         +1.687631
    SALC #4 TPDM contribution:         +2.430008
    SALC #5 TPDM contribution:         +1.418453
    SALC #6 TPDM contribution:         -1.569567

    SALC #0 One-electron contribution: +4.000921
    SALC #1 One-electron contribution: +1.593916
    SALC #2 One-electron contribution: -0.793791
    SALC #3 One-electron contribution: -3.490006
    SALC #4 One-electron contribution: -5.108793
    SALC #5 One-electron contribution: -2.878331
    SALC #6 One-electron contribution: +3.341698

    SALC #0 Lagrangian contribution:   +0.269040
    SALC #1 Lagrangian contribution:   +0.107195
    SALC #2 Lagrangian contribution:   -0.068126
    SALC #3 Lagrangian contribution:   -0.197715
    SALC #4 Lagrangian contribution:   -0.274598
    SALC #5 Lagrangian contribution:   -0.172695
    SALC #6 Lagrangian contribution:   +0.172415


  -Nuclear Repulsion Energy 1st Derivatives:
     Atom            X                  Y                   Z
    ------   -----------------  -----------------  -----------------
       1       -1.680491959314    -0.669669036456     0.000000000000
       2        0.196660606311     1.134697253102     1.700002339921
       3        1.287170746692    -1.599725469747     0.000000000000
       4        0.196660606311     1.134697253102    -1.700002339921


  -One-electron contribution to gradient:
     Atom            X                  Y                   Z
    ------   -----------------  -----------------  -----------------
       1        4.000921169279     1.593915522722     0.000000000000
       2       -0.561294917349    -2.467806628142    -3.612462348153
       3       -2.878331334582     3.341697733562     0.000000000000
       4       -0.561294917349    -2.467806628142     3.612462348153


  -Lagrangian contribution to gradient:
     Atom            X                  Y                   Z
    ------   -----------------  -----------------  -----------------
       1       -0.269039587719    -0.107195364318     0.000000000000
       2        0.048172495573     0.139805360838     0.194170113621
       3        0.172694596573    -0.172415357358     0.000000000000
       4        0.048172495573     0.139805360838    -0.194170113621


  -Two-electron contribution to gradient:
     Atom            X                  Y                   Z
    ------   -----------------  -----------------  -----------------
       1       -2.051360548990    -0.817103779519     0.000000000000
       2        0.316453739784     1.193335614502     1.718275169491
       3        1.418453069422    -1.569567449484     0.000000000000
       4        0.316453739784     1.193335614502    -1.718275169491


  -Total gradient:
     Atom            X                  Y                   Z
    ------   -----------------  -----------------  -----------------
       1        0.000029073256    -0.000052657571     0.000000000000
       2       -0.000008075681     0.000031600299    -0.000014725120
       3       -0.000012921895    -0.000010543027     0.000000000000
       4       -0.000008075681     0.000031600299     0.000014725120


*** tstop() called on localhost at Wed Nov 16 00:38:06 2011
Module time:
	user time   =       0.11 seconds =       0.00 minutes
	system time =       0.01 seconds =       0.00 minutes
	total time  =          0 seconds =       0.00 minutes
Total time:
	user time   =      45.30 seconds =       0.76 minutes
	system time =      16.52 seconds =       0.28 minutes
	total time  =        245 seconds =       4.08 minutes

			----------------------------------
			 OPTKING: for geometry optimizations  
			  - R.A. King,  Bethel University   
			------------------------------------

	Previous internal coordinate definitions found.
	---Fragment 1 Geometry and Gradient---
	 N           0.1014316052        0.0404123266        0.0000000000
	 H          -0.1318520999       -1.0344670379       -1.5802959125
	 H          -1.1456220509        1.5074310550        0.0000000000
	 H          -0.1318520999       -1.0344670379        1.5802959125
	             0.0000290733       -0.0000526576        0.0000000000
	            -0.0000080757        0.0000316003       -0.0000147251
	            -0.0000129219       -0.0000105430        0.0000000000
	            -0.0000080757        0.0000316003        0.0000147251

	---Fragment 1 Intrafragment Coordinates---
	 * Coordinate *           * BOHR/RAD *       * ANG/DEG *
	 R(1,2)           =         1.925389	       1.018872
	 R(1,3)           =         1.925432	       1.018895
	 R(1,4)           =         1.925389	       1.018872
	 B(2,1,3)         =         1.925038	     110.296531
	 B(2,1,4)         =         1.925505	     110.323327
	 B(3,1,4)         =         1.925038	     110.296531

	Current energy   :       -55.9849526618

	Energy change for the previous step:
		Projected    :        -0.0000005729
		Actual       :        -0.0000006013

	Performing BFGS update with previous 4 gradient(s).
	Following RFO solution 0.
	Projected energy change by RFO approximation:        -0.0000000083

	Back-transformation to cartesian coordinates...
	Successfully converged to displaced geometry.

	---Internal Coordinate Step in ANG or DEG, aJ/ANG or AJ/DEG ---
	 ----------------------------------------------------------------------
	 Coordinate             Previous        Force       Change         New 
	 ----------             --------       ------       ------       ------
	 R(1,2)          =      1.018872     0.000038     0.000003     1.018875
	 R(1,3)          =      1.018895    -0.000003    -0.000006     1.018888
	 R(1,4)          =      1.018872     0.000038     0.000003     1.018875
	 B(2,1,3)        =    110.296531     0.000003     0.009674   110.306205
	 B(2,1,4)        =    110.323327    -0.000003    -0.006951   110.316376
	 B(3,1,4)        =    110.296531     0.000003     0.009674   110.306205
	 ----------------------------------------------------------------------

	Convergence Check Cycle    5: (using internal coordinates in au)
	                    Actual        Tolerance     Converged?
	----------------------------------------------------------
	MAX Force           4.5e-05        3.0e-04         yes
	Energy Change      -6.0e-07        1.0e-06         yes
	MAX Displacement    1.7e-04        1.2e-03         yes
	----------------------------------------------------------

	 **** Optimization is complete! ****

	            ****  Optimization Summary  ****
	----------------------------------------------------------------------------
	 Step         Energy             Delta(E)      MAX force    MAX Delta(q)  
	----------------------------------------------------------------------------
	   1    -55.983782996469    -55.983782996469    1.17e-02     1.17e-02
	   2    -55.984688616145     -0.000905619676    5.35e-03     5.35e-03
	   3    -55.984855979435     -0.000167363291    2.43e-03     2.43e-03
	   4    -55.984952060565     -0.000096081130    3.26e-04     3.26e-04
	   5    -55.984952661846     -0.000000601280    4.47e-05     4.47e-05
	----------------------------------------------------------------------

	Writing optimization data to binary file.
	Final energy is    -55.9849526618455
	Final (previous) structure:
	Cartesian Geometry (au)
	    N     0.1014316052   0.0404123266   0.0000000000
	    H    -0.1318520999  -1.0344670379  -1.5802959125
	    H    -1.1456220509   1.5074310550   0.0000000000
	    H    -0.1318520999  -1.0344670379   1.5802959125
	Saving final (previous) structure.
			--------------------------
			 OPTKING Finished Execution 
			--------------------------


  Variable Map:
  ----------------------------------------------------------------------------
  "(T) CORRECTION ENERGY"                     =>      -0.000000000000
  "(T) ENERGY"                                =>      -0.000000000000
  "CBS TOTAL ENERGY"                          =>      -1.174446301062
  "CCSD CORRELATION ENERGY"                   =>      -0.024944671430
  "CCSD OPPOSITE-SPIN CORRELATION ENERGY"     =>      -0.024944671429
  "CCSD SAME-SPIN CORRELATION ENERGY"         =>       0.000000000000
  "CCSD TOTAL ENERGY"                         =>      -1.147850573391
  "CCSD(T) CORRELATION ENERGY"                =>      -0.024944671430
  "CCSD(T) TOTAL ENERGY"                      =>      -1.147850573391
  "CURRENT ENERGY"                            =>     -55.984952661846
  "LCCSD (+LMP2) TOTAL ENERGY"                =>      -1.147850573391
  "MP2 CORRELATION ENERGY"                    =>      -0.113403326136
  "MP2 OPPOSITE-SPIN CORRELATION ENERGY"      =>      -0.090544585522
  "MP2 SAME-SPIN CORRELATION ENERGY"          =>      -0.022858740615
  "MP2 TOTAL ENERGY"                          =>     -55.984952661846
  "NATOM"                                     =>       4.000000000000
  "RGC10 DATABASE MEAN ABSOLUTE DEVIATION"    =>       0.032398522655
  "RGC10 DATABASE MEAN SIGNED DEVIATION"      =>       0.032398522655
  "RGC10 DATABASE ROOT-MEAN-SQUARE DEVIATION" =>       0.034877478903
  "SCF DIPOLE X"                              =>      -1.796634832107
  "SCF DIPOLE Y"                              =>      -0.716263871518
  "SCF DIPOLE Z"                              =>       0.000000000000
  "SCF TOTAL ENERGY"                          =>     -55.871549335709
  "SCS-MP2 CORRELATION ENERGY"                =>      -0.116273082831
  "SCS-MP2 OPPOSITE-SPIN CORRELATION ENERGY"  =>      -0.108653502626
  "SCS-MP2 SAME-SPIN CORRELATION ENERGY"      =>      -0.007619580205
  "SCS-MP2 TOTAL ENERGY"                      =>     -55.987822418540


   Database Contributions Map:
   ---------------------------------------------------------------------------
   reagent S22-1-monoB-unCP contributes by -1.0000 to reaction S22-1


  //>>>>>>>>>>>>>>>>>>>>>>>>>>>>>>>>>>>//
  //        Database S22 Results       //
  //<<<<<<<<<<<<<<<<<<<<<<<<<<<<<<<<<<<//

   For each VARIABLE requested by tabulate, a 'Reaction Value' will be formed from
   'Reagent' values according to weightings 'Wt', as for the REQUESTED ENERGY below.
   Depending on the nature of the variable, this may or may not make any physical sense.

   ==> Mp2 Total Energy <==

   ------------------------------------------------------------------------------------------------------------------
               Reaction          Reaction Value                  Reagent 1           Reagent 2           Reagent 3
                                                                  Value Wt            Value Wt            Value Wt
   ------------------------------------------------------------------------------------------------------------------
                  S22-1             -0.01238070           -111.98228602  1     -55.98495266 -1     -55.98495266 -1
   ------------------------------------------------------------------------------------------------------------------

   ==> Current Energy <==

   ------------------------------------------------------------------------------------------------------------------
               Reaction          Reaction Value                  Reagent 1           Reagent 2           Reagent 3
                                                                  Value Wt            Value Wt            Value Wt
   ------------------------------------------------------------------------------------------------------------------
                  S22-1             -0.01238070           -111.98228602  1     -55.98495266 -1     -55.98495266 -1
   ------------------------------------------------------------------------------------------------------------------

   ==> Requested Energy <==

   ------------------------------------------------------------------------------------------------------------------
               Reaction     Reaction Energy      Error           Reagent 1           Reagent 2           Reagent 3
                               Ref     Calc [kcal/mol]              [H] Wt              [H] Wt              [H] Wt
   ------------------------------------------------------------------------------------------------------------------
                  S22-1    -3.1330  -7.7690    -4.6360    -111.98228602  1     -55.98495266 -1     -55.98495266 -1
   ------------------------------------------------------------------------------------------------------------------
            Minimal Dev                        -4.6360
            Maximal Dev                        -4.6360
        Mean Signed Dev                        -4.6360
      Mean Absolute Dev                         4.6360
                RMS Dev                         4.6360
   ------------------------------------------------------------------------------------------------------------------

*** PSI4 exiting successfully. Buy a developer a beer!
