    -----------------------------------------------------------------------
          Psi4: An Open-Source Ab Initio Electronic Structure Package
                              Psi4 0.5 Driver

                          Git: Rev {master} dbe9080

    J. M. Turney, A. C. Simmonett, R. M. Parrish, E. G. Hohenstein,
    F. A. Evangelista, J. T. Fermann, B. J. Mintz, L. A. Burns, J. J. Wilke,
    M. L. Abrams, N. J. Russ, M. L. Leininger, C. L. Janssen, E. T. Seidl,
    W. D. Allen, H. F. Schaefer, R. A. King, E. F. Valeev, C. D. Sherrill,
    and T. D. Crawford, WIREs Comput. Mol. Sci. 2, 556-565 (2012)
    (doi: 10.1002/wcms.93)

                         Additional Contributions by
    A. E. DePrince, M. Saitow, U. Bozkaya, A. Yu. Sokolov
    -----------------------------------------------------------------------


    Psi4 started on: Mon Mar 14 15:31:21 2016

    Process ID:  13587
    PSI4DATADIR: /home/dsmith/Gits/dgas_psi/share
    Memory level set to 256.000 MB

  ==> Input File <==

--------------------------------------------------------------------------
#! MP3 cc-pVDZ gradient for the NO radical

ref_vals = [                                                       #TEST
             [ 0.000000000000,  0.000000000000, -0.147430133149],  #TEST
             [ 0.000000000000,  0.000000000000,  0.147430133149]   #TEST
           ]                                                       #TEST
ref = psi4.Matrix(2, 3)                                          #TEST
ref.set(ref_vals)

memory 250 mb

molecule no {
0 2
n
o 1 1.158
}

set {
  basis cc-pvdz
  reference uhf
  guess gwh
}

grad = gradient('mp3')

compare_matrices(ref, grad, 5, "Analytic gradients")  #TEST

--------------------------------------------------------------------------

  Memory set to 250.000 MiB by Python script.
gradient() will perform analytic gradient computation.

*** tstart() called on ds1.sherrill.chemistry.gatech.edu
*** at Mon Mar 14 15:31:22 2016


         ---------------------------------------------------------
                                   SCF
            by Justin Turney, Rob Parrish, and Andy Simmonett
                              UHF Reference
                        1 Threads,    250 MiB Core
         ---------------------------------------------------------

  ==> Geometry <==

    Molecular point group: c2v
    Full point group: C_inf_v

    Geometry (in Angstrom), charge = 0, multiplicity = 2:

       Center              X                  Y                   Z               Mass       
    ------------   -----------------  -----------------  -----------------  -----------------
           N          0.000000000000     0.000000000000    -0.617445101450    14.003074004780
           O          0.000000000000     0.000000000000     0.540554898550    15.994914619560

  Running in c2v symmetry.

  Rotational constants: A = ************  B =      1.68371  C =      1.68371 [cm^-1]
  Rotational constants: A = ************  B =  50476.22913  C =  50476.22913 [MHz]
  Nuclear repulsion =   25.590607669291888

  Charge       = 0
  Multiplicity = 2
  Electrons    = 15
  Nalpha       = 8
  Nbeta        = 7

  ==> Algorithm <==

  SCF Algorithm Type is PK.
  DIIS enabled.
  MOM disabled.
  Fractional occupation disabled.
  Guess Type is GWH.
  Energy threshold   = 1.00e-10
  Density threshold  = 1.00e-10
  Integral threshold = 0.00e+00

  ==> Primary Basis <==

  Basis Set: CC-PVDZ
    Number of shells: 12
    Number of basis function: 28
    Number of Cartesian functions: 30
    Spherical Harmonics?: true
    Max angular momentum: 2

  ==> Pre-Iterations <==

   -------------------------------------------------------
    Irrep   Nso     Nmo     Nalpha   Nbeta   Ndocc  Nsocc
   -------------------------------------------------------
     A1        14      14       0       0       0       0
     A2         2       2       0       0       0       0
     B1         6       6       0       0       0       0
     B2         6       6       0       0       0       0
   -------------------------------------------------------
    Total      28      28       8       7       7       1
   -------------------------------------------------------

  ==> Integral Setup <==

	Batch   1 pq = [       0,     150] index = [             0,11325]
  ==> DiskJK: Disk-Based J/K Matrices <==

    J tasked:                  Yes
    K tasked:                  Yes
    wK tasked:                  No
    Memory (MB):               178
    Schwarz Cutoff:          1E-12

  Minimum eigenvalue in the overlap matrix is 1.4652171585E-02.
  Using Symmetric Orthogonalization.
  SCF Guess: Generalized Wolfsberg-Helmholtz.

  ==> Iterations <==

                        Total Energy        Delta E     RMS |[F,P]|

   @UHF iter   1:  -128.32791740958126   -1.28328e+02   1.49520e-01 
   @UHF iter   2:  -128.82485579451003   -4.96938e-01   6.66388e-02 DIIS
   @UHF iter   3:  -129.16102237052343   -3.36167e-01   3.14831e-02 DIIS
   @UHF iter   4:  -129.25852230067420   -9.74999e-02   1.24509e-03 DIIS
   @UHF iter   5:  -129.25884141262770   -3.19112e-04   4.49610e-04 DIIS
   @UHF iter   6:  -129.25890547098629   -6.40584e-05   2.32732e-04 DIIS
   @UHF iter   7:  -129.25894147789222   -3.60069e-05   1.80126e-04 DIIS
   @UHF iter   8:  -129.25897090061278   -2.94227e-05   1.74253e-04 DIIS
   @UHF iter   9:  -129.25903169567835   -6.07951e-05   1.62784e-04 DIIS
   @UHF iter  10:  -129.25917324892663   -1.41553e-04   1.37986e-04 DIIS
   @UHF iter  11:  -129.25933664025089   -1.63391e-04   1.01832e-04 DIIS
   @UHF iter  12:  -129.25940573607585   -6.90958e-05   4.80316e-05 DIIS
   @UHF iter  13:  -129.25940522542777    5.10648e-07   2.81985e-05 DIIS
   @UHF iter  14:  -129.25940686388446   -1.63846e-06   1.06308e-05 DIIS
   @UHF iter  15:  -129.25940696426355   -1.00379e-07   2.12644e-06 DIIS
   @UHF iter  16:  -129.25940696815229   -3.88874e-09   9.97830e-08 DIIS
   @UHF iter  17:  -129.25940696814939    2.89901e-12   9.43536e-08 DIIS
   @UHF iter  18:  -129.25940696815911   -9.72022e-12   1.52077e-08 DIIS
   @UHF iter  19:  -129.25940696815937   -2.55795e-13   8.03237e-09 DIIS
   @UHF iter  20:  -129.25940696815940   -2.84217e-14   9.31274e-10 DIIS
   @UHF iter  21:  -129.25940696815940    0.00000e+00   4.97251e-10 DIIS
   @UHF iter  22:  -129.25940696815937    2.84217e-14   2.32570e-11 DIIS

  ==> Post-Iterations <==

   @Spin Contamination Metric:   6.678281452E-02
   @S^2 Expected:                7.500000000E-01
   @S^2 Observed:                8.167828145E-01
   @S   Expected:                5.000000000E-01
   @S   Observed:                5.000000000E-01

    Orbital Energies (a.u.)
    -----------------------

    Alpha Occupied:                                                       

       1A1   -20.696237     2A1   -15.734941     3A1    -1.606056  
       4A1    -0.966145     1B2    -0.780126     5A1    -0.690661  
       1B1    -0.634310     2B2    -0.421983  

    Alpha Virtual:                                                        

       2B1     0.096478     6A1     0.506760     3B2     0.864536  
       3B1     0.909531     7A1     0.953911     8A1     0.998675  
       9A1     1.118926     4B2     1.170522     4B1     1.231989  
       1A2     1.896838    10A1     1.897013     5B2     1.936783  
       5B1     1.966382    11A1     1.984427    12A1     2.811868  
       2A2     2.915669    13A1     2.916251     6B2     3.484302  
       6B1     3.501833    14A1     3.872453  

    Beta Occupied:                                                        

       1A1   -20.691201     2A1   -15.698587     3A1    -1.573605  
       4A1    -0.883194     1B1    -0.657875     5A1    -0.644695  
       1B2    -0.606674  

    Beta Virtual:                                                         

       2B1     0.126688     2B2     0.172937     6A1     0.530189  
       3B1     0.957586     7A1     0.974194     3B2     0.990453  
       8A1     1.037743     9A1     1.127704     4B1     1.199063  
       4B2     1.234738     5B1     1.980420    10A1     1.988792  
       1A2     1.989796    11A1     1.992118     5B2     2.016683  
      12A1     2.844456     2A2     2.931210    13A1     2.931355  
       6B1     3.491646     6B2     3.530662    14A1     3.881342  

    Final Occupation by Irrep:
             A1    A2    B1    B2 
    DOCC [     5,    0,    1,    1 ]
    SOCC [     0,    0,    0,    1 ]

  Energy converged.

  @UHF Final Energy:  -129.25940696815937

   => Energetics <=

    Nuclear Repulsion Energy =             25.5906076692918880
    One-Electron Energy =                -227.4137399910330828
    Two-Electron Energy =                  72.5637253535818161
    DFT Exchange-Correlation Energy =       0.0000000000000000
    Empirical Dispersion Energy =           0.0000000000000000
    PCM Polarization Energy =               0.0000000000000000
    EFP Energy =                            0.0000000000000000
    Total Energy =                       -129.2594069681593680

    Alert: EFP and PCM quantities not currently incorporated into SCF psivars.

Properties will be evaluated at   0.000000,   0.000000,   0.000000 Bohr
  ==> Properties <==


Properties computed using the SCF density matrix

  Nuclear Dipole Moment: (a.u.)
     X:     0.0000      Y:     0.0000      Z:     0.0044

  Electronic Dipole Moment: (a.u.)
     X:     0.0000      Y:     0.0000      Z:    -0.1285

  Dipole Moment: (a.u.)
     X:     0.0000      Y:     0.0000      Z:    -0.1241     Total:     0.1241

  Dipole Moment: (Debye)
     X:     0.0000      Y:     0.0000      Z:    -0.3155     Total:     0.3155


  Saving occupied orbitals to File 180.

  UHF NO Occupations:
  HONO-2 :    1 B2 1.9973776
  HONO-1 :    1 B1 1.9710144
  HONO-0 :    2 B2 1.0000000
  LUNO+0 :    2 B1 0.0289856
  LUNO+1 :    3 B2 0.0026224
  LUNO+2 :    6 A1 0.0018903
  LUNO+3 :    7 A1 0.0001981


*** tstop() called on ds1.sherrill.chemistry.gatech.edu at Mon Mar 14 15:31:22 2016
Module time:
	user time   =       0.07 seconds =       0.00 minutes
	system time =       0.00 seconds =       0.00 minutes
	total time  =          0 seconds =       0.00 minutes
Total time:
	user time   =       0.07 seconds =       0.00 minutes
	system time =       0.00 seconds =       0.00 minutes
	total time  =          0 seconds =       0.00 minutes

*** tstart() called on ds1.sherrill.chemistry.gatech.edu
*** at Mon Mar 14 15:31:22 2016



  Options:
  ----------------------------------------------------------------------------
  ACTIVE                      => [  ]             
  BENCH                       => 0                
  CACHELEVEL                  => 2                
  CCL_ENERGY                  => FALSE            
  CC_DIIS_MAX_VECS            => 6                
  CC_DIIS_MIN_VECS            => 2                
  CC_MAXITER                  => 50               
  CC_TYPE                     => CONV             
  CEPA_OS_SCALE               => 1.27             
  CEPA_SOS_SCALE              => 1.3              
  CEPA_SS_SCALE               => 1.13             
  CEPA_TYPE                   => CEPA0            
  CI_TYPE                     => CONV             
  CUBEPROP_BASIS_FUNCTIONS    => [  ]             
  CUBEPROP_FILEPATH           => .                
  CUBEPROP_ORBITALS           => [  ]             
  CUBEPROP_TASKS              => [  ]             
  CUBIC_BASIS_TOLERANCE       => 1e-12            
  CUBIC_BLOCK_MAX_POINTS      => 1000             
  CUBIC_GRID_OVERAGE          => [  ]             
  CUBIC_GRID_SPACING          => [  ]             
  CUTOFF                      => 14               
  DEBUG                       => 0                
  DERTYPE                     => FIRST           !
  DF_BASIS_CC                 => (empty)          
  DIE_IF_NOT_CONVERGED        => TRUE             
  DKH_ORDER                   => 2                
  DOCC                        => [  ]             
  DO_DIIS                     => TRUE             
  DO_LEVEL_SHIFT              => TRUE             
  DO_SCS                      => FALSE           !
  DO_SOS                      => FALSE           !
  E3_SCALE                    => 0.25             
  EA_POLES                    => FALSE            
  EKT_EA                      => FALSE            
  EKT_IP                      => FALSE            
  EP_EA_POLES                 => FALSE            
  EP_IP_POLES                 => FALSE            
  EP_MAXITER                  => 30               
  EXTERNAL_POTENTIAL_SYMMETRY => FALSE            
  E_CONVERGENCE               => 1e-08           !
  FREEZE_CORE                 => FALSE            
  FROZEN_DOCC                 => [  ]             
  FROZEN_UOCC                 => [  ]             
  INTEGRAL_PACKAGE            => ERD              
  IP_POLES                    => FALSE            
  LEVEL_SHIFT                 => 0.02             
  LINEQ_SOLVER                => CDGESV           
  LITERAL_CFOUR               => (empty)          
  MAT_NUM_COLUMN_PRINT        => 5                
  MAX_MOGRAD_CONVERGENCE      => 0.001            
  MOGRAD_DAMPING              => 1                
  MO_DIIS_NUM_VECS            => 6                
  MO_MAXITER                  => 50               
  MO_READ                     => FALSE            
  MO_STEP_MAX                 => 0.5              
  MO_WRITE                    => FALSE            
  MP2_OS_SCALE                => 1.2              
  MP2_SOS_SCALE               => 1.3              
  MP2_SOS_SCALE2              => 1.2              
  MP2_SS_SCALE                => 0.333333         
  MP2_TYPE                    => DF               
  MP_TYPE                     => CONV             
  NAT_ORBS                    => FALSE            
  NUM_FROZEN_DOCC             => 0                
  NUM_FROZEN_UOCC             => 0                
  OCC_ORBS_PRINT              => FALSE            
  OEPROP                      => FALSE            
  OPT_METHOD                  => ORB_RESP         
  ORB_OPT                     => FALSE           !
  ORB_RESP_SOLVER             => PCG              
  ORTH_TYPE                   => MGS              
  PCG_BETA_TYPE               => FLETCHER_REEVES  
  PCG_CONVERGENCE             => 1e-06            
  PCG_MAXITER                 => 30               
  PCM                         => FALSE            
  PCM_SCF_TYPE                => TOTAL            
  PRINT                       => 1                
  PRINT_NOONS                 => 3                
  PROPERTIES                  => [  ]             
  PROPERTIES_ORIGIN           => [  ]             
  PUREAM                      => TRUE             
  QC_MODULE                   => (empty)          
  RAS1                        => [  ]             
  RAS2                        => [  ]             
  RAS3                        => [  ]             
  RAS4                        => [  ]             
  RELATIVISTIC                => NO               
  RELAXED                     => TRUE             
  REL_BASIS                   => (empty)          
  RESTRICTED_DOCC             => [  ]             
  RESTRICTED_UOCC             => [  ]             
  RMS_MOGRAD_CONVERGENCE      => 1e-06            
  RUN_CCTRANSORT              => TRUE             
  R_CONVERGENCE               => 1e-05            
  SCS_TYPE                    => SCS              
  SOCC                        => [  ]             
  SOS_TYPE                    => SOS              
  SYMMETRIZE                  => TRUE             
  TPDM_ABCD_TYPE              => DIRECT           
  UNITS                       => ANGSTROMS        
  WFN                         => SCF              
  WFN_TYPE                    => OMP3            !
  WRITER_FILE_LABEL           => (empty)          


 ============================================================================== 
 ============================================================================== 
 ============================================================================== 

                       MP3   
              Program Written by Ugur Bozkaya,
              Latest Revision June 25, 2014.

 ============================================================================== 
 ============================================================================== 
 ============================================================================== 

	RMS orbital gradient is changed to :     1.00e-06
	MAX orbital gradient is changed to :     1.00e-04
	MO spaces per irreps... 

	IRREP   FC   AOCC  BOCC  AVIR    BVIR  FV 
	==========================================
	  A1     0     5     5     9      9     0
	  A2     0     0     0     2      2     0
	  B1     0     1     1     5      5     0
	  B2     0     2     1     4      5     0
	==========================================

	Computing MP2 energy using SCF MOs (Canonical MP2)... 
	============================================================================== 
	Nuclear Repulsion Energy (a.u.)    :    25.59060766929189
	SCF Energy (a.u.)                  :  -129.25940696815937
	REF Energy (a.u.)                  :  -129.25940696815937
	Alpha-Alpha Contribution (a.u.)    :    -0.04426888409903
	Alpha-Beta Contribution (a.u.)     :    -0.23151427843940
	Beta-Beta Contribution (a.u.)      :    -0.04333081020624
	Scaled_SS Correlation Energy (a.u.):    -0.02919989810176
	Scaled_OS Correlation Energy (a.u.):    -0.27781713412728
	SCS-MP2 Total Energy (a.u.)        :  -129.56642400038839
	SOS-MP2 Total Energy (a.u.)        :  -129.56037553013059
	SCSN-MP2 Total Energy (a.u.)       :  -129.41358243013664
	SCS-MP2-VDW Total Energy (a.u.)    :  -129.59954509171442
	SOS-PI-MP2 Total Energy (a.u.)     :  -129.58352695797453
	MP2 Correlation Energy (a.u.)      :    -0.31911397274467
	MP2 Total Energy (a.u.)            :  -129.57852094090404
	============================================================================== 


	Computing MP3 energy using SCF MOs (Canonical MP3)... 
	============================================================================== 
	Nuclear Repulsion Energy (a.u.)    :    25.59060766929189
	SCF Energy (a.u.)                  :  -129.25940696815937
	REF Energy (a.u.)                  :  -129.25940696815937
	Alpha-Alpha Contribution (a.u.)    :    -0.03963671296185
	Alpha-Beta Contribution (a.u.)     :    -0.24151475692968
	Beta-Beta Contribution (a.u.)      :    -0.03706233017020
	MP2.5 Correlation Energy (a.u.)    :    -0.31866388640320
	MP2.5 Total Energy (a.u.)          :  -129.57807085456255
	SCS-MP3 Total Energy (a.u.)        :  -129.56619895721767
	SOS-MP3 Total Energy (a.u.)        :  -129.56015048695986
	SCSN-MP3 Total Energy (a.u.)       :  -129.41335738696591
	SCS-MP3-VDW Total Energy (a.u.)    :  -129.59932004854369
	SOS-PI-MP3 Total Energy (a.u.)     :  -129.58330191480380
	3rd Order Energy (a.u.)            :     0.00090017268295
	MP3 Correlation Energy (a.u.)      :    -0.31821380006173
	MP3 Total Energy (a.u.)            :  -129.57762076822110
	============================================================================== 

	Analytic gradient computation is starting...
	Computing response density matrices...
	Computing off-diagonal blocks of GFM...
	Forming independent-pairs...
	Number of alpha independent-pairs: 58
	Number of beta independent-pairs : 55
	Computing orbital gradient...
	Computing G_abcd...
	Computing diagonal blocks of GFM...
	Solving orbital Z-vector equations...
	Forming relaxed response density matrices...
	Forming relaxed GFM...
	Writing particle density matrices and GFM to disk...
	Necessary information has been sent to DERIV, which will take care of the rest.

*** tstop() called on ds1.sherrill.chemistry.gatech.edu at Mon Mar 14 15:31:22 2016
Module time:
	user time   =       0.24 seconds =       0.00 minutes
	system time =       0.05 seconds =       0.00 minutes
	total time  =          0 seconds =       0.00 minutes
Total time:
	user time   =       0.31 seconds =       0.01 minutes
	system time =       0.05 seconds =       0.00 minutes
	total time  =          0 seconds =       0.00 minutes

*** tstart() called on ds1.sherrill.chemistry.gatech.edu
*** at Mon Mar 14 15:31:22 2016

 DERIV: Derivative code.
   by Justin Turney

  Cartesian Displacement SALCs
  By SALC:
  Number of SALCs: 2, nirreps: 1
  Project out translations: False
  Project out rotations: False
	irrep = 0, ncomponent = 1
		0: atom 0, direction z, coef 1.000000
	irrep = 0, ncomponent = 1
		0: atom 1, direction z, coef 1.000000

  By Atomic Center:
  Number of atomic centers: 2
   Atomic Center 0:
	x component, size = 0
	y component, size = 0
	z component, size = 1
		0: salc 0, irrep 0, coef 1.000000
   Atomic Center 1:
	x component, size = 0
	y component, size = 0
	z component, size = 1
		0: salc 1, irrep 0, coef 1.000000

    Molecular point group: c2v
    Full point group: C_inf_v

    Geometry (in Bohr), charge = 0, multiplicity = 2:

       Center              X                  Y                   Z       
    ------------   -----------------  -----------------  -----------------
           N          0.000000000000     0.000000000000    -1.166802143832
           O          0.000000000000     0.000000000000     1.021500718049

	Presorting MO-basis TPDMs.
	Sorting File: MO TPDM (AA|AA) nbuckets = 1
	Sorting File: MO TPDM (AA|aa) nbuckets = 1
	Sorting File: MO TPDM (aa|aa) nbuckets = 1
	Starting first half-transformation.
	Sorting half-transformed TPDMs.
	First half integral transformation complete.


  -Nuclear Repulsion Energy 1st Derivatives:
     Atom            X                  Y                   Z
    ------   -----------------  -----------------  -----------------
       1        0.000000000000     0.000000000000    11.694271444350
       2        0.000000000000     0.000000000000   -11.694271444350


  -One-electron contribution to gradient:
     Atom            X                  Y                   Z
    ------   -----------------  -----------------  -----------------
       1        0.000000000000     0.000000000000   -27.969982262987
       2        0.000000000000     0.000000000000    27.969982262988


  -Lagrangian contribution to gradient:
     Atom            X                  Y                   Z
    ------   -----------------  -----------------  -----------------
       1        0.000000000000     0.000000000000     0.894292780779
       2        0.000000000000     0.000000000000    -0.894292780779


  -Two-electron contribution to gradient:
     Atom            X                  Y                   Z
    ------   -----------------  -----------------  -----------------
       1        0.000000000000     0.000000000000    15.233987904709
       2        0.000000000000     0.000000000000   -15.233987904709


  -Total gradient:
     Atom            X                  Y                   Z
    ------   -----------------  -----------------  -----------------
       1        0.000000000000     0.000000000000    -0.147430133148
       2        0.000000000000     0.000000000000     0.147430133149


*** tstop() called on ds1.sherrill.chemistry.gatech.edu at Mon Mar 14 15:31:22 2016
Module time:
	user time   =       0.15 seconds =       0.00 minutes
	system time =       0.01 seconds =       0.00 minutes
	total time  =          0 seconds =       0.00 minutes
Total time:
	user time   =       0.46 seconds =       0.01 minutes
	system time =       0.06 seconds =       0.00 minutes
	total time  =          0 seconds =       0.00 minutes
	Analytic gradients................................................PASSED

*** PSI4 exiting successfully. Buy a developer a beer!
