
    -----------------------------------------------------------------------
          Psi4: An Open-Source Ab Initio Electronic Structure Package
                               Psi4 (inplace)

                         Git: Rev (inplace)


    R. M. Parrish, L. A. Burns, D. G. A. Smith, A. C. Simmonett,
    A. E. DePrince III, E. G. Hohenstein, U. Bozkaya, A. Yu. Sokolov,
    R. Di Remigio, R. M. Richard, J. F. Gonthier, A. M. James,
    H. R. McAlexander, A. Kumar, M. Saitow, X. Wang, B. P. Pritchard,
    P. Verma, H. F. Schaefer III, K. Patkowski, R. A. King, E. F. Valeev,
    F. A. Evangelista, J. M. Turney, T. D. Crawford, and C. D. Sherrill,
    J. Chem. Theory Comput. 13(7) pp 3185--3197 (2017).
    (doi: 10.1021/acs.jctc.7b00174)

    -----------------------------------------------------------------------


    Psi4 started on: Monday, 30 October 2017 02:57PM

    Process ID:  10315
    PSIDATADIR: /Users/daniel/Gits/dgaspsi/psi4/share/psi4
    Memory:     500.0 MiB
    Threads:    1
    
  ==> Input File <==

--------------------------------------------------------------------------
import numpy as np
import psi4
from psi4.driver import p4util

# Generate JSON data
json_data = {}
json_data["molecule"] = """He 0 0 0\n--\nHe 0 0 1"""
json_data["memory"] = "5GB"
json_data["driver"] = "energy"
json_data["method"] = 'SCF'
json_data["kwargs"] = {"bsse_type": "cp"}
json_data["options"] = {"BASIS": "STO-3G"}
json_data["return_output"] = True

psi4.json_wrapper.run_json(json_data)
p4util.compare_strings("STO-3G", json_data["options"]["BASIS"], "Options test")    # TEST
p4util.compare_integers(True, len(json_data["raw_output"]) > 5000, "Output returned")  # TEST
p4util.compare_integers(True, json_data["success"], "Success")                     # TEST


bench_cp_energy = 0.183936053861                                            # TEST
cenergy = json_data["variables"]["CURRENT ENERGY"]                          # TEST
p4util.compare_values(bench_cp_energy, cenergy, 6, "SCF CURRENT ENERGY")           # TEST

cenergy = json_data["return_value"]                                         # TEST
p4util.compare_values(bench_cp_energy, cenergy, 6, "SCF RETURN_VALUE")             # TEST

return_wfn = "return_wfn" not in json_data["kwargs"]                        # TEST
p4util.compare_integers(True, return_wfn, "Immutable input")                       # TEST

with open("output.dat", "w") as f:
    f.write(json_data["raw_output"]) 
--------------------------------------------------------------------------

  Memory set to   4.657 GiB by Python driver.
