    -----------------------------------------------------------------------
          Psi4: An Open-Source Ab Initio Electronic Structure Package
                              Psi4 0.4.86 Driver

                          Git: Rev {master} a421e87 dirty

    J. M. Turney, A. C. Simmonett, R. M. Parrish, E. G. Hohenstein,
    F. A. Evangelista, J. T. Fermann, B. J. Mintz, L. A. Burns, J. J. Wilke,
    M. L. Abrams, N. J. Russ, M. L. Leininger, C. L. Janssen, E. T. Seidl,
    W. D. Allen, H. F. Schaefer, R. A. King, E. F. Valeev, C. D. Sherrill,
    and T. D. Crawford, WIREs Comput. Mol. Sci. 2, 556-565 (2012)
    (doi: 10.1002/wcms.93)

                         Additional Contributions by
    A. E. DePrince, M. Saitow, U. Bozkaya, A. Yu. Sokolov
    -----------------------------------------------------------------------


    Psi4 started on: Sun Feb 21 02:41:39 2016

    Process ID:  14226
    PSI4DATADIR: ../../share/
    Memory level set to 256.000 MB

  ==> Input File <==

--------------------------------------------------------------------------
#! OMP2 cc-pVDZ energy for the H2O molecule.

refnuc      =  9.18738642147759 #TEST
refscf      = -76.02674017978704 #TEST
refomp2     = -76.22932767439706 #TEST


memory 256 mb

molecule hf {
H
F 1 0.917
}

molecule bh_h2p {
1 2
B     0.10369114     0.00000000     0.00000000
H    -1.13269886     0.00000000     0.00000000
H     3.00000000     0.37149000     0.00000000
H     3.00000000    -0.37149000     0.00000000
}

molecule interloper {
0 1
o
h 1 0.958
h 1 0.958 2 104.4776 
}

set basis cc-pvdz
set scf_type df
set guess sad
set freeze_core true
set e_convergence 8
set d_convergence 7

# <<<  RHF CONV  >>>

scftot =   -100.019400605629
mp2corl =    -0.201612517228
mp2tot =   -100.221013122857

set reference rhf
set mp2_type conv

set qc_module occ
ugur = energy('mp2', molecule=hf)
compare_values(scftot, get_variable('hf total energy'), 6, 'mp2 rhf conv: 3 occ*')  #TEST
compare_values(mp2corl, get_variable('mp2 correlation energy'), 6, 'mp2 rhf conv: 3 occ*')  #TEST
compare_values(mp2tot, get_variable('mp2 total energy'), 6, 'mp2 rhf conv: 3 occ*')  #TEST
compare_values(mp2tot, ugur, 6, 'mp2 rhf conv: 3 occ*')  #TEST
clean_variables()
clean()

set qc_module fnocc
eugene = energy('mp2', molecule=hf)
compare_values(scftot, get_variable('hf total energy'), 6, 'mp2 rhf conv: 3 fnocc')  #TEST
compare_values(mp2corl, get_variable('mp2 correlation energy'), 6, 'mp2 rhf conv: 3 fnocc')  #TEST
compare_values(mp2tot, get_variable('mp2 total energy'), 6, 'mp2 rhf conv: 3 fnocc')  #TEST
compare_values(mp2tot, eugene, 6, 'mp2 rhf conv: 3 fnocc')  #TEST
clean_variables()
clean()

set qc_module detci
david = energy('mp2', molecule=hf)
compare_values(scftot, get_variable('hf total energy'), 6, 'mp2 rhf conv: 3 detci')  #TEST
compare_values(mp2corl, get_variable('mp2 correlation energy'), 6, 'mp2 rhf conv: 3 detci')  #TEST
compare_values(mp2tot, get_variable('mp2 total energy'), 6, 'mp2 rhf conv: 3 detci')  #TEST
compare_values(mp2tot, david, 6, 'mp2 rhf conv: 3 detci')  #TEST
clean_variables()
clean()

## <<<  RHF DF  >>>

mp2corl =    -0.201610660387
mp2tot =   -100.221011266016

set reference rhf
set mp2_type df

set qc_module occ
ugur = energy('mp2', molecule=hf)
print_variables()
compare_values(scftot, get_variable('hf total energy'), 6, 'mp2 rhf df: 2 occ')  #TEST
compare_values(mp2corl, get_variable('mp2 correlation energy'), 6, 'mp2 rhf df: 2 occ')  #TEST
compare_values(mp2tot, get_variable('mp2 total energy'), 6, 'mp2 rhf df: 2 occ')  #TEST
compare_values(mp2tot, ugur, 6, 'mp2 rhf df: 2 occ')  #TEST
clean_variables()
clean()

set qc_module dfmp2
rob = energy('mp2', molecule=hf)
compare_values(scftot, get_variable('hf total energy'), 6, 'mp2 rhf df: 2 dfmp2*')  #TEST
compare_values(mp2corl, get_variable('mp2 correlation energy'), 6, 'mp2 rhf df: 2 dfmp2*')  #TEST
compare_values(mp2tot, get_variable('mp2 total energy'), 6, 'mp2 rhf df: 2 dfmp2*')  #TEST
compare_values(mp2tot, rob, 6, 'mp2 rhf df: 2 dfmp2*')  #TEST
clean_variables()
clean()

# <<<  RHF CD  >>>

mp2corl =     -0.201609396752
mp2tot =    -100.221010002381

set reference rhf
set mp2_type cd

set qc_module occ
ugur = energy('mp2', molecule=hf)
compare_values(scftot, get_variable('hf total energy'), 6, 'mp2 rhf cd: 1 occ*')  #TEST
compare_values(mp2corl, get_variable('mp2 correlation energy'), 6, 'mp2 rhf cd: 1 occ*')  #TEST
compare_values(mp2tot, get_variable('mp2 total energy'), 6, 'mp2 rhf cd: 1 occ*')  #TEST
compare_values(mp2tot, ugur, 6, 'mp2 rhf cd: 1 occ*')  #TEST
clean_variables()
clean()

# <<<  UHF CONV  >>>

scftot =    -25.945130559147
mp2corl =    -0.058421122206
mp2tot =    -26.003551681354

set reference uhf
set mp2_type conv

set qc_module occ
ugur = energy('mp2', molecule=bh_h2p)
compare_values(scftot, get_variable('hf total energy'), 6, 'mp2 uhf conv: 1 occ*')  #TEST
compare_values(mp2corl, get_variable('mp2 correlation energy'), 6, 'mp2 uhf conv: 1 occ*')  #TEST
compare_values(mp2tot, get_variable('mp2 total energy'), 6, 'mp2 uhf conv: 1 occ*')  #TEST
compare_values(mp2tot, ugur, 6, 'mp2 uhf conv: 1 occ*')  #TEST
clean_variables()
clean()

# <<<  UHF DF  >>>

mp2corl =    -0.058390006825
mp2tot =    -26.003520565972


set reference uhf
set mp2_type df

set qc_module occ
ugur = energy('mp2', molecule=bh_h2p)
compare_values(scftot, get_variable('hf total energy'), 6, 'mp2 uhf df: 2 occ')  #TEST
compare_values(mp2corl, get_variable('mp2 correlation energy'), 6, 'mp2 uhf df: 2 occ')  #TEST
compare_values(mp2tot, get_variable('mp2 total energy'), 6, 'mp2 uhf df: 2 occ')  #TEST
compare_values(mp2tot, ugur, 6, 'mp2 uhf df: 2 occ')  #TEST
clean_variables()
clean()

set qc_module dfmp2
david = energy('mp2', molecule=bh_h2p)
compare_values(scftot, get_variable('hf total energy'), 6, 'mp2 uhf df: 2 dfmp2*')  #TEST
compare_values(mp2corl, get_variable('mp2 correlation energy'), 6, 'mp2 uhf df: 2 dfmp2*')  #TEST
compare_values(mp2tot, get_variable('mp2 total energy'), 6, 'mp2 uhf df: 2 dfmp2*')  #TEST
compare_values(mp2tot, david, 6, 'mp2 uhf df: 2 dfmp2*')  #TEST
clean_variables()
clean()

# <<<  UHF CD  >>>

mp2corl =    -0.058409837177
mp2tot =    -26.003540396324

set reference uhf
set mp2_type cd

set qc_module occ
ugur = energy('mp2', molecule=bh_h2p)
compare_values(scftot, get_variable('hf total energy'), 6, 'mp2 uhf cd: 1 occ*')  #TEST
compare_values(mp2corl, get_variable('mp2 correlation energy'), 6, 'mp2 uhf cd: 1 occ*')  #TEST
compare_values(mp2tot, get_variable('mp2 total energy'), 6, 'mp2 uhf cd: 1 occ*')  #TEST
compare_values(mp2tot, ugur, 6, 'mp2 uhf cd: 1 occ*')  #TEST
clean_variables()
clean()

# <<<  ROHF CONV  >>>

scftot =     -25.943606522029
mp2corl =     -0.060939211739
mp2tot =     -26.004545733768

set reference rohf
set mp2_type conv

set qc_module occ
ugur = energy('mp2', molecule=bh_h2p)
compare_values(scftot, get_variable('hf total energy'), 6, 'mp2 rohf conv: 2 occ*')  #TEST
#compare_values(mp2corl, get_variable('mp2 correlation energy'), 6, 'mp2 rohf conv: 2 occ*')  #TEST
#compare_values(mp2tot, get_variable('mp2 total energy'), 6, 'mp2 rohf conv: 2 occ*')  #TEST
#compare_values(mp2tot, ugur, 6, 'mp2 rohf conv: 2 occ*')  #TEST
clean_variables()
clean()

set qc_module detci
david = energy('mp2', molecule=bh_h2p)
compare_values(scftot, get_variable('hf total energy'), 6, 'mp2 rohf conv: 2 detci')  #TEST
compare_values(mp2corl, get_variable('mp2 correlation energy'), 6, 'mp2 rohf conv: 2 detci')  #TEST
compare_values(mp2tot, get_variable('mp2 total energy'), 6, 'mp2 rohf conv: 2 detci')  #TEST
compare_values(mp2tot, david, 6, 'mp2 rohf conv: 2 detci')  #TEST
clean_variables()
clean()

# <<<  ROHF DF  >>>

mp2corl =    -0.059372748391
mp2tot =    -26.002979270420

set reference rohf
set mp2_type df

set qc_module occ
ugur = energy('mp2', molecule=bh_h2p)
compare_values(scftot, get_variable('hf total energy'), 6, 'mp2 rohf df: 2 occ')  #TEST
compare_values(mp2corl, get_variable('mp2 correlation energy'), 6, 'mp2 rohf df: 2 occ')  #TEST
compare_values(mp2tot, get_variable('mp2 total energy'), 6, 'mp2 rohf df: 2 occ')  #TEST
compare_values(mp2tot, ugur, 6, 'mp2 rohf df: 2 occ')  #TEST
clean_variables()
clean()

set qc_module dfmp2
david = energy('mp2', molecule=bh_h2p)
compare_values(scftot, get_variable('hf total energy'), 6, 'mp2 rohf df: 2 dfmp2*')  #TEST
compare_values(mp2corl, get_variable('mp2 correlation energy'), 6, 'mp2 rohf df: 2 dfmp2*')  #TEST
compare_values(mp2tot, get_variable('mp2 total energy'), 6, 'mp2 rohf df: 2 dfmp2*')  #TEST
compare_values(mp2tot, david, 6, 'mp2 rohf df: 2 dfmp2*')  #TEST
clean_variables()
clean()

# <<<  ROHF CD  >>>

mp2corl =      -0.059393510962
mp2tot =      -26.003000032991

set reference rohf
set mp2_type cd

set qc_module occ
ugur = energy('mp2', molecule=bh_h2p)
compare_values(scftot, get_variable('hf total energy'), 6, 'mp2 rohf cd: 1 occ*')  #TEST
compare_values(mp2corl, get_variable('mp2 correlation energy'), 6, 'mp2 rohf cd: 1 occ*')  #TEST
compare_values(mp2tot, get_variable('mp2 total energy'), 6, 'mp2 rohf cd: 1 occ*')  #TEST
compare_values(mp2tot, ugur, 6, 'mp2 rohf cd: 1 occ*')  #TEST
clean_variables()
clean()

# <<<  RHF CONV gradient  >>>

scftot =   -100.019400605629
mp2corl =    -0.201612517228
mp2tot =   -100.221013122857
mp2totg = psi4.Matrix(2, 3)
#mp2tot_vals = 
#mp2totg.set(mp2tot_vals)

set reference rhf
set mp2_type conv

# OCC

# <<<  RHF DF gradient  >>>

mp2corl =    -0.201610660387
mp2tot =   -100.221011266016
mp2tot_vals = [[   -0.00000000000000,    -0.00000000000000,     0.00314716684145],
               [    0.00000000000000,     0.00000000000000,    -0.00314716684144]]
mp2totg.set(mp2tot_vals)

set reference rhf
set mp2_type df

set qc_module occ
ugur = gradient('mp2', molecule=hf)
print_variables()
compare_values(scftot, get_variable('hf total energy'), 6, 'mp2 grad rhf df: 2 occ')  #TEST
compare_values(mp2corl, get_variable('mp2 correlation energy'), 6, 'mp2 grad rhf df: 2 occ')  #TEST
compare_values(mp2tot, get_variable('mp2 total energy'), 6, 'mp2 grad rhf df: 2 occ')  #TEST
compare_matrices(mp2totg, ugur, 6, 'mp2 grad rhf df: 2 occ')  #TEST
clean_variables()
clean()

set qc_module dfmp2
rob = gradient('mp2', molecule=hf)
compare_values(scftot, get_variable('hf total energy'), 6, 'mp2 grad rhf df: 2 dfmp2*')  #TEST
compare_values(mp2corl, get_variable('mp2 correlation energy'), 6, 'mp2 grad rhf df: 2 dfmp2*')  #TEST
compare_values(mp2tot, get_variable('mp2 total energy'), 6, 'mp2 grad rhf df: 2 dfmp2*')  #TEST
compare_matrices(mp2totg, rob, 6, 'mp2 grad rhf df: 2 dfmp2*')  #TEST
clean_variables()
clean()

# <<<  RHF CD gradient  >>>

# <<<  UHF CONV gradient  >>>

# OCC

# <<<  UHF DF gradient  >>>  

# OCC

# <<<  UHF CD gradient  >>>

# <<<  ROHF CONV gradient  >>>

# <<<  ROHF DF gradient  >>>

# <<<  ROHF CD gradient  >>>

--------------------------------------------------------------------------

  Memory set to 256.000 MiB by Python script.
    There are an even number of electrons - assuming singlet.
    Specify the multiplicity in the molecule input block.


*** tstart() called on ds4
*** at Sun Feb 21 02:41:40 2016


         ---------------------------------------------------------
                                   SCF
            by Justin Turney, Rob Parrish, and Andy Simmonett
                              RHF Reference
                        1 Threads,    256 MiB Core
         ---------------------------------------------------------

  ==> Geometry <==

    Molecular point group: c2v
    Full point group: C_inf_v

    Geometry (in Angstrom), charge = 0, multiplicity = 1:

       Center              X                  Y                   Z               Mass       
    ------------   -----------------  -----------------  -----------------  -----------------
           H          0.000000000000     0.000000000000    -0.870805607805     1.007825032070
           F          0.000000000000     0.000000000000     0.046194392195    18.998403224000

  Running in c2v symmetry.

  Rotational constants: A = ************  B =     20.94695  C =     20.94695 [cm^-1]
  Rotational constants: A = ************  B = 627973.76742  C = 627973.76742 [MHz]
  Nuclear repulsion =    5.193669440905126

  Charge       = 0
  Multiplicity = 1
  Electrons    = 10
  Nalpha       = 5
  Nbeta        = 5

  ==> Algorithm <==

  SCF Algorithm Type is DF.
  DIIS enabled.
  MOM disabled.
  Fractional occupation disabled.
  Guess Type is SAD.
  Energy threshold   = 1.00e-08
  Density threshold  = 1.00e-07
  Integral threshold = 0.00e+00

  ==> Primary Basis <==

  Basis Set: CC-PVDZ
    Number of shells: 9
    Number of basis function: 19
    Number of Cartesian functions: 20
    Spherical Harmonics?: true
    Max angular momentum: 2

  ==> Pre-Iterations <==

   -------------------------------------------------------
    Irrep   Nso     Nmo     Nalpha   Nbeta   Ndocc  Nsocc
   -------------------------------------------------------
     A1        10      10       0       0       0       0
     A2         1       1       0       0       0       0
     B1         4       4       0       0       0       0
     B2         4       4       0       0       0       0
   -------------------------------------------------------
    Total      19      19       5       5       5       0
   -------------------------------------------------------

  ==> Integral Setup <==

  ==> DFJK: Density-Fitted J/K Matrices <==

    J tasked:                  Yes
    K tasked:                  Yes
    wK tasked:                  No
    OpenMP threads:              1
    Integrals threads:           1
    Memory (MB):               183
    Algorithm:                Core
    Integral Cache:           NONE
    Schwarz Cutoff:          1E-12
    Fitting Condition:       1E-12

   => Auxiliary Basis Set <=

  Basis Set: 
    Number of shells: 33
    Number of basis function: 93
    Number of Cartesian functions: 106
    Spherical Harmonics?: true
    Max angular momentum: 3

  Minimum eigenvalue in the overlap matrix is 4.9118010066E-02.
  Using Symmetric Orthogonalization.
  SCF Guess: Superposition of Atomic Densities via on-the-fly atomic UHF.

  ==> Iterations <==

                           Total Energy        Delta E     RMS |[F,P]|

   @DF-RHF iter   0:   -99.86411834595259   -9.98641e+01   1.02468e-01 
   @DF-RHF iter   1:   -99.99866289683536   -1.34545e-01   2.07797e-02 
   @DF-RHF iter   2:  -100.01550404198291   -1.68411e-02   1.00586e-02 DIIS
   @DF-RHF iter   3:  -100.01930341243830   -3.79937e-03   1.18234e-03 DIIS
   @DF-RHF iter   4:  -100.01939265164796   -8.92392e-05   2.94585e-04 DIIS
   @DF-RHF iter   5:  -100.01940029693299   -7.64529e-06   4.95349e-05 DIIS
   @DF-RHF iter   6:  -100.01940059850921   -3.01576e-07   7.17440e-06 DIIS
   @DF-RHF iter   7:  -100.01940060553146   -7.02225e-09   9.00706e-07 DIIS
   @DF-RHF iter   8:  -100.01940060562723   -9.57669e-11   1.33398e-07 DIIS
   @DF-RHF iter   9:  -100.01940060562900   -1.77636e-12   1.04689e-08 DIIS

  ==> Post-Iterations <==

    Orbital Energies (a.u.)
    -----------------------

    Doubly Occupied:                                                      

       1A1   -26.278131     2A1    -1.583457     3A1    -0.747199  
       1B1    -0.628887     1B2    -0.628887  

    Virtual:                                                              

       4A1     0.183841     5A1     0.810057     2B1     1.412047  
       2B2     1.412047     6A1     1.415770     3B1     1.604670  
       3B2     1.604670     7A1     2.134266     8A1     2.499125  
       9A1     4.004800     1A2     4.004800     4B1     4.280975  
       4B2     4.280975    10A1     5.056529  

    Final Occupation by Irrep:
             A1    A2    B1    B2 
    DOCC [     3,    0,    1,    1 ]

  Energy converged.

  @DF-RHF Final Energy:  -100.01940060562900

   => Energetics <=

    Nuclear Repulsion Energy =              5.1936694409051256
    One-Electron Energy =                -150.6930204950769792
    Two-Electron Energy =                  45.4799504485428585
    DFT Exchange-Correlation Energy =       0.0000000000000000
    Empirical Dispersion Energy =           0.0000000000000000
    PCM Polarization Energy =               0.0000000000000000
    EFP Energy =                            0.0000000000000000
    Total Energy =                       -100.0194006056289879

    Alert: EFP and PCM quantities not currently incorporated into SCF psivars.

Properties will be evaluated at   0.000000,   0.000000,   0.000000 Bohr
  ==> Properties <==


Properties computed using the SCF density matrix

  Nuclear Dipole Moment: (a.u.)
     X:     0.0000      Y:     0.0000      Z:    -0.8599

  Electronic Dipole Moment: (a.u.)
     X:     0.0000      Y:     0.0000      Z:     0.0928

  Dipole Moment: (a.u.)
     X:     0.0000      Y:     0.0000      Z:    -0.7672     Total:     0.7672

  Dipole Moment: (Debye)
     X:     0.0000      Y:     0.0000      Z:    -1.9499     Total:     1.9499


  Saving occupied orbitals to File 180.

*** tstop() called on ds4 at Sun Feb 21 02:41:41 2016
Module time:
	user time   =       0.40 seconds =       0.01 minutes
	system time =       0.01 seconds =       0.00 minutes
	total time  =          1 seconds =       0.02 minutes
Total time:
	user time   =       0.40 seconds =       0.01 minutes
	system time =       0.01 seconds =       0.00 minutes
	total time  =          1 seconds =       0.02 minutes

*** tstart() called on ds4
*** at Sun Feb 21 02:41:41 2016


 ============================================================================== 
 ============================================================================== 
 ============================================================================== 

                       MP2   
              Program Written by Ugur Bozkaya,
              Latest Revision June 25, 2014.

 ============================================================================== 
 ============================================================================== 
 ============================================================================== 

	RMS orbital gradient is changed to :     1.00e-06
	MAX orbital gradient is changed to :     1.00e-04
	MO spaces per irreps... 

	IRREP   FC    OCC   VIR  FV 
	==============================
	  A1     1     2     7    0
	  A2     0     0     1    0
	  B1     0     1     3    0
	  B2     0     1     3    0
	==============================

	Memory is    256 MB 
	Cost of iabc is      0 MB 
	Cost of abcd is      0 MB 
	Switching to the incore algoritm for iabc..
	Switching to the incore algoritm for abcd..

	Computing MP2 energy using SCF MOs (Canonical MP2)... 
	============================================================================== 
	Nuclear Repulsion Energy (a.u.)    :     5.19366944090513
	SCF Energy (a.u.)                  :  -100.01940060562900
	REF Energy (a.u.)                  :  -100.01940060562900
	Alpha-Alpha Contribution (a.u.)    :    -0.02674253669928
	Alpha-Beta Contribution (a.u.)     :    -0.14812744382993
	Beta-Beta Contribution (a.u.)      :    -0.02674253669928
	Scaled_SS Correlation Energy (a.u.):    -0.01782835779952
	Scaled_OS Correlation Energy (a.u.):    -0.17775293259591
	SCS-MP2 Total Energy (a.u.)        :  -100.21498189602443
	SOS-MP2 Total Energy (a.u.)        :  -100.01940060562900
	SCSN-MP2 Total Energy (a.u.)       :  -100.11353433481047
	SCS-MP2-VDW Total Energy (a.u.)    :  -100.23574627043060
	SOS-PI-MP2 Total Energy (a.u.)     :  -100.22677902699090
	MP2 Correlation Energy (a.u.)      :    -0.20161251722848
	MP2 Total Energy (a.u.)            :  -100.22101312285749
	============================================================================== 

*** tstop() called on ds4 at Sun Feb 21 02:41:41 2016
Module time:
	user time   =       0.00 seconds =       0.00 minutes
	system time =       0.01 seconds =       0.00 minutes
	total time  =          0 seconds =       0.00 minutes
Total time:
	user time   =       0.44 seconds =       0.01 minutes
	system time =       0.02 seconds =       0.00 minutes
	total time  =          1 seconds =       0.02 minutes
	mp2 rhf conv: 3 occ*..............................................PASSED
	mp2 rhf conv: 3 occ*..............................................PASSED
	mp2 rhf conv: 3 occ*..............................................PASSED
	mp2 rhf conv: 3 occ*..............................................PASSED

*** tstart() called on ds4
*** at Sun Feb 21 02:41:41 2016


         ---------------------------------------------------------
                                   SCF
            by Justin Turney, Rob Parrish, and Andy Simmonett
                              RHF Reference
                        1 Threads,    256 MiB Core
         ---------------------------------------------------------

  ==> Geometry <==

    Molecular point group: c2v
    Full point group: C_inf_v

    Geometry (in Angstrom), charge = 0, multiplicity = 1:

       Center              X                  Y                   Z               Mass       
    ------------   -----------------  -----------------  -----------------  -----------------
           H          0.000000000000     0.000000000000    -0.870805607805     1.007825032070
           F          0.000000000000     0.000000000000     0.046194392195    18.998403224000

  Running in c2v symmetry.

  Rotational constants: A = ************  B =     20.94695  C =     20.94695 [cm^-1]
  Rotational constants: A = ************  B = 627973.76742  C = 627973.76742 [MHz]
  Nuclear repulsion =    5.193669440905126

  Charge       = 0
  Multiplicity = 1
  Electrons    = 10
  Nalpha       = 5
  Nbeta        = 5

  ==> Algorithm <==

  SCF Algorithm Type is DF.
  DIIS enabled.
  MOM disabled.
  Fractional occupation disabled.
  Guess Type is SAD.
  Energy threshold   = 1.00e-08
  Density threshold  = 1.00e-07
  Integral threshold = 0.00e+00

  ==> Primary Basis <==

  Basis Set: CC-PVDZ
    Number of shells: 9
    Number of basis function: 19
    Number of Cartesian functions: 20
    Spherical Harmonics?: true
    Max angular momentum: 2

  ==> Pre-Iterations <==

   -------------------------------------------------------
    Irrep   Nso     Nmo     Nalpha   Nbeta   Ndocc  Nsocc
   -------------------------------------------------------
     A1        10      10       0       0       0       0
     A2         1       1       0       0       0       0
     B1         4       4       0       0       0       0
     B2         4       4       0       0       0       0
   -------------------------------------------------------
    Total      19      19       5       5       5       0
   -------------------------------------------------------

  ==> Integral Setup <==

  ==> DFJK: Density-Fitted J/K Matrices <==

    J tasked:                  Yes
    K tasked:                  Yes
    wK tasked:                  No
    OpenMP threads:              1
    Integrals threads:           1
    Memory (MB):               183
    Algorithm:                Core
    Integral Cache:           NONE
    Schwarz Cutoff:          1E-12
    Fitting Condition:       1E-12

   => Auxiliary Basis Set <=

  Basis Set: 
    Number of shells: 33
    Number of basis function: 93
    Number of Cartesian functions: 106
    Spherical Harmonics?: true
    Max angular momentum: 3

  Minimum eigenvalue in the overlap matrix is 4.9118010066E-02.
  Using Symmetric Orthogonalization.
  SCF Guess: Superposition of Atomic Densities via on-the-fly atomic UHF.

  ==> Iterations <==

                           Total Energy        Delta E     RMS |[F,P]|

   @DF-RHF iter   0:   -99.86411834595259   -9.98641e+01   1.02468e-01 
   @DF-RHF iter   1:   -99.99866289683536   -1.34545e-01   2.07797e-02 
   @DF-RHF iter   2:  -100.01550404198291   -1.68411e-02   1.00586e-02 DIIS
   @DF-RHF iter   3:  -100.01930341243830   -3.79937e-03   1.18234e-03 DIIS
   @DF-RHF iter   4:  -100.01939265164796   -8.92392e-05   2.94585e-04 DIIS
   @DF-RHF iter   5:  -100.01940029693299   -7.64529e-06   4.95349e-05 DIIS
   @DF-RHF iter   6:  -100.01940059850921   -3.01576e-07   7.17440e-06 DIIS
   @DF-RHF iter   7:  -100.01940060553146   -7.02225e-09   9.00706e-07 DIIS
   @DF-RHF iter   8:  -100.01940060562723   -9.57669e-11   1.33398e-07 DIIS
   @DF-RHF iter   9:  -100.01940060562900   -1.77636e-12   1.04689e-08 DIIS

  ==> Post-Iterations <==

    Orbital Energies (a.u.)
    -----------------------

    Doubly Occupied:                                                      

       1A1   -26.278131     2A1    -1.583457     3A1    -0.747199  
       1B1    -0.628887     1B2    -0.628887  

    Virtual:                                                              

       4A1     0.183841     5A1     0.810057     2B1     1.412047  
       2B2     1.412047     6A1     1.415770     3B1     1.604670  
       3B2     1.604670     7A1     2.134266     8A1     2.499125  
       9A1     4.004800     1A2     4.004800     4B1     4.280975  
       4B2     4.280975    10A1     5.056529  

    Final Occupation by Irrep:
             A1    A2    B1    B2 
    DOCC [     3,    0,    1,    1 ]

  Energy converged.

  @DF-RHF Final Energy:  -100.01940060562900

   => Energetics <=

    Nuclear Repulsion Energy =              5.1936694409051256
    One-Electron Energy =                -150.6930204950769792
    Two-Electron Energy =                  45.4799504485428585
    DFT Exchange-Correlation Energy =       0.0000000000000000
    Empirical Dispersion Energy =           0.0000000000000000
    PCM Polarization Energy =               0.0000000000000000
    EFP Energy =                            0.0000000000000000
    Total Energy =                       -100.0194006056289879

    Alert: EFP and PCM quantities not currently incorporated into SCF psivars.

Properties will be evaluated at   0.000000,   0.000000,   0.000000 Bohr
  ==> Properties <==


Properties computed using the SCF density matrix

  Nuclear Dipole Moment: (a.u.)
     X:     0.0000      Y:     0.0000      Z:    -0.8599

  Electronic Dipole Moment: (a.u.)
     X:     0.0000      Y:     0.0000      Z:     0.0928

  Dipole Moment: (a.u.)
     X:     0.0000      Y:     0.0000      Z:    -0.7672     Total:     0.7672

  Dipole Moment: (Debye)
     X:     0.0000      Y:     0.0000      Z:    -1.9499     Total:     1.9499


  Saving occupied orbitals to File 180.

*** tstop() called on ds4 at Sun Feb 21 02:41:42 2016
Module time:
	user time   =       0.41 seconds =       0.01 minutes
	system time =       0.01 seconds =       0.00 minutes
	total time  =          1 seconds =       0.02 minutes
Total time:
	user time   =       0.90 seconds =       0.02 minutes
	system time =       0.03 seconds =       0.00 minutes
	total time  =          2 seconds =       0.03 minutes

*** tstart() called on ds4
*** at Sun Feb 21 02:41:42 2016

        ==> Transform all two-electron integrals <==

	Presorting SO-basis two-electron integrals.
	Sorting File: SO Ints (nn|nn) nbuckets = 1
	Transforming the one-electron integrals and constructing Fock matrices
	Starting first half-transformation.
	Sorting half-transformed integrals.
	First half integral transformation complete.
	Starting second half-transformation.
	Two-electron integral transformation complete.

*** tstop() called on ds4 at Sun Feb 21 02:41:42 2016
Module time:
	user time   =       0.00 seconds =       0.00 minutes
	system time =       0.01 seconds =       0.00 minutes
	total time  =          0 seconds =       0.00 minutes
Total time:
	user time   =       0.93 seconds =       0.02 minutes
	system time =       0.04 seconds =       0.00 minutes
	total time  =          2 seconds =       0.03 minutes

*** tstart() called on ds4
*** at Sun Feb 21 02:41:42 2016



        *****************************************************
        *                                                   *
        *                        MP2                        *
        *                  Eugene DePrince                  *
        *                                                   *
        *****************************************************



  ==> Input parameters <==

        Freeze core orbitals?                 yes
        Use frozen natural orbitals?           no
        r_convergence:                  1.000e-07
        e_convergence:                  1.000e-08
        Number of DIIS vectors:                 8
        Number of frozen core orbitals:         1
        Number of active occupied orbitals:     4
        Number of active virtual orbitals:     14
        Number of frozen virtual orbitals:      0

        ==> Transform (OV|OV) integrals <==

	Presorting SO-basis two-electron integrals.
	Sorting File: SO Ints (nn|nn) nbuckets = 1
	Transforming the one-electron integrals and constructing Fock matrices
	Starting first half-transformation.
	Sorting half-transformed integrals.
	First half integral transformation complete.
	Starting second half-transformation.
	Two-electron integral transformation complete.

        ==> Sort (OV|OV) integrals <==

        CC integral sort will use    0.02 mb
        Sort (IA|JB)........done.

        OS MP2 correlation energy:            -0.148127443830
        SS MP2 correlation energy:            -0.053485073399
        MP2 correlation energy:               -0.201612517228
      * MP2 total energy:                   -100.221013122857


*** tstop() called on ds4 at Sun Feb 21 02:41:42 2016
Module time:
	user time   =       0.01 seconds =       0.00 minutes
	system time =       0.01 seconds =       0.00 minutes
	total time  =          0 seconds =       0.00 minutes
Total time:
	user time   =       0.94 seconds =       0.02 minutes
	system time =       0.05 seconds =       0.00 minutes
	total time  =          2 seconds =       0.03 minutes
	mp2 rhf conv: 3 fnocc.............................................PASSED
	mp2 rhf conv: 3 fnocc.............................................PASSED
	mp2 rhf conv: 3 fnocc.............................................PASSED
	mp2 rhf conv: 3 fnocc.............................................PASSED

*** tstart() called on ds4
*** at Sun Feb 21 02:41:42 2016


         ---------------------------------------------------------
                                   SCF
            by Justin Turney, Rob Parrish, and Andy Simmonett
                              RHF Reference
                        1 Threads,    256 MiB Core
         ---------------------------------------------------------

  ==> Geometry <==

    Molecular point group: c2v
    Full point group: C_inf_v

    Geometry (in Angstrom), charge = 0, multiplicity = 1:

       Center              X                  Y                   Z               Mass       
    ------------   -----------------  -----------------  -----------------  -----------------
           H          0.000000000000     0.000000000000    -0.870805607805     1.007825032070
           F          0.000000000000     0.000000000000     0.046194392195    18.998403224000

  Running in c2v symmetry.

  Rotational constants: A = ************  B =     20.94695  C =     20.94695 [cm^-1]
  Rotational constants: A = ************  B = 627973.76742  C = 627973.76742 [MHz]
  Nuclear repulsion =    5.193669440905126

  Charge       = 0
  Multiplicity = 1
  Electrons    = 10
  Nalpha       = 5
  Nbeta        = 5

  ==> Algorithm <==

  SCF Algorithm Type is DF.
  DIIS enabled.
  MOM disabled.
  Fractional occupation disabled.
  Guess Type is SAD.
  Energy threshold   = 1.00e-08
  Density threshold  = 1.00e-07
  Integral threshold = 0.00e+00

  ==> Primary Basis <==

  Basis Set: CC-PVDZ
    Number of shells: 9
    Number of basis function: 19
    Number of Cartesian functions: 20
    Spherical Harmonics?: true
    Max angular momentum: 2

  ==> Pre-Iterations <==

   -------------------------------------------------------
    Irrep   Nso     Nmo     Nalpha   Nbeta   Ndocc  Nsocc
   -------------------------------------------------------
     A1        10      10       0       0       0       0
     A2         1       1       0       0       0       0
     B1         4       4       0       0       0       0
     B2         4       4       0       0       0       0
   -------------------------------------------------------
    Total      19      19       5       5       5       0
   -------------------------------------------------------

  ==> Integral Setup <==

  ==> DFJK: Density-Fitted J/K Matrices <==

    J tasked:                  Yes
    K tasked:                  Yes
    wK tasked:                  No
    OpenMP threads:              1
    Integrals threads:           1
    Memory (MB):               183
    Algorithm:                Core
    Integral Cache:           NONE
    Schwarz Cutoff:          1E-12
    Fitting Condition:       1E-12

   => Auxiliary Basis Set <=

  Basis Set: 
    Number of shells: 33
    Number of basis function: 93
    Number of Cartesian functions: 106
    Spherical Harmonics?: true
    Max angular momentum: 3

  Minimum eigenvalue in the overlap matrix is 4.9118010066E-02.
  Using Symmetric Orthogonalization.
  SCF Guess: Superposition of Atomic Densities via on-the-fly atomic UHF.

  ==> Iterations <==

                           Total Energy        Delta E     RMS |[F,P]|

   @DF-RHF iter   0:   -99.86411834595259   -9.98641e+01   1.02468e-01 
   @DF-RHF iter   1:   -99.99866289683536   -1.34545e-01   2.07797e-02 
   @DF-RHF iter   2:  -100.01550404198291   -1.68411e-02   1.00586e-02 DIIS
   @DF-RHF iter   3:  -100.01930341243830   -3.79937e-03   1.18234e-03 DIIS
   @DF-RHF iter   4:  -100.01939265164796   -8.92392e-05   2.94585e-04 DIIS
   @DF-RHF iter   5:  -100.01940029693299   -7.64529e-06   4.95349e-05 DIIS
   @DF-RHF iter   6:  -100.01940059850921   -3.01576e-07   7.17440e-06 DIIS
   @DF-RHF iter   7:  -100.01940060553146   -7.02225e-09   9.00706e-07 DIIS
   @DF-RHF iter   8:  -100.01940060562723   -9.57669e-11   1.33398e-07 DIIS
   @DF-RHF iter   9:  -100.01940060562900   -1.77636e-12   1.04689e-08 DIIS

  ==> Post-Iterations <==

    Orbital Energies (a.u.)
    -----------------------

    Doubly Occupied:                                                      

       1A1   -26.278131     2A1    -1.583457     3A1    -0.747199  
       1B1    -0.628887     1B2    -0.628887  

    Virtual:                                                              

       4A1     0.183841     5A1     0.810057     2B1     1.412047  
       2B2     1.412047     6A1     1.415770     3B1     1.604670  
       3B2     1.604670     7A1     2.134266     8A1     2.499125  
       9A1     4.004800     1A2     4.004800     4B1     4.280975  
       4B2     4.280975    10A1     5.056529  

    Final Occupation by Irrep:
             A1    A2    B1    B2 
    DOCC [     3,    0,    1,    1 ]

  Energy converged.

  @DF-RHF Final Energy:  -100.01940060562900

   => Energetics <=

    Nuclear Repulsion Energy =              5.1936694409051256
    One-Electron Energy =                -150.6930204950769792
    Two-Electron Energy =                  45.4799504485428585
    DFT Exchange-Correlation Energy =       0.0000000000000000
    Empirical Dispersion Energy =           0.0000000000000000
    PCM Polarization Energy =               0.0000000000000000
    EFP Energy =                            0.0000000000000000
    Total Energy =                       -100.0194006056289879

    Alert: EFP and PCM quantities not currently incorporated into SCF psivars.

Properties will be evaluated at   0.000000,   0.000000,   0.000000 Bohr
  ==> Properties <==


Properties computed using the SCF density matrix

  Nuclear Dipole Moment: (a.u.)
     X:     0.0000      Y:     0.0000      Z:    -0.8599

  Electronic Dipole Moment: (a.u.)
     X:     0.0000      Y:     0.0000      Z:     0.0928

  Dipole Moment: (a.u.)
     X:     0.0000      Y:     0.0000      Z:    -0.7672     Total:     0.7672

  Dipole Moment: (Debye)
     X:     0.0000      Y:     0.0000      Z:    -1.9499     Total:     1.9499


  Saving occupied orbitals to File 180.

*** tstop() called on ds4 at Sun Feb 21 02:41:43 2016
Module time:
	user time   =       0.39 seconds =       0.01 minutes
	system time =       0.00 seconds =       0.00 minutes
	total time  =          1 seconds =       0.02 minutes
Total time:
	user time   =       1.38 seconds =       0.02 minutes
	system time =       0.05 seconds =       0.00 minutes
	total time  =          3 seconds =       0.05 minutes

         ---------------------------------------------------------
                                 D E T C I  

                             C. David Sherrill
                             Matt L. Leininger
                               18 June 1999
         ---------------------------------------------------------


DETCI PARAMETERS: 
   EX LEVEL      =        8      H0 BLOCKSIZE =        1
   VAL EX LEVEL  =        0      H0 GUESS SIZE=        1
   H0COUPLINGSIZE=        0      H0 COUPLING  =       no
   MAXITER       =       12      NUM PRINT    =       20
   NUM ROOTS     =        1      ICORE        =        1
   PRINT         =        1      FCI          =      yes
   R CONV        = 1.00e-04      MIXED        =      yes
   E CONV        = 1.00e-08      MIXED4       =      yes
   OEI FILE      =       35      R4S          =       no
   REPL OTF      =       no
   TEI FILE      =       72      DIAG METHOD  =      SEM
   PRECONDITIONER= DAVIDSON      UPDATE       = DAVIDSON
   S             =   0.0000      Ms0          =      yes
   MAX NUM VECS  =        2
   RESTART       =       no
   GUESS VECTOR  =     UNIT      OPENTYPE     =     NONE
   REF SYM       =     auto
   COLLAPSE SIZE =        1      HD AVG       = ORB_ENER
   LSE           =       no      LSE ITER     =        0
   HD OTF        =      yes      NO DFILE     =      yes
   MPN           =      yes      MPN SCHMIDT  =       no
   ZAPTN         =       no      MPN WIGNER   =      yes
   PERT Z        =   1.0000      FOLLOW ROOT  =        0
   NUM THREADS   =        1
   VECS WRITE    =       no      NUM VECS WRITE =      0
   FILTER GUESS  =       no      SF RESTRICT  =       no
   OPDM          =       no      TRANS DENSITY=       no

   FILES         =  50 51 52 53

   EX ALLOW      =  1  1  1  1  1  1  1  1 
   STATE AVERAGE =  1(1.00) 

ORBITALS:
   NMO          =       19
   FROZEN CORE  =        1      RESTR CORE   =        0
   FROZEN VIRT  =        0      RESTR VIRT   =        0
   DROPPED CORE =        1      DROPPED VIRT =        0
   EXPLICIT CORE=        0      ORBS IN CI   =       18
   NUM ALP      =        5      NUM BET      =        5
   NUM ALP EXPL =        4      NUM BET EXPL =        4
   IOPEN        =       no

   DOCC            =   3   0   1   1 
   SOCC            =   0   0   0   0 

   FROZEN DOCC     =   1   0   0   0 
   RESTRICTED DOCC =   0   0   0   0 
   ACTIVE          =   9   1   4   4 
   RESTRICTED UOCC =   0   0   0   0 
   FROZEN UOCC     =   0   0   0   0 
         ---------------------------------------------------------


   ==> Setting up CI strings <==

   There are 3060 alpha and 3060 beta strings
   The CI space requires 2342800 (2.34E+06) determinants and 73 blocks


   ==> Transforming CI integrals <==
	Presorting SO-basis two-electron integrals.
	Sorting File: SO Ints (nn|nn) nbuckets = 1
	Transforming the one-electron integrals and constructing Fock matrices
	Starting first half-transformation.
	Sorting half-transformed integrals.
	First half integral transformation complete.
	Starting second half-transformation.
	Two-electron integral transformation complete.
 orb_energy[0] = -26.278131
   CalcInfo_->escf =      -100.019400605629002
   CalcInfo_->e0   =       -59.733119552508221
   CalcInfo_->enuc =         5.193669440905126
   CalcInfo_->e1   =       -45.479950494025907

   n         Corr. Energy                  E(MPn)               n         Corr. Energy                  E(MPn)

   0          0.000000000000000       -54.539450111603095
   1        -45.479950494025907      -100.019400605629002
   1        -45.479961146318189      -100.019411257921291
   2         -0.201612527023327      -100.221013132652331       2        -0.201612527023327      -100.221013132652331
                                                                3        -0.002923615136859      -100.223936747789196

MP2 energy saved

EMPn = -100.2210131326523

		 "A good bug is a dead bug" 

			 - Starship Troopers

		 "I didn't write FORTRAN.  That's the problem."

			 - Edward Valeev

	mp2 rhf conv: 3 detci.............................................PASSED
	mp2 rhf conv: 3 detci.............................................PASSED
	mp2 rhf conv: 3 detci.............................................PASSED
	mp2 rhf conv: 3 detci.............................................PASSED
  A requested method does not make use of molecular symmetry: further calculations in C1 point group.

*** tstart() called on ds4
*** at Sun Feb 21 02:41:44 2016


         ---------------------------------------------------------
                                   SCF
            by Justin Turney, Rob Parrish, and Andy Simmonett
                              RHF Reference
                        1 Threads,    256 MiB Core
         ---------------------------------------------------------

  ==> Geometry <==

    Molecular point group: c1
    Full point group: C_inf_v

    Geometry (in Angstrom), charge = 0, multiplicity = 1:

       Center              X                  Y                   Z               Mass       
    ------------   -----------------  -----------------  -----------------  -----------------
           H          0.000000000000     0.000000000000    -0.870805607805     1.007825032070
           F          0.000000000000     0.000000000000     0.046194392195    18.998403224000

  Running in c1 symmetry.

  Rotational constants: A = ************  B =     20.94695  C =     20.94695 [cm^-1]
  Rotational constants: A = ************  B = 627973.76742  C = 627973.76742 [MHz]
  Nuclear repulsion =    5.193669440905126

  Charge       = 0
  Multiplicity = 1
  Electrons    = 10
  Nalpha       = 5
  Nbeta        = 5

  ==> Algorithm <==

  SCF Algorithm Type is DF.
  DIIS enabled.
  MOM disabled.
  Fractional occupation disabled.
  Guess Type is SAD.
  Energy threshold   = 1.00e-08
  Density threshold  = 1.00e-07
  Integral threshold = 0.00e+00

  ==> Primary Basis <==

  Basis Set: CC-PVDZ
    Number of shells: 9
    Number of basis function: 19
    Number of Cartesian functions: 20
    Spherical Harmonics?: true
    Max angular momentum: 2

  ==> Pre-Iterations <==

   -------------------------------------------------------
    Irrep   Nso     Nmo     Nalpha   Nbeta   Ndocc  Nsocc
   -------------------------------------------------------
     A         19      19       0       0       0       0
   -------------------------------------------------------
    Total      19      19       5       5       5       0
   -------------------------------------------------------

  ==> Integral Setup <==

  ==> DFJK: Density-Fitted J/K Matrices <==

    J tasked:                  Yes
    K tasked:                  Yes
    wK tasked:                  No
    OpenMP threads:              1
    Integrals threads:           1
    Memory (MB):               183
    Algorithm:                Core
    Integral Cache:           SAVE
    Schwarz Cutoff:          1E-12
    Fitting Condition:       1E-12

   => Auxiliary Basis Set <=

  Basis Set: 
    Number of shells: 33
    Number of basis function: 93
    Number of Cartesian functions: 106
    Spherical Harmonics?: true
    Max angular momentum: 3

  Minimum eigenvalue in the overlap matrix is 4.9118010066E-02.
  Using Symmetric Orthogonalization.
  SCF Guess: Superposition of Atomic Densities via on-the-fly atomic UHF.

  ==> Iterations <==

                           Total Energy        Delta E     RMS |[F,P]|

   @DF-RHF iter   0:   -99.94810704316859   -9.99481e+01   6.24980e-02 
   @DF-RHF iter   1:   -99.99585762276983   -4.77506e-02   1.22680e-02 
   @DF-RHF iter   2:  -100.01491524659190   -1.90576e-02   5.63510e-03 DIIS
   @DF-RHF iter   3:  -100.01874651177621   -3.83127e-03   1.31197e-03 DIIS
   @DF-RHF iter   4:  -100.01930710603938   -5.60594e-04   4.25599e-04 DIIS
   @DF-RHF iter   5:  -100.01939601107614   -8.89050e-05   8.97716e-05 DIIS
   @DF-RHF iter   6:  -100.01940053510204   -4.52403e-06   1.26801e-05 DIIS
   @DF-RHF iter   7:  -100.01940060501073   -6.99087e-08   1.36645e-06 DIIS
   @DF-RHF iter   8:  -100.01940060561084   -6.00110e-10   2.41983e-07 DIIS
   @DF-RHF iter   9:  -100.01940060562818   -1.73372e-11   3.61657e-08 DIIS

  ==> Post-Iterations <==

    Orbital Energies (a.u.)
    -----------------------

    Doubly Occupied:                                                      

       1A    -26.278131     2A     -1.583457     3A     -0.747199  
       4A     -0.628887     5A     -0.628887  

    Virtual:                                                              

       6A      0.183841     7A      0.810057     8A      1.412047  
       9A      1.412047    10A      1.415770    11A      1.604670  
      12A      1.604670    13A      2.134266    14A      2.499125  
      15A      4.004800    16A      4.004800    17A      4.280975  
      18A      4.280975    19A      5.056528  

    Final Occupation by Irrep:
              A 
    DOCC [     5 ]

  Energy converged.

  @DF-RHF Final Energy:  -100.01940060562818

   => Energetics <=

    Nuclear Repulsion Energy =              5.1936694409051256
    One-Electron Energy =                -150.6930197828912981
    Two-Electron Energy =                  45.4799497363579661
    DFT Exchange-Correlation Energy =       0.0000000000000000
    Empirical Dispersion Energy =           0.0000000000000000
    PCM Polarization Energy =               0.0000000000000000
    EFP Energy =                            0.0000000000000000
    Total Energy =                       -100.0194006056282063

    Alert: EFP and PCM quantities not currently incorporated into SCF psivars.

Properties will be evaluated at   0.000000,   0.000000,   0.000000 Bohr
  ==> Properties <==


Properties computed using the SCF density matrix

  Nuclear Dipole Moment: (a.u.)
     X:     0.0000      Y:     0.0000      Z:    -0.8599

  Electronic Dipole Moment: (a.u.)
     X:    -0.0000      Y:     0.0000      Z:     0.0928

  Dipole Moment: (a.u.)
     X:    -0.0000      Y:     0.0000      Z:    -0.7672     Total:     0.7672

  Dipole Moment: (Debye)
     X:    -0.0000      Y:     0.0000      Z:    -1.9499     Total:     1.9499


  Saving occupied orbitals to File 180.

*** tstop() called on ds4 at Sun Feb 21 02:41:45 2016
Module time:
	user time   =       0.41 seconds =       0.01 minutes
	system time =       0.03 seconds =       0.00 minutes
	total time  =          1 seconds =       0.02 minutes
Total time:
	user time   =       1.99 seconds =       0.03 minutes
	system time =       0.21 seconds =       0.00 minutes
	total time  =          5 seconds =       0.08 minutes

*** tstart() called on ds4
*** at Sun Feb 21 02:41:45 2016



  Options:
  ----------------------------------------------------------------------------
  ACTIVE                      => [  ]             
  BENCH                       => 0                
  CC_DIIS_MAX_VECS            => 6                
  CC_DIIS_MIN_VECS            => 2                
  CC_LAMBDA                   => FALSE            
  CC_MAXITER                  => 50               
  CC_TYPE                     => CONV             
  CEPA_TYPE                   => CONV             
  CHOLESKY                    => FALSE           !
  CHOLESKY_TOLERANCE          => 0.0001           
  CI_TYPE                     => CONV             
  COMPUT_S2                   => FALSE            
  CUBEPROP_BASIS_FUNCTIONS    => [  ]             
  CUBEPROP_FILEPATH           => .                
  CUBEPROP_ORBITALS           => [  ]             
  CUBEPROP_TASKS              => [  ]             
  CUBIC_BASIS_TOLERANCE       => 1e-12            
  CUBIC_BLOCK_MAX_POINTS      => 1000             
  CUBIC_GRID_OVERAGE          => [  ]             
  CUBIC_GRID_SPACING          => [  ]             
  CUTOFF                      => 8                
  DEBUG                       => 0                
  DERTYPE                     => NONE             
  DF_BASIS_CC                 => (empty)          
  DIE_IF_NOT_CONVERGED        => TRUE             
  DKH_ORDER                   => 2                
  DOCC                        => [  ]             
  DO_DIIS                     => TRUE             
  DO_LEVEL_SHIFT              => TRUE             
  DO_SCS                      => FALSE           !
  DO_SOS                      => FALSE           !
  E3_SCALE                    => 0.25             
  EKT_IP                      => FALSE            
  EXTERNAL_POTENTIAL_SYMMETRY => FALSE            
  E_CONVERGENCE               => 1e-08           !
  FREEZE_CORE                 => TRUE            !
  FROZEN_DOCC                 => [  ]             
  FROZEN_UOCC                 => [  ]             
  HESS_TYPE                   => HF               
  INTEGRAL_CUTOFF             => 9                
  INTEGRAL_PACKAGE            => ERD              
  LEVEL_SHIFT                 => 0.02             
  LINEQ_SOLVER                => CDGESV           
  LITERAL_CFOUR               => (empty)          
  MAT_NUM_COLUMN_PRINT        => 5                
  MAX_MOGRAD_CONVERGENCE      => 0.001            
  MOLDEN_WRITE                => FALSE            
  MO_DIIS_NUM_VECS            => 6                
  MO_MAXITER                  => 50               
  MO_STEP_MAX                 => 0.5              
  MP2_AMP_TYPE                => DIRECT           
  MP2_OS_SCALE                => 1.2              
  MP2_SOS_SCALE               => 1.3              
  MP2_SOS_SCALE2              => 1.2              
  MP2_SS_SCALE                => 0.333333         
  MP2_TYPE                    => DF              !
  MP_TYPE                     => CONV             
  NAT_ORBS                    => FALSE            
  NUM_FROZEN_DOCC             => 0                
  NUM_FROZEN_UOCC             => 0                
  OCC_ORBS_PRINT              => FALSE            
  OEPROP                      => FALSE            
  OO_SCALE                    => 0.01             
  OPT_METHOD                  => QNR              
  ORB_OPT                     => FALSE           !
  ORB_RESP_SOLVER             => PCG              
  ORTH_TYPE                   => MGS              
  PCG_BETA_TYPE               => FLETCHER_REEVES  
  PCG_CONVERGENCE             => 1e-06            
  PCG_MAXITER                 => 50               
  PCM                         => FALSE            
  PCM_SCF_TYPE                => TOTAL            
  PRINT                       => 1                
  PRINT_NOONS                 => 3                
  PROPERTIES                  => [  ]             
  PROPERTIES_ORIGIN           => [  ]             
  PUREAM                      => TRUE             
  QCHF                        => FALSE            
  QC_MODULE                   => OCC             !
  RAS1                        => [  ]             
  RAS2                        => [  ]             
  RAS3                        => [  ]             
  RAS4                        => [  ]             
  READ_SCF_3INDEX             => TRUE             
  REGULARIZATION              => FALSE            
  REG_PARAM                   => 0.4              
  RELATIVISTIC                => NO               
  REL_BASIS                   => (empty)          
  RESTRICTED_DOCC             => [  ]             
  RESTRICTED_UOCC             => [  ]             
  RMS_MOGRAD_CONVERGENCE      => 1e-06            
  RUN_CCTRANSORT              => TRUE             
  R_CONVERGENCE               => 1e-05            
  SCS_TYPE                    => SCS              
  SOCC                        => [  ]             
  SOS_TYPE                    => SOS              
  TRIPLES_IABC_TYPE           => DISK             
  UNITS                       => ANGSTROMS        
  WABEF_TYPE                  => AUTO             
  WFN                         => SCF              
  WFN_TYPE                    => DF-OMP2         !
  WRITER_FILE_LABEL           => (empty)          


 ============================================================================== 
 ============================================================================== 
 ============================================================================== 

                       DF-MP2   
              Program Written by Ugur Bozkaya
              Latest Revision February 19, 2016

 ============================================================================== 
 ============================================================================== 
 ============================================================================== 

	MO spaces... 

	 FC   OCC   VIR   FV 
	----------------------
	  1    4    14    0
	Number of basis functions in the DF-CC basis:  70

	Available memory                      :    244.14 MB 
	Minimum required memory for amplitudes:      0.11 MB 
	Memory requirement for B-CC (Q|mu nu) :      0.19 MB 
	Memory requirement for B-CC (Q|ab)    :      0.10 MB 
	Memory requirement for DF-CC int trans:      0.44 MB 

	Computing DF-MP2 energy using SCF MOs (Canonical DF-MP2)... 
	======================================================================= 
	Nuclear Repulsion Energy (a.u.)    :     5.19366944090513
	DF-HF Energy (a.u.)                :  -100.01940060562818
	REF Energy (a.u.)                  :  -100.01940060562818
	DF-MP2 Correlation Energy (a.u.)   :    -0.20161065846040
	DF-MP2 Total Energy (a.u.)         :  -100.22101126408857
	======================================================================= 

*** tstop() called on ds4 at Sun Feb 21 02:41:45 2016
Module time:
	user time   =       0.12 seconds =       0.00 minutes
	system time =       0.00 seconds =       0.00 minutes
	total time  =          0 seconds =       0.00 minutes
Total time:
	user time   =       2.11 seconds =       0.04 minutes
	system time =       0.21 seconds =       0.00 minutes
	total time  =          5 seconds =       0.08 minutes


  Variable Map:
  ----------------------------------------------------------------------------
  "CURRENT CORRELATION ENERGY"           =>      -0.201610658460
  "CURRENT DIPOLE X"                     =>      -0.000000020827
  "CURRENT DIPOLE Y"                     =>       0.000000000000
  "CURRENT DIPOLE Z"                     =>      -1.949924627468
  "CURRENT ENERGY"                       =>    -100.221011264089
  "CURRENT REFERENCE ENERGY"             =>    -100.019400605628
  "HF TOTAL ENERGY"                      =>    -100.019400605628
  "MP2 CORRELATION ENERGY"               =>      -0.201610658460
  "MP2 OPPOSITE-SPIN CORRELATION ENERGY" =>       0.000000034025
  "MP2 SAME-SPIN CORRELATION ENERGY"     =>      -0.000000162208
  "MP2 TOTAL ENERGY"                     =>    -100.221011264089
  "NUCLEAR REPULSION ENERGY"             =>       5.193669440905
  "ONE-ELECTRON ENERGY"                  =>    -150.693019782891
  "SCF DIPOLE X"                         =>      -0.000000020827
  "SCF DIPOLE Y"                         =>       0.000000000000
  "SCF DIPOLE Z"                         =>      -1.949924627468
  "SCF ITERATION ENERGY"                 =>    -100.019400605628
  "SCF TOTAL ENERGY"                     =>    -100.019400605628
  "SCS-MP2 CORRELATION ENERGY"           =>     100.011234021552
  "SCS-MP2 TOTAL ENERGY"                 =>      -0.008166584076
  "SCSN-MP2 CORRELATION ENERGY"          =>     100.019400605628
  "SCSN-MP2 TOTAL ENERGY"                =>      -0.000000000000
  "SOS-MP2 CORRELATION ENERGY"           =>     100.019400605628
  "SOS-MP2 TOTAL ENERGY"                 =>      -0.000000000000
  "TWO-ELECTRON ENERGY"                  =>      45.479949736358


	mp2 rhf df: 2 occ.................................................PASSED
	mp2 rhf df: 2 occ.................................................PASSED
	mp2 rhf df: 2 occ.................................................PASSED
	mp2 rhf df: 2 occ.................................................PASSED

*** tstart() called on ds4
*** at Sun Feb 21 02:41:45 2016


         ---------------------------------------------------------
                                   SCF
            by Justin Turney, Rob Parrish, and Andy Simmonett
                              RHF Reference
                        1 Threads,    256 MiB Core
         ---------------------------------------------------------

  ==> Geometry <==

    Molecular point group: c2v
    Full point group: C_inf_v

    Geometry (in Angstrom), charge = 0, multiplicity = 1:

       Center              X                  Y                   Z               Mass       
    ------------   -----------------  -----------------  -----------------  -----------------
           H          0.000000000000     0.000000000000    -0.870805607805     1.007825032070
           F          0.000000000000     0.000000000000     0.046194392195    18.998403224000

  Running in c2v symmetry.

  Rotational constants: A = ************  B =     20.94695  C =     20.94695 [cm^-1]
  Rotational constants: A = ************  B = 627973.76742  C = 627973.76742 [MHz]
  Nuclear repulsion =    5.193669440905126

  Charge       = 0
  Multiplicity = 1
  Electrons    = 10
  Nalpha       = 5
  Nbeta        = 5

  ==> Algorithm <==

  SCF Algorithm Type is DF.
  DIIS enabled.
  MOM disabled.
  Fractional occupation disabled.
  Guess Type is SAD.
  Energy threshold   = 1.00e-08
  Density threshold  = 1.00e-07
  Integral threshold = 0.00e+00

  ==> Primary Basis <==

  Basis Set: CC-PVDZ
    Number of shells: 9
    Number of basis function: 19
    Number of Cartesian functions: 20
    Spherical Harmonics?: true
    Max angular momentum: 2

  ==> Pre-Iterations <==

   -------------------------------------------------------
    Irrep   Nso     Nmo     Nalpha   Nbeta   Ndocc  Nsocc
   -------------------------------------------------------
     A1        10      10       0       0       0       0
     A2         1       1       0       0       0       0
     B1         4       4       0       0       0       0
     B2         4       4       0       0       0       0
   -------------------------------------------------------
    Total      19      19       5       5       5       0
   -------------------------------------------------------

  ==> Integral Setup <==

  ==> DFJK: Density-Fitted J/K Matrices <==

    J tasked:                  Yes
    K tasked:                  Yes
    wK tasked:                  No
    OpenMP threads:              1
    Integrals threads:           1
    Memory (MB):               183
    Algorithm:                Core
    Integral Cache:           NONE
    Schwarz Cutoff:          1E-12
    Fitting Condition:       1E-12

   => Auxiliary Basis Set <=

  Basis Set: 
    Number of shells: 33
    Number of basis function: 93
    Number of Cartesian functions: 106
    Spherical Harmonics?: true
    Max angular momentum: 3

  Minimum eigenvalue in the overlap matrix is 4.9118010066E-02.
  Using Symmetric Orthogonalization.
  SCF Guess: Superposition of Atomic Densities via on-the-fly atomic UHF.

  ==> Iterations <==

                           Total Energy        Delta E     RMS |[F,P]|

   @DF-RHF iter   0:   -99.86411834595259   -9.98641e+01   1.02468e-01 
   @DF-RHF iter   1:   -99.99866289683536   -1.34545e-01   2.07797e-02 
   @DF-RHF iter   2:  -100.01550404198291   -1.68411e-02   1.00586e-02 DIIS
   @DF-RHF iter   3:  -100.01930341243830   -3.79937e-03   1.18234e-03 DIIS
   @DF-RHF iter   4:  -100.01939265164796   -8.92392e-05   2.94585e-04 DIIS
   @DF-RHF iter   5:  -100.01940029693299   -7.64529e-06   4.95349e-05 DIIS
   @DF-RHF iter   6:  -100.01940059850921   -3.01576e-07   7.17440e-06 DIIS
   @DF-RHF iter   7:  -100.01940060553146   -7.02225e-09   9.00706e-07 DIIS
   @DF-RHF iter   8:  -100.01940060562723   -9.57669e-11   1.33398e-07 DIIS
   @DF-RHF iter   9:  -100.01940060562900   -1.77636e-12   1.04689e-08 DIIS

  ==> Post-Iterations <==

    Orbital Energies (a.u.)
    -----------------------

    Doubly Occupied:                                                      

       1A1   -26.278131     2A1    -1.583457     3A1    -0.747199  
       1B1    -0.628887     1B2    -0.628887  

    Virtual:                                                              

       4A1     0.183841     5A1     0.810057     2B1     1.412047  
       2B2     1.412047     6A1     1.415770     3B1     1.604670  
       3B2     1.604670     7A1     2.134266     8A1     2.499125  
       9A1     4.004800     1A2     4.004800     4B1     4.280975  
       4B2     4.280975    10A1     5.056529  

    Final Occupation by Irrep:
             A1    A2    B1    B2 
    DOCC [     3,    0,    1,    1 ]

  Energy converged.

  @DF-RHF Final Energy:  -100.01940060562900

   => Energetics <=

    Nuclear Repulsion Energy =              5.1936694409051256
    One-Electron Energy =                -150.6930204950769792
    Two-Electron Energy =                  45.4799504485428585
    DFT Exchange-Correlation Energy =       0.0000000000000000
    Empirical Dispersion Energy =           0.0000000000000000
    PCM Polarization Energy =               0.0000000000000000
    EFP Energy =                            0.0000000000000000
    Total Energy =                       -100.0194006056289879

    Alert: EFP and PCM quantities not currently incorporated into SCF psivars.

Properties will be evaluated at   0.000000,   0.000000,   0.000000 Bohr
  ==> Properties <==


Properties computed using the SCF density matrix

  Nuclear Dipole Moment: (a.u.)
     X:     0.0000      Y:     0.0000      Z:    -0.8599

  Electronic Dipole Moment: (a.u.)
     X:     0.0000      Y:     0.0000      Z:     0.0928

  Dipole Moment: (a.u.)
     X:     0.0000      Y:     0.0000      Z:    -0.7672     Total:     0.7672

  Dipole Moment: (Debye)
     X:     0.0000      Y:     0.0000      Z:    -1.9499     Total:     1.9499


  Saving occupied orbitals to File 180.

*** tstop() called on ds4 at Sun Feb 21 02:41:46 2016
Module time:
	user time   =       0.42 seconds =       0.01 minutes
	system time =       0.00 seconds =       0.00 minutes
	total time  =          1 seconds =       0.02 minutes
Total time:
	user time   =       2.58 seconds =       0.04 minutes
	system time =       0.22 seconds =       0.00 minutes
	total time  =          6 seconds =       0.10 minutes

  //>>>>>>>>>>>>>>>>>>>>>>>>>>>>>>>>>>>//
  //               DFMP2               //
  //<<<<<<<<<<<<<<<<<<<<<<<<<<<<<<<<<<<//


*** tstart() called on ds4
*** at Sun Feb 21 02:41:46 2016


*** tstop() called on ds4 at Sun Feb 21 02:41:46 2016
Module time:
	user time   =       0.03 seconds =       0.00 minutes
	system time =       0.00 seconds =       0.00 minutes
	total time  =          0 seconds =       0.00 minutes
Total time:
	user time   =       2.62 seconds =       0.04 minutes
	system time =       0.22 seconds =       0.00 minutes
	total time  =          6 seconds =       0.10 minutes
	 --------------------------------------------------------
	                          DF-MP2                         
	      2nd-Order Density-Fitted Moller-Plesset Theory     
	              RMP2 Wavefunction,   1 Threads             
	                                                         
	        Rob Parrish, Justin Turney, Andy Simmonett,      
	           Ed Hohenstein, and C. David Sherrill          
	 --------------------------------------------------------

   => Auxiliary Basis Set <=

  Basis Set: 
    Number of shells: 24
    Number of basis function: 70
    Number of Cartesian functions: 81
    Spherical Harmonics?: true
    Max angular momentum: 3

	 --------------------------------------------------------
	                 NBF =    19, NAUX =    70
	 --------------------------------------------------------
	   CLASS    FOCC     OCC    AOCC    AVIR     VIR    FVIR
	   PAIRS       1       5       4      14      14       0
	 --------------------------------------------------------

	----------------------------------------------------------
	 ==================> DF-MP2 Energies <=================== 
	----------------------------------------------------------
	 Reference Energy          =    -100.0194006056290021 [H]
	 Singles Energy            =      -0.0000000000000009 [H]
	 Same-Spin Energy          =      -0.0535212489195735 [H]
	 Opposite-Spin Energy      =      -0.1480894114671103 [H]
	 Correlation Energy        =      -0.2016106603866847 [H]
	 Total Energy              =    -100.2210112660156938 [H]
	----------------------------------------------------------
	 ================> DF-SCS-MP2 Energies <================= 
	----------------------------------------------------------
	 SCS Same-Spin Scale       =       0.3333333333333333 [-]
	 SCS Opposite-Spin Scale   =       1.2000000000000000 [-]
	 SCS Same-Spin Energy      =      -0.0178404163065245 [H]
	 SCS Opposite-Spin Energy  =      -0.1777072937605323 [H]
	 SCS Correlation Energy    =      -0.1955477100670577 [H]
	 SCS Total Energy          =    -100.2149483156960628 [H]
	----------------------------------------------------------

	mp2 rhf df: 2 dfmp2*..............................................PASSED
	mp2 rhf df: 2 dfmp2*..............................................PASSED
	mp2 rhf df: 2 dfmp2*..............................................PASSED
	mp2 rhf df: 2 dfmp2*..............................................PASSED
  A requested method does not make use of molecular symmetry: further calculations in C1 point group.

*** tstart() called on ds4
*** at Sun Feb 21 02:41:47 2016


         ---------------------------------------------------------
                                   SCF
            by Justin Turney, Rob Parrish, and Andy Simmonett
                              RHF Reference
                        1 Threads,    256 MiB Core
         ---------------------------------------------------------

  ==> Geometry <==

    Molecular point group: c1
    Full point group: C_inf_v

    Geometry (in Angstrom), charge = 0, multiplicity = 1:

       Center              X                  Y                   Z               Mass       
    ------------   -----------------  -----------------  -----------------  -----------------
           H          0.000000000000     0.000000000000    -0.870805607805     1.007825032070
           F          0.000000000000     0.000000000000     0.046194392195    18.998403224000

  Running in c1 symmetry.

  Rotational constants: A = ************  B =     20.94695  C =     20.94695 [cm^-1]
  Rotational constants: A = ************  B = 627973.76742  C = 627973.76742 [MHz]
  Nuclear repulsion =    5.193669440905126

  Charge       = 0
  Multiplicity = 1
  Electrons    = 10
  Nalpha       = 5
  Nbeta        = 5

  ==> Algorithm <==

  SCF Algorithm Type is DF.
  DIIS enabled.
  MOM disabled.
  Fractional occupation disabled.
  Guess Type is SAD.
  Energy threshold   = 1.00e-08
  Density threshold  = 1.00e-07
  Integral threshold = 0.00e+00

  ==> Primary Basis <==

  Basis Set: CC-PVDZ
    Number of shells: 9
    Number of basis function: 19
    Number of Cartesian functions: 20
    Spherical Harmonics?: true
    Max angular momentum: 2

  ==> Pre-Iterations <==

   -------------------------------------------------------
    Irrep   Nso     Nmo     Nalpha   Nbeta   Ndocc  Nsocc
   -------------------------------------------------------
     A         19      19       0       0       0       0
   -------------------------------------------------------
    Total      19      19       5       5       5       0
   -------------------------------------------------------

  ==> Integral Setup <==

  ==> DFJK: Density-Fitted J/K Matrices <==

    J tasked:                  Yes
    K tasked:                  Yes
    wK tasked:                  No
    OpenMP threads:              1
    Integrals threads:           1
    Memory (MB):               183
    Algorithm:                Core
    Integral Cache:           SAVE
    Schwarz Cutoff:          1E-12
    Fitting Condition:       1E-12

   => Auxiliary Basis Set <=

  Basis Set: 
    Number of shells: 33
    Number of basis function: 93
    Number of Cartesian functions: 106
    Spherical Harmonics?: true
    Max angular momentum: 3

  Minimum eigenvalue in the overlap matrix is 4.9118010066E-02.
  Using Symmetric Orthogonalization.
  SCF Guess: Superposition of Atomic Densities via on-the-fly atomic UHF.

  ==> Iterations <==

                           Total Energy        Delta E     RMS |[F,P]|

   @DF-RHF iter   0:   -99.94810704316859   -9.99481e+01   6.24980e-02 
   @DF-RHF iter   1:   -99.99585762276983   -4.77506e-02   1.22680e-02 
   @DF-RHF iter   2:  -100.01491524659190   -1.90576e-02   5.63510e-03 DIIS
   @DF-RHF iter   3:  -100.01874651177621   -3.83127e-03   1.31197e-03 DIIS
   @DF-RHF iter   4:  -100.01930710603938   -5.60594e-04   4.25599e-04 DIIS
   @DF-RHF iter   5:  -100.01939601107614   -8.89050e-05   8.97716e-05 DIIS
   @DF-RHF iter   6:  -100.01940053510204   -4.52403e-06   1.26801e-05 DIIS
   @DF-RHF iter   7:  -100.01940060501073   -6.99087e-08   1.36645e-06 DIIS
   @DF-RHF iter   8:  -100.01940060561084   -6.00110e-10   2.41983e-07 DIIS
   @DF-RHF iter   9:  -100.01940060562818   -1.73372e-11   3.61657e-08 DIIS

  ==> Post-Iterations <==

    Orbital Energies (a.u.)
    -----------------------

    Doubly Occupied:                                                      

       1A    -26.278131     2A     -1.583457     3A     -0.747199  
       4A     -0.628887     5A     -0.628887  

    Virtual:                                                              

       6A      0.183841     7A      0.810057     8A      1.412047  
       9A      1.412047    10A      1.415770    11A      1.604670  
      12A      1.604670    13A      2.134266    14A      2.499125  
      15A      4.004800    16A      4.004800    17A      4.280975  
      18A      4.280975    19A      5.056528  

    Final Occupation by Irrep:
              A 
    DOCC [     5 ]

  Energy converged.

  @DF-RHF Final Energy:  -100.01940060562818

   => Energetics <=

    Nuclear Repulsion Energy =              5.1936694409051256
    One-Electron Energy =                -150.6930197828912981
    Two-Electron Energy =                  45.4799497363579661
    DFT Exchange-Correlation Energy =       0.0000000000000000
    Empirical Dispersion Energy =           0.0000000000000000
    PCM Polarization Energy =               0.0000000000000000
    EFP Energy =                            0.0000000000000000
    Total Energy =                       -100.0194006056282063

    Alert: EFP and PCM quantities not currently incorporated into SCF psivars.

Properties will be evaluated at   0.000000,   0.000000,   0.000000 Bohr
  ==> Properties <==


Properties computed using the SCF density matrix

  Nuclear Dipole Moment: (a.u.)
     X:     0.0000      Y:     0.0000      Z:    -0.8599

  Electronic Dipole Moment: (a.u.)
     X:    -0.0000      Y:     0.0000      Z:     0.0928

  Dipole Moment: (a.u.)
     X:    -0.0000      Y:     0.0000      Z:    -0.7672     Total:     0.7672

  Dipole Moment: (Debye)
     X:    -0.0000      Y:     0.0000      Z:    -1.9499     Total:     1.9499


  Saving occupied orbitals to File 180.

*** tstop() called on ds4 at Sun Feb 21 02:41:48 2016
Module time:
	user time   =       0.41 seconds =       0.01 minutes
	system time =       0.02 seconds =       0.00 minutes
	total time  =          1 seconds =       0.02 minutes
Total time:
	user time   =       3.14 seconds =       0.05 minutes
	system time =       0.24 seconds =       0.00 minutes
	total time  =          8 seconds =       0.13 minutes

*** tstart() called on ds4
*** at Sun Feb 21 02:41:48 2016



  Options:
  ----------------------------------------------------------------------------
  ACTIVE                      => [  ]             
  BENCH                       => 0                
  CC_DIIS_MAX_VECS            => 6                
  CC_DIIS_MIN_VECS            => 2                
  CC_LAMBDA                   => FALSE            
  CC_MAXITER                  => 50               
  CC_TYPE                     => CONV             
  CEPA_TYPE                   => CONV             
  CHOLESKY                    => TRUE            !
  CHOLESKY_TOLERANCE          => 0.0001           
  CI_TYPE                     => CONV             
  COMPUT_S2                   => FALSE            
  CUBEPROP_BASIS_FUNCTIONS    => [  ]             
  CUBEPROP_FILEPATH           => .                
  CUBEPROP_ORBITALS           => [  ]             
  CUBEPROP_TASKS              => [  ]             
  CUBIC_BASIS_TOLERANCE       => 1e-12            
  CUBIC_BLOCK_MAX_POINTS      => 1000             
  CUBIC_GRID_OVERAGE          => [  ]             
  CUBIC_GRID_SPACING          => [  ]             
  CUTOFF                      => 8                
  DEBUG                       => 0                
  DERTYPE                     => NONE             
  DF_BASIS_CC                 => (empty)          
  DIE_IF_NOT_CONVERGED        => TRUE             
  DKH_ORDER                   => 2                
  DOCC                        => [  ]             
  DO_DIIS                     => TRUE             
  DO_LEVEL_SHIFT              => TRUE             
  DO_SCS                      => FALSE           !
  DO_SOS                      => FALSE           !
  E3_SCALE                    => 0.25             
  EKT_IP                      => FALSE            
  EXTERNAL_POTENTIAL_SYMMETRY => FALSE            
  E_CONVERGENCE               => 1e-08           !
  FREEZE_CORE                 => TRUE            !
  FROZEN_DOCC                 => [  ]             
  FROZEN_UOCC                 => [  ]             
  HESS_TYPE                   => HF               
  INTEGRAL_CUTOFF             => 9                
  INTEGRAL_PACKAGE            => ERD              
  LEVEL_SHIFT                 => 0.02             
  LINEQ_SOLVER                => CDGESV           
  LITERAL_CFOUR               => (empty)          
  MAT_NUM_COLUMN_PRINT        => 5                
  MAX_MOGRAD_CONVERGENCE      => 0.001            
  MOLDEN_WRITE                => FALSE            
  MO_DIIS_NUM_VECS            => 6                
  MO_MAXITER                  => 50               
  MO_STEP_MAX                 => 0.5              
  MP2_AMP_TYPE                => DIRECT           
  MP2_OS_SCALE                => 1.2              
  MP2_SOS_SCALE               => 1.3              
  MP2_SOS_SCALE2              => 1.2              
  MP2_SS_SCALE                => 0.333333         
  MP2_TYPE                    => CD              !
  MP_TYPE                     => CONV             
  NAT_ORBS                    => FALSE            
  NUM_FROZEN_DOCC             => 0                
  NUM_FROZEN_UOCC             => 0                
  OCC_ORBS_PRINT              => FALSE            
  OEPROP                      => FALSE            
  OO_SCALE                    => 0.01             
  OPT_METHOD                  => QNR              
  ORB_OPT                     => FALSE           !
  ORB_RESP_SOLVER             => PCG              
  ORTH_TYPE                   => MGS              
  PCG_BETA_TYPE               => FLETCHER_REEVES  
  PCG_CONVERGENCE             => 1e-06            
  PCG_MAXITER                 => 50               
  PCM                         => FALSE            
  PCM_SCF_TYPE                => TOTAL            
  PRINT                       => 1                
  PRINT_NOONS                 => 3                
  PROPERTIES                  => [  ]             
  PROPERTIES_ORIGIN           => [  ]             
  PUREAM                      => TRUE             
  QCHF                        => FALSE            
  QC_MODULE                   => OCC             !
  RAS1                        => [  ]             
  RAS2                        => [  ]             
  RAS3                        => [  ]             
  RAS4                        => [  ]             
  READ_SCF_3INDEX             => TRUE             
  REGULARIZATION              => FALSE            
  REG_PARAM                   => 0.4              
  RELATIVISTIC                => NO               
  REL_BASIS                   => (empty)          
  RESTRICTED_DOCC             => [  ]             
  RESTRICTED_UOCC             => [  ]             
  RMS_MOGRAD_CONVERGENCE      => 1e-06            
  RUN_CCTRANSORT              => TRUE             
  R_CONVERGENCE               => 1e-05            
  SCS_TYPE                    => SCS              
  SOCC                        => [  ]             
  SOS_TYPE                    => SOS              
  TRIPLES_IABC_TYPE           => DISK             
  UNITS                       => ANGSTROMS        
  WABEF_TYPE                  => AUTO             
  WFN                         => SCF              
  WFN_TYPE                    => DF-OMP2         !
  WRITER_FILE_LABEL           => (empty)          


 ============================================================================== 
 ============================================================================== 
 ============================================================================== 

                       CD-MP2   
              Program Written by Ugur Bozkaya
              Latest Revision February 19, 2016

 ============================================================================== 
 ============================================================================== 
 ============================================================================== 

	MO spaces... 

	 FC   OCC   VIR   FV 
	----------------------
	  1    4    14    0
	Generating Cholesky vectors ...
	Cholesky decomposition threshold: 1.00e-04
	Number of Cholesky vectors:      98

	Computing CD-MP2 energy using SCF MOs (Canonical CD-MP2)... 
	======================================================================= 
	Nuclear Repulsion Energy (a.u.)    :     5.19366944090513
	CD-HF Energy (a.u.)                :  -100.01940060562818
	REF Energy (a.u.)                  :  -100.01940060562818
	CD-MP2 Correlation Energy (a.u.)   :    -0.20160939675243
	CD-MP2 Total Energy (a.u.)         :  -100.22101000238061
	======================================================================= 

*** tstop() called on ds4 at Sun Feb 21 02:41:48 2016
Module time:
	user time   =       0.10 seconds =       0.00 minutes
	system time =       0.01 seconds =       0.00 minutes
	total time  =          0 seconds =       0.00 minutes
Total time:
	user time   =       3.24 seconds =       0.05 minutes
	system time =       0.25 seconds =       0.00 minutes
	total time  =          8 seconds =       0.13 minutes
	mp2 rhf cd: 1 occ*................................................PASSED
	mp2 rhf cd: 1 occ*................................................PASSED
	mp2 rhf cd: 1 occ*................................................PASSED
	mp2 rhf cd: 1 occ*................................................PASSED

*** tstart() called on ds4
*** at Sun Feb 21 02:41:48 2016


         ---------------------------------------------------------
                                   SCF
            by Justin Turney, Rob Parrish, and Andy Simmonett
                              UHF Reference
                        1 Threads,    256 MiB Core
         ---------------------------------------------------------

  ==> Geometry <==

    Molecular point group: c2v
    Full point group: C2v

[...]

	Available memory                      :    244.14 MB 
	Minimum required memory for amplitudes:      0.11 MB 
	Memory requirement for B-CC (Q|mu nu) :      0.19 MB 
	Memory requirement for B-CC (Q|ab)    :      0.10 MB 
	Memory requirement for DF-CC int trans:      0.44 MB 

	Computing DF-MP2 energy using SCF MOs (Canonical DF-MP2)... 
	======================================================================= 
	Nuclear Repulsion Energy (a.u.)    :     5.19366944090513
	DF-HF Energy (a.u.)                :  -100.01940060562818
	REF Energy (a.u.)                  :  -100.01940060562818
	DF-MP2 Correlation Energy (a.u.)   :    -0.20161066014798
	DF-MP2 Total Energy (a.u.)         :  -100.22101126577616
	======================================================================= 

	Computing unrelaxed response density matrices...

	Forming independent-pairs...
	Number of independent-pairs:  70
	Computing the generalized Fock matrix (GFM)...
	Computing the orbital gradient...
	Forming effective orbital gradient...
	Solving orbital Z-vector equations...

	            PCG Solver 
	   ------------------------------ 
	Iter     RMS Z Vector        RMS Residual  
	----    ---------------    ---------------
	  1         2.61e-04         4.72e-04
	  2         1.21e-04         4.38e-05
	  3         1.39e-05         6.91e-06
	  4         2.02e-06         1.80e-06
	  5         4.88e-07         2.25e-07

	Computing the relaxed PDMs and GFM...

*** tstop() called on ds4 at Sun Feb 21 02:42:04 2016
Module time:
	user time   =       0.22 seconds =       0.00 minutes
	system time =       0.03 seconds =       0.00 minutes
	total time  =          1 seconds =       0.02 minutes
Total time:
	user time   =      10.35 seconds =       0.17 minutes
	system time =       0.61 seconds =       0.01 minutes
	total time  =         24 seconds =       0.40 minutes

*** tstart() called on ds4
*** at Sun Feb 21 02:42:04 2016


 ============================================================================== 
 ============================================================================== 
 ============================================================================== 

                         DFGRAD   
            A General Analytic Gradients Code   
               for Density-Fitted Methods       
                   by Ugur Bozkaya
              Latest Revision October 7, 2015

 ============================================================================== 
 ============================================================================== 
 ============================================================================== 

	Analytic gradients computation is starting...
	Forming Gamma^tilde...
	Backtransforming OPDM, TPDM, and GFM to the AO basis...
	Computing analytic gradients...

  -Nuclear Gradient:
     Atom            X                  Y                   Z
    ------   -----------------  -----------------  -----------------
       1        0.000000000000     0.000000000000     2.997133584599
       2        0.000000000000     0.000000000000    -2.997133584599


  -Kinetic Gradient:
     Atom            X                  Y                   Z
    ------   -----------------  -----------------  -----------------
       1        0.000000001029    -0.000000000000     0.857994921657
       2       -0.000000001029     0.000000000000    -0.857994921657


  -Potential Gradient:
     Atom            X                  Y                   Z
    ------   -----------------  -----------------  -----------------
       1       -0.000000010037     0.000000000000    -8.070189696174
       2        0.000000010037    -0.000000000000     8.070189696174


  -Overlap Gradient:
     Atom            X                  Y                   Z
    ------   -----------------  -----------------  -----------------
       1       -0.000000001403    -0.000000000000     0.455145779706
       2        0.000000001403     0.000000000000    -0.455145779706


  -One-Electron Gradient:
     Atom            X                  Y                   Z
    ------   -----------------  -----------------  -----------------
       1       -0.000000009008     0.000000000000    -7.212194774517
       2        0.000000009008    -0.000000000000     7.212194774517


  -Two-Electron Gradient:
     Atom            X                  Y                   Z
    ------   -----------------  -----------------  -----------------
       1        0.000000010042    -0.000000000000     3.763062658780
       2       -0.000000010042     0.000000000000    -3.763062658780


  -Total Gradient:
     Atom            X                  Y                   Z
    ------   -----------------  -----------------  -----------------
       1       -0.000000000369     0.000000000000     0.003147248568
       2        0.000000000369    -0.000000000000    -0.003147248568


*** tstop() called on ds4 at Sun Feb 21 02:42:04 2016
Module time:
	user time   =       0.27 seconds =       0.00 minutes
	system time =       0.01 seconds =       0.00 minutes
	total time  =          0 seconds =       0.00 minutes
Total time:
	user time   =      10.62 seconds =       0.18 minutes
	system time =       0.62 seconds =       0.01 minutes
	total time  =         24 seconds =       0.40 minutes


  Variable Map:
  ----------------------------------------------------------------------------
  "CURRENT CORRELATION ENERGY"           =>      -0.201610660148
  "CURRENT DIPOLE X"                     =>      -0.000000020827
  "CURRENT DIPOLE Y"                     =>       0.000000000000
  "CURRENT DIPOLE Z"                     =>      -1.949924627468
  "CURRENT ENERGY"                       =>    -100.221011265776
  "CURRENT REFERENCE ENERGY"             =>    -100.019400605628
  "HF TOTAL ENERGY"                      =>    -100.019400605628
  "MP2 CORRELATION ENERGY"               =>      -0.201610660148
  "MP2 OPPOSITE-SPIN CORRELATION ENERGY" =>       0.000000000000
  "MP2 SAME-SPIN CORRELATION ENERGY"     =>       0.009464022154
  "MP2 TOTAL ENERGY"                     =>    -100.221011265776
  "NUCLEAR REPULSION ENERGY"             =>       5.193669440905
  "ONE-ELECTRON ENERGY"                  =>    -150.693019782891
  "SCF DIPOLE X"                         =>      -0.000000020827
  "SCF DIPOLE Y"                         =>       0.000000000000
  "SCF DIPOLE Z"                         =>      -1.949924627468
  "SCF ITERATION ENERGY"                 =>    -100.019400605628
  "SCF TOTAL ENERGY"                     =>    -100.019400605628
  "SCS-MP2 CORRELATION ENERGY"           =>     100.019400605628
  "SCS-MP2 TOTAL ENERGY"                 =>      -0.000000000000
  "SCSN-MP2 CORRELATION ENERGY"          =>     100.019400605628
  "SCSN-MP2 TOTAL ENERGY"                =>      -0.000000000000
  "SOS-MP2 CORRELATION ENERGY"           =>     100.019400605628
  "SOS-MP2 TOTAL ENERGY"                 =>       0.000000000000
  "TWO-ELECTRON ENERGY"                  =>      45.479949736358


	mp2 grad rhf df: 2 occ............................................PASSED
	mp2 grad rhf df: 2 occ............................................PASSED
	mp2 grad rhf df: 2 occ............................................PASSED
	mp2 grad rhf df: 2 occ............................................PASSED
gradient() will perform analytic gradient computation.

*** tstart() called on ds4
*** at Sun Feb 21 02:42:04 2016


         ---------------------------------------------------------
                                   SCF
            by Justin Turney, Rob Parrish, and Andy Simmonett
                              RHF Reference
                        1 Threads,    256 MiB Core
         ---------------------------------------------------------

  ==> Geometry <==

    Molecular point group: c2v
    Full point group: C_inf_v

    Geometry (in Angstrom), charge = 0, multiplicity = 1:

       Center              X                  Y                   Z               Mass       
    ------------   -----------------  -----------------  -----------------  -----------------
           H          0.000000000000     0.000000000000    -0.870805607805     1.007825032070
           F          0.000000000000     0.000000000000     0.046194392195    18.998403224000

  Running in c2v symmetry.

  Rotational constants: A = ************  B =     20.94695  C =     20.94695 [cm^-1]
  Rotational constants: A = ************  B = 627973.76742  C = 627973.76742 [MHz]
  Nuclear repulsion =    5.193669440905126

  Charge       = 0
  Multiplicity = 1
  Electrons    = 10
  Nalpha       = 5
  Nbeta        = 5

  ==> Algorithm <==

  SCF Algorithm Type is DF.
  DIIS enabled.
  MOM disabled.
  Fractional occupation disabled.
  Guess Type is SAD.
  Energy threshold   = 1.00e-08
  Density threshold  = 1.00e-07
  Integral threshold = 0.00e+00

  ==> Primary Basis <==

  Basis Set: CC-PVDZ
    Number of shells: 9
    Number of basis function: 19
    Number of Cartesian functions: 20
    Spherical Harmonics?: true
    Max angular momentum: 2

  ==> Pre-Iterations <==

   -------------------------------------------------------
    Irrep   Nso     Nmo     Nalpha   Nbeta   Ndocc  Nsocc
   -------------------------------------------------------
     A1        10      10       0       0       0       0
     A2         1       1       0       0       0       0
     B1         4       4       0       0       0       0
     B2         4       4       0       0       0       0
   -------------------------------------------------------
    Total      19      19       5       5       5       0
   -------------------------------------------------------

  ==> Integral Setup <==

  ==> DFJK: Density-Fitted J/K Matrices <==

    J tasked:                  Yes
    K tasked:                  Yes
    wK tasked:                  No
    OpenMP threads:              1
    Integrals threads:           1
    Memory (MB):               183
    Algorithm:                Core
    Integral Cache:           NONE
    Schwarz Cutoff:          1E-12
    Fitting Condition:       1E-12

   => Auxiliary Basis Set <=

  Basis Set: 
    Number of shells: 33
    Number of basis function: 93
    Number of Cartesian functions: 106
    Spherical Harmonics?: true
    Max angular momentum: 3

  Minimum eigenvalue in the overlap matrix is 4.9118010066E-02.
  Using Symmetric Orthogonalization.
  SCF Guess: Superposition of Atomic Densities via on-the-fly atomic UHF.

  ==> Iterations <==

                           Total Energy        Delta E     RMS |[F,P]|

   @DF-RHF iter   0:   -99.86411834595259   -9.98641e+01   1.02468e-01 
   @DF-RHF iter   1:   -99.99866289683536   -1.34545e-01   2.07797e-02 
   @DF-RHF iter   2:  -100.01550404198291   -1.68411e-02   1.00586e-02 DIIS
   @DF-RHF iter   3:  -100.01930341243830   -3.79937e-03   1.18234e-03 DIIS
   @DF-RHF iter   4:  -100.01939265164796   -8.92392e-05   2.94585e-04 DIIS
   @DF-RHF iter   5:  -100.01940029693299   -7.64529e-06   4.95349e-05 DIIS
   @DF-RHF iter   6:  -100.01940059850921   -3.01576e-07   7.17440e-06 DIIS
   @DF-RHF iter   7:  -100.01940060553146   -7.02225e-09   9.00706e-07 DIIS
   @DF-RHF iter   8:  -100.01940060562723   -9.57669e-11   1.33398e-07 DIIS
   @DF-RHF iter   9:  -100.01940060562900   -1.77636e-12   1.04689e-08 DIIS

  ==> Post-Iterations <==

    Orbital Energies (a.u.)
    -----------------------

    Doubly Occupied:                                                      

       1A1   -26.278131     2A1    -1.583457     3A1    -0.747199  
       1B1    -0.628887     1B2    -0.628887  

    Virtual:                                                              

       4A1     0.183841     5A1     0.810057     2B1     1.412047  
       2B2     1.412047     6A1     1.415770     3B1     1.604670  
       3B2     1.604670     7A1     2.134266     8A1     2.499125  
       9A1     4.004800     1A2     4.004800     4B1     4.280975  
       4B2     4.280975    10A1     5.056529  

    Final Occupation by Irrep:
             A1    A2    B1    B2 
    DOCC [     3,    0,    1,    1 ]

  Energy converged.

  @DF-RHF Final Energy:  -100.01940060562900

   => Energetics <=

    Nuclear Repulsion Energy =              5.1936694409051256
    One-Electron Energy =                -150.6930204950769792
    Two-Electron Energy =                  45.4799504485428585
    DFT Exchange-Correlation Energy =       0.0000000000000000
    Empirical Dispersion Energy =           0.0000000000000000
    PCM Polarization Energy =               0.0000000000000000
    EFP Energy =                            0.0000000000000000
    Total Energy =                       -100.0194006056289879

    Alert: EFP and PCM quantities not currently incorporated into SCF psivars.

Properties will be evaluated at   0.000000,   0.000000,   0.000000 Bohr
  ==> Properties <==


Properties computed using the SCF density matrix

  Nuclear Dipole Moment: (a.u.)
     X:     0.0000      Y:     0.0000      Z:    -0.8599

  Electronic Dipole Moment: (a.u.)
     X:     0.0000      Y:     0.0000      Z:     0.0928

  Dipole Moment: (a.u.)
     X:     0.0000      Y:     0.0000      Z:    -0.7672     Total:     0.7672

  Dipole Moment: (Debye)
     X:     0.0000      Y:     0.0000      Z:    -1.9499     Total:     1.9499


  Saving occupied orbitals to File 180.

*** tstop() called on ds4 at Sun Feb 21 02:42:05 2016
Module time:
	user time   =       0.41 seconds =       0.01 minutes
	system time =       0.00 seconds =       0.00 minutes
	total time  =          1 seconds =       0.02 minutes
Total time:
	user time   =      11.08 seconds =       0.18 minutes
	system time =       0.62 seconds =       0.01 minutes
	total time  =         25 seconds =       0.42 minutes

  //>>>>>>>>>>>>>>>>>>>>>>>>>>>>>>>>>>>//
  //               DFMP2               //
  //<<<<<<<<<<<<<<<<<<<<<<<<<<<<<<<<<<<//


*** tstart() called on ds4
*** at Sun Feb 21 02:42:05 2016


*** tstop() called on ds4 at Sun Feb 21 02:42:05 2016
Module time:
	user time   =       0.03 seconds =       0.00 minutes
	system time =       0.00 seconds =       0.00 minutes
	total time  =          0 seconds =       0.00 minutes
Total time:
	user time   =      11.12 seconds =       0.19 minutes
	system time =       0.62 seconds =       0.01 minutes
	total time  =         25 seconds =       0.42 minutes
	 --------------------------------------------------------
	                          DF-MP2                         
	      2nd-Order Density-Fitted Moller-Plesset Theory     
	              RMP2 Wavefunction,   1 Threads             
	                                                         
	        Rob Parrish, Justin Turney, Andy Simmonett,      
	           Ed Hohenstein, and C. David Sherrill          
	 --------------------------------------------------------

   => Auxiliary Basis Set <=

  Basis Set: 
    Number of shells: 24
    Number of basis function: 70
    Number of Cartesian functions: 81
    Spherical Harmonics?: true
    Max angular momentum: 3

	 --------------------------------------------------------
	                 NBF =    19, NAUX =    70
	 --------------------------------------------------------
	   CLASS    FOCC     OCC    AOCC    AVIR     VIR    FVIR
	   PAIRS       1       5       4      14      14       0
	 --------------------------------------------------------

DGAS Warning! /src/lib/libfock/apps.cc:80 is not currently checking restricted

         ------------------------------------------------------------
                                     CPHF                           
                                  Rob Parrish                       
         ------------------------------------------------------------

  ==> Geometry <==

    Molecular point group: c2v
    Full point group: C_inf_v

    Geometry (in Angstrom), charge = 0, multiplicity = 1:

       Center              X                  Y                   Z               Mass       
    ------------   -----------------  -----------------  -----------------  -----------------
           H          0.000000000000     0.000000000000    -0.870805607805     1.007825032070
           F          0.000000000000     0.000000000000     0.046194392195    18.998403224000

  Nuclear repulsion =    5.193669440905126
  Reference energy  = -100.019400605629002

  ==> Basis Set <==

  Basis Set: CC-PVDZ
    Number of shells: 9
    Number of basis function: 19
    Number of Cartesian functions: 20
    Spherical Harmonics?: true
    Max angular momentum: 2

  ==> CGRSolver (by Rob Parrish) <==

   Number of roots    =         1
   Preconditioning    =    JACOBI
   Convergence cutoff =     1E-06
   Maximum iterations =       100

  ==> CPHFRHamiltonian (by Rob Parrish) <== 

  ==> DFJK: Density-Fitted J/K Matrices <==

    J tasked:                  Yes
    K tasked:                  Yes
    wK tasked:                  No
    OpenMP threads:              1
    Integrals threads:           1
    Memory (MB):               183
    Algorithm:                Core
    Integral Cache:           NONE
    Schwarz Cutoff:          1E-12
    Fitting Condition:       1E-12

   => Auxiliary Basis Set <=

  Basis Set: 
    Number of shells: 33
    Number of basis function: 93
    Number of Cartesian functions: 106
    Spherical Harmonics?: true
    Max angular momentum: 3

  ==> CPHF Iterations <==

  => Iterations <=

             Iter  Converged  Remaining    Residual
  CGR           1          0          1   7.412E-02
  CGR           2          0          1   6.865E-03
  CGR           3          0          1   1.085E-03
  CGR           4          0          1   2.817E-04
  CGR           5          0          1   3.536E-05
  CGR           6          0          1   2.395E-06
  CGR           7          1          0   1.800E-07

    CGRSolver converged.

  ==> DFCorrGrad: Density-Fitted Correlated Gradients <==

    OpenMP threads:              1
    Integrals threads:           1
    Memory (MB):               183
    Schwarz Cutoff:          0E+00
    Fitting Condition:       1E-12

   => Auxiliary Basis Set <=

  Basis Set: 
    Number of shells: 33
    Number of basis function: 93
    Number of Cartesian functions: 106
    Spherical Harmonics?: true
    Max angular momentum: 3

	----------------------------------------------------------
	 ==================> DF-MP2 Energies <=================== 
	----------------------------------------------------------
	 Reference Energy          =    -100.0194006056290021 [H]
	 Singles Energy            =      -0.0000000000000009 [H]
	 Same-Spin Energy          =      -0.0535212489195735 [H]
	 Opposite-Spin Energy      =      -0.1480894114671102 [H]
	 Correlation Energy        =      -0.2016106603866847 [H]
	 Total Energy              =    -100.2210112660156938 [H]
	----------------------------------------------------------
	 ================> DF-SCS-MP2 Energies <================= 
	----------------------------------------------------------
	 SCS Same-Spin Scale       =       0.3333333333333333 [-]
	 SCS Opposite-Spin Scale   =       1.2000000000000000 [-]
	 SCS Same-Spin Energy      =      -0.0178404163065245 [H]
	 SCS Opposite-Spin Energy  =      -0.1777072937605323 [H]
	 SCS Correlation Energy    =      -0.1955477100670577 [H]
	 SCS Total Energy          =    -100.2149483156960628 [H]
	----------------------------------------------------------


  -Total Gradient:
     Atom            X                  Y                   Z
    ------   -----------------  -----------------  -----------------
       1       -0.000000000000    -0.000000000000     0.003147166841
       2        0.000000000000     0.000000000000    -0.003147166841

	mp2 grad rhf df: 2 dfmp2*.........................................PASSED
	mp2 grad rhf df: 2 dfmp2*.........................................PASSED
	mp2 grad rhf df: 2 dfmp2*.........................................PASSED
	mp2 grad rhf df: 2 dfmp2*.........................................PASSED

*** PSI4 exiting successfully. Buy a developer a beer!
