
    -----------------------------------------------------------------------
          Psi4: An Open-Source Ab Initio Electronic Structure Package
                               Psi4 undefined 

                         Git: Rev {mcscf_semi} 567d193 dirty


    R. M. Parrish, L. A. Burns, D. G. A. Smith, A. C. Simmonett,
    A. E. DePrince III, E. G. Hohenstein, U. Bozkaya, A. Yu. Sokolov,
    R. Di Remigio, R. M. Richard, J. F. Gonthier, A. M. James,
    H. R. McAlexander, A. Kumar, M. Saitow, X. Wang, B. P. Pritchard,
    P. Verma, H. F. Schaefer III, K. Patkowski, R. A. King, E. F. Valeev,
    F. A. Evangelista, J. M. Turney, T. D. Crawford, and C. D. Sherrill,
    J. Chem. Theory Comput. in press (2017).
    (doi: 10.1021/acs.jctc.7b00174)

    -----------------------------------------------------------------------


    Psi4 started on: Monday, 29 May 2017 08:42PM

    Process ID:   5113
    PSIDATADIR: /Users/fevange/Source/psi4/objdir/stage/usr/local/psi4/share/psi4
    Memory:     500.0 MiB
    Threads:    1
    
  ==> Input File <==

--------------------------------------------------------------------------
#! 6-31G** H2O Test RASSCF Energy Point
#! will default to only singles and doubles in the active space

set {
  reference = rhf
  restricted_docc      [1, 0, 0, 0]
  ras1                 [2, 0, 1, 1]
  ras3                 [1, 0, 0, 1]
  restricted_uocc      [8, 2, 3, 5]
  mcscf_maxiter        80
  mcscf_type           df
  basis                6-31G**
  mcscf_r_convergence  5.e-6
  mcscf_diis_max_vecs  12
}


molecule mol {
   O
   H  1 1.00
   H  1 1.00 2 103.1
}


rasscf_energy = energy('RASSCF')

compare_values(-76.017259983350470, psi4.get_variable("SCF TOTAL ENERGY"), 6, "SCF Energy")  #TEST
compare_values(-76.073028564767768, rasscf_energy, 6, 'RASSCF Energy')  #TEST
--------------------------------------------------------------------------

*** tstart() called on CHE-FEVANGE-01I
*** at Mon May 29 20:42:17 2017

   => Loading Basis Set <=

    Name: 6-31G**
    Role: ORBITAL
    Keyword: BASIS
    atoms 1   entry O          line   141 file /Users/fevange/Source/psi4/objdir/stage/usr/local/psi4/share/psi4/basis/6-31gss.gbs 
    atoms 2-3 entry H          line    36 file /Users/fevange/Source/psi4/objdir/stage/usr/local/psi4/share/psi4/basis/6-31gss.gbs 

    There are an even number of electrons - assuming singlet.
    Specify the multiplicity in the molecule input block.


         ---------------------------------------------------------
                                   SCF
            by Justin Turney, Rob Parrish, Andy Simmonett
                             and Daniel Smith
                              RHF Reference
                        1 Threads,    500 MiB Core
         ---------------------------------------------------------

  ==> Geometry <==

    Molecular point group: c2v
    Full point group: C2v

    Geometry (in Angstrom), charge = 0, multiplicity = 1:

       Center              X                  Y                   Z               Mass       
    ------------   -----------------  -----------------  -----------------  -----------------
           O          0.000000000000     0.000000000000    -0.069592187390    15.994914619560
           H          0.000000000000    -0.783151105291     0.552239257844     1.007825032070
           H          0.000000000000     0.783151105291     0.552239257844     1.007825032070

  Running in c2v symmetry.

  Rotational constants: A =     24.35462  B =     13.63610  C =      8.74166 [cm^-1]
  Rotational constants: A = 730133.20983  B = 408800.03934  C = 262068.46197 [MHz]
  Nuclear repulsion =    8.804686618639057

  Charge       = 0
  Multiplicity = 1
  Electrons    = 10
  Nalpha       = 5
  Nbeta        = 5

  ==> Algorithm <==

  SCF Algorithm Type is DF.
  DIIS enabled.
  MOM disabled.
  Fractional occupation disabled.
  Guess Type is SAD.
  Energy threshold   = 1.00e-08
  Density threshold  = 1.00e-08
  Integral threshold = 0.00e+00

  ==> Primary Basis <==

  Basis Set: 6-31G**
    Blend: 6-31G**
    Number of shells: 12
    Number of basis function: 25
    Number of Cartesian functions: 25
    Spherical Harmonics?: false
    Max angular momentum: 2

   => Loading Basis Set <=

    Name: (6-31G** AUX)
    Role: JKFIT
    Keyword: DF_BASIS_SCF
    atoms 1   entry O          line   221 file /Users/fevange/Source/psi4/objdir/stage/usr/local/psi4/share/psi4/basis/cc-pvdz-jkfit.gbs 
    atoms 2-3 entry H          line    51 file /Users/fevange/Source/psi4/objdir/stage/usr/local/psi4/share/psi4/basis/cc-pvdz-jkfit.gbs 

  ==> Pre-Iterations <==

   -------------------------------------------------------
    Irrep   Nso     Nmo     Nalpha   Nbeta   Ndocc  Nsocc
   -------------------------------------------------------
     A1        12      12       0       0       0       0
     A2         2       2       0       0       0       0
     B1         4       4       0       0       0       0
     B2         7       7       0       0       0       0
   -------------------------------------------------------
    Total      25      25       5       5       5       0
   -------------------------------------------------------

  ==> Integral Setup <==

  ==> DFJK: Density-Fitted J/K Matrices <==

    J tasked:                  Yes
    K tasked:                  Yes
    wK tasked:                  No
    OpenMP threads:              1
    Integrals threads:           1
    Memory (MB):               375
    Algorithm:                Core
    Integral Cache:           NONE
    Schwarz Cutoff:          1E-12
    Fitting Condition:       1E-12

   => Auxiliary Basis Set <=

  Basis Set: (6-31G** AUX)
    Blend: CC-PVDZ-JKFIT
    Number of shells: 42
    Number of basis function: 131
    Number of Cartesian functions: 131
    Spherical Harmonics?: false
    Max angular momentum: 3

  Minimum eigenvalue in the overlap matrix is 2.3361254517E-02.
  Using Symmetric Orthogonalization.

  SCF Guess: Superposition of Atomic Densities via on-the-fly atomic UHF.

  ==> Iterations <==

                           Total Energy        Delta E     RMS |[F,P]|

   @DF-RHF iter   0:   -75.91131636997139   -7.59113e+01   1.07844e-01 
   @DF-RHF iter   1:   -75.97781077166557   -6.64944e-02   2.01717e-02 
   @DF-RHF iter   2:   -76.00796714618961   -3.01564e-02   1.08745e-02 DIIS
   @DF-RHF iter   3:   -76.01665151268307   -8.68437e-03   1.63084e-03 DIIS
   @DF-RHF iter   4:   -76.01718741124942   -5.35899e-04   5.16989e-04 DIIS
   @DF-RHF iter   5:   -76.01725653383956   -6.91226e-05   1.01491e-04 DIIS
   @DF-RHF iter   6:   -76.01725988347579   -3.34964e-06   1.73768e-05 DIIS
   @DF-RHF iter   7:   -76.01725998100517   -9.75294e-08   2.98600e-06 DIIS
   @DF-RHF iter   8:   -76.01725998332282   -2.31765e-09   3.45426e-07 DIIS
   @DF-RHF iter   9:   -76.01725998334709   -2.42721e-11   2.92801e-08 DIIS
   @DF-RHF iter  10:   -76.01725998334712   -2.84217e-14   2.86550e-09 DIIS

  ==> Post-Iterations <==

    Orbital Energies (a.u.)
    -----------------------

    Doubly Occupied:                                                      

       1A1   -20.569001     2A1    -1.320617     1B2    -0.678724  
       3A1    -0.563921     1B1    -0.494994  

    Virtual:                                                              

       4A1     0.202464     2B2     0.292735     3B2     0.981214  
       5A1     1.056373     6A1     1.129238     2B1     1.168666  
       4B2     1.295134     7A1     1.413717     1A2     1.803418  
       8A1     1.807591     3B1     1.919544     9A1     2.513656  
       5B2     2.538563     6B2     2.713724     2A2     2.921723  
       4B1     2.948260    10A1     3.292263    11A1     3.621690  
       7B2     3.876039    12A1     4.078097  

    Final Occupation by Irrep:
             A1    A2    B1    B2 
    DOCC [     3,    0,    1,    1 ]

  Energy converged.

  @DF-RHF Final Energy:   -76.01725998334712

   => Energetics <=

    Nuclear Repulsion Energy =              8.8046866186390567
    One-Electron Energy =                -122.3893793479468997
    Two-Electron Energy =                  37.5674327459607369
    Total Energy =                        -76.0172599833471168



Properties will be evaluated at   0.000000,   0.000000,   0.000000 Bohr

Properties computed using the SCF density matrix

  Nuclear Dipole Moment: (a.u.)
     X:     0.0000      Y:     0.0000      Z:     1.0351

  Electronic Dipole Moment: (a.u.)
     X:     0.0000      Y:     0.0000      Z:    -0.1531

  Dipole Moment: (a.u.)
     X:     0.0000      Y:     0.0000      Z:     0.8820     Total:     0.8820

  Dipole Moment: (Debye)
     X:     0.0000      Y:     0.0000      Z:     2.2417     Total:     2.2417


*** tstop() called on CHE-FEVANGE-01I at Mon May 29 20:42:17 2017
Module time:
	user time   =       0.28 seconds =       0.00 minutes
	system time =       0.02 seconds =       0.00 minutes
	total time  =          0 seconds =       0.00 minutes
Total time:
	user time   =       0.28 seconds =       0.00 minutes
	system time =       0.02 seconds =       0.00 minutes
	total time  =          0 seconds =       0.00 minutes
   => Loading Basis Set <=

    Name: (6-31G** AUX)
    Role: JKFIT
    Keyword: DF_BASIS_SCF
    atoms 1   entry O          line   221 file /Users/fevange/Source/psi4/objdir/stage/usr/local/psi4/share/psi4/basis/cc-pvdz-jkfit.gbs 
    atoms 2-3 entry H          line    51 file /Users/fevange/Source/psi4/objdir/stage/usr/local/psi4/share/psi4/basis/cc-pvdz-jkfit.gbs 


         ---------------------------------------------------------
                Multi-Configurational Self-Consistent Field
                            (a 'D E T C I' module)

                 Daniel G. A. Smith, C. David Sherrill, and
                              Matt L. Leininger
         ---------------------------------------------------------


   ==> Parameters <==

    EX LEVEL       =        2      H0 BLOCKSIZE  =     1000
    VAL EX LEVEL   =        0      H0 GUESS SIZE =     1000
    H0COUPLINGSIZE =        0      H0 COUPLING   =       NO
    MAXITER        =       12      NUM PRINT     =       20
    NUM ROOTS      =        1      ICORE         =        1
    PRINT LVL      =        1      FCI           =       NO
    R CONV         = 1.00e-07      MIXED         =      YES
    E CONV         = 1.00e-06      MIXED4        =      YES
    R4S            =       NO      REPL OTF      =       NO
    DIAG METHOD    =      SEM      FOLLOW ROOT   =        0
    PRECONDITIONER = DAVIDSON      UPDATE        = DAVIDSON
    S              =   0.0000      Ms0           =      YES
    GUESS VECTOR   =  H0BLOCK      OPENTYPE      =     NONE
    COLLAPSE SIZE  =        1      HD AVG        = EVANGELISTI
    MAX NUM VECS   =       13      REF SYM       =     AUTO
    IOPEN        =       NO

    EX ALLOW       =  1  1 
    STATE AVERAGE  =  0(1.00) 

   ==> CI Orbital and Space information <==

    RAS1 LVL      =        3      A RAS3 MAX    =        2
    RAS1 MIN      =        6      B RAS3 MAX    =        2
    A RAS1 LVL    =        3      RAS4 LVL      =        6
    A RAS1 MIN    =        2      A RAS4 MAX    =        0
    A RAS1 MAX    =        4      B RAS4 MAX    =        0
    B RAS1 LVL    =        3      RAS4 MAX      =        0
    B RAS1 MIN    =        2      A RAS34 MAX   =        2
    B RAS1 MAX    =        4      B RAS34 MAX   =        2
    RAS3 LVL      =        4      RAS34 MAX     =        2
    RAS3 MAX      =        2
   ------------------------------------------------------
               Space    Total    A1    A2    B1    B2
   ------------------------------------------------------
                 Nso       25    12     2     4     7
                 Nmo       25    12     2     4     7
               Ndocc        5     3     0     1     1
               Nsocc        0     0     0     0     0
   ------------------------------------------------------
                        MCSCF Spaces
   ------------------------------------------------------
         Frozen DOCC        0     0     0     0     0
     Restricted DOCC        1     1     0     0     0
                RAS1        4     2     0     1     1
                RAS2        0     0     0     0     0
                RAS3        2     1     0     0     1
                RAS4        0     0     0     0     0
      Active (total)        6     3     0     1     2
     Restricted UOCC       18     8     2     3     5
         Frozen UOCC        0     0     0     0     0
   ------------------------------------------------------

   ==> Setting up CI strings <==

    There are 15 alpha and 15 beta strings
    The CI space requires 31 (3.10E+01) determinants and 9 blocks

   ==> Setting up DF-MCSCF integrals <==

  ==> DFJK: Density-Fitted J/K Matrices <==

    J tasked:                  Yes
    K tasked:                  Yes
    wK tasked:                  No
    OpenMP threads:              1
    Integrals threads:           1
    Memory (MB):               400
    Algorithm:                Core
    Integral Cache:           NONE
    Schwarz Cutoff:          1E-12
    Fitting Condition:       1E-12

   => Auxiliary Basis Set <=

  Basis Set: (6-31G** AUX)
    Blend: CC-PVDZ-JKFIT
    Number of shells: 42
    Number of basis function: 131
    Number of Cartesian functions: 131
    Spherical Harmonics?: false
    Max angular momentum: 3

  ==> DFERI: Density Fitted 3-Index Tensors <==

    Schwarz cutoff =   1.000E-12
    J cutoff       =   1.000E-12
    Mem (GB)       =           0

   => Auxiliary Basis <=

  Basis Set: (6-31G** AUX)
    Blend: CC-PVDZ-JKFIT
    Number of shells: 42
    Number of basis function: 131
    Number of Cartesian functions: 131
    Spherical Harmonics?: false
    Max angular momentum: 3


   ==> Starting DF-MCSCF iterations <==

           Iter         Total Energy       Delta E   Orb RMS    CI RMS  NCI NORB
   @DF-MCSCF  1:    -76.029648336910   -1.2388e-02  9.17e-03  4.05e-13    1    1  Initial CI
      Warning! Maxstep = 0.56, scaling to 0.50
   @DF-MCSCF  2:    -76.068062191430   -3.8414e-02  1.22e-02  7.14e-06    5    1  TS
   @DF-MCSCF  3:    -76.072163157968   -4.1010e-03  4.00e-03  8.55e-06    4    1  TS
   @DF-MCSCF  4:    -76.072756718937   -5.9356e-04  1.69e-03  8.18e-07    5    1  TS, DIIS
   @DF-MCSCF  5:    -76.072882463281   -1.2574e-04  1.08e-03  5.08e-07    5    1  TS, DIIS
   @DF-MCSCF  6:    -76.072941819881   -5.9357e-05  8.28e-04  6.52e-07    5    1  TS, DIIS
   @DF-MCSCF  7:    -76.072958337836   -1.6518e-05  6.77e-04  3.50e-07    5    1  TS, DIIS
   @DF-MCSCF  8:    -76.072970850137   -1.2512e-05  5.85e-04  2.11e-07    5    1  TS, DIIS
   @DF-MCSCF  9:    -76.072992753610   -2.1903e-05  4.57e-04  5.05e-08    6    1  TS, DIIS
   @DF-MCSCF 10:    -76.073013500042   -2.0746e-05  2.46e-04  1.11e-07    6    1  TS, DIIS
   @DF-MCSCF 11:    -76.073014222625   -7.2258e-07  1.85e-04  1.98e-07    5    1  TS, DIIS
   @DF-MCSCF 12:    -76.073014692988   -4.7036e-07  1.24e-04  4.19e-08    6    1  TS, DIIS
   @DF-MCSCF 13:    -76.073014853416   -1.6043e-07  8.25e-05  7.11e-08    5    1  TS, DIIS
   @DF-MCSCF 14:    -76.073015048628   -1.9521e-07  7.83e-05  7.48e-08    5    1  TS, DIIS
   @DF-MCSCF 15:    -76.073015631590   -5.8296e-07  6.68e-05  1.76e-08    6    1  TS, DIIS
   @DF-MCSCF 16:    -76.073015892830   -2.6124e-07  5.17e-05  1.36e-08    6    1  TS, DIIS
   @DF-MCSCF 17:    -76.073016194732   -3.0190e-07  4.72e-05  2.45e-08    6    1  TS, DIIS
   @DF-MCSCF 18:    -76.073016241544   -4.6812e-08  4.90e-05  8.60e-09    6    1  TS, DIIS
   @DF-MCSCF 19:    -76.073016333378   -9.1834e-08  4.51e-05  4.51e-08    5    1  TS, DIIS
   @DF-MCSCF 20:    -76.073016399839   -6.6461e-08  4.52e-05  1.18e-08    6    1  TS, DIIS
   @DF-MCSCF 21:    -76.073016521767   -1.2193e-07  4.47e-05  1.36e-08    6    1  TS, DIIS
   @DF-MCSCF 22:    -76.073017400965   -8.7920e-07  4.25e-05  1.34e-08    7    1  TS, DIIS
   @DF-MCSCF 23:    -76.073020627605   -3.2266e-06  3.53e-05  9.58e-09    8    1  TS, DIIS
   @DF-MCSCF 24:    -76.073024031966   -3.4044e-06  3.00e-05  1.62e-08    8    1  TS, DIIS
   @DF-MCSCF 25:    -76.073024415721   -3.8376e-07  2.78e-05  2.00e-08    7    1  TS, DIIS
   @DF-MCSCF 26:    -76.073024480194   -6.4473e-08  2.76e-05  2.51e-08    6    1  TS, DIIS
   @DF-MCSCF 27:    -76.073024519960   -3.9766e-08  2.67e-05  1.74e-08    6    1  TS, DIIS
   @DF-MCSCF 28:    -76.073024651056   -1.3110e-07  2.63e-05  7.52e-09    7    1  TS, DIIS
   @DF-MCSCF 29:    -76.073024875374   -2.2432e-07  2.57e-05  1.36e-08    7    1  TS, DIIS
   @DF-MCSCF 30:    -76.073026093003   -1.2176e-06  2.24e-05  1.05e-08    8    1  TS, DIIS
   @DF-MCSCF 31:    -76.073027755593   -1.6626e-06  1.50e-05  2.17e-08    8    1  TS, DIIS
   @DF-MCSCF 32:    -76.073028298448   -5.4286e-07  6.72e-06  1.32e-08    8    1  TS, DIIS
   @DF-MCSCF 33:    -76.073028499458   -2.0101e-07  5.87e-06  6.62e-10    9    1  TS, DIIS
   @DF-MCSCF 34:    -76.073028520427   -2.0970e-08  3.62e-06  1.47e-09    8    1  TS, DIIS

          @DF-MCSCF has converged!

   @DF-MCSCF Final Energy:  -76.073028520427187

   ==> Energetics <==

    SCF energy =          -76.017259983347117
    Total MCSCF energy =  -76.073028520427187

   ==> MCSCF root 0 information <==

    MCSCF Root 0 energy =   -76.073028520427187

   Active Space Natural occupation numbers:

        B1   1.999407        A1   1.998835        A1   1.977250
        B2   1.975134        B2   0.025382        A1   0.023993

   The 20 most important determinants:

    *   1   -0.981258  (    3,    3)  2A1X 3A1X 1B1X 1B2X 
    *   2    0.075099  (    6,    6)  2A1X 3A1X 1B1X 2B2X 
    *   3   -0.061746  (    3,    6)  2A1X 3A1X 1B1X 1B2A 2B2B 
    *   4   -0.061746  (    6,    3)  2A1X 3A1X 1B1X 1B2B 2B2A 
    *   5   -0.052941  (    4,    6)  2A1X 3A1B 1B1X 1B2A 4A1A 2B2B 
    *   6   -0.052941  (    6,    4)  2A1X 3A1A 1B1X 1B2B 4A1B 2B2A 
    *   7    0.049959  (    4,    4)  2A1X 1B1X 1B2X 4A1X 
    *   8   -0.041005  (    3,    4)  2A1X 3A1A 1B1X 1B2X 4A1B 
    *   9   -0.041005  (    4,    3)  2A1X 3A1B 1B1X 1B2X 4A1A 
    *  10   -0.032407  (    5,    6)  2A1B 3A1X 1B1X 1B2A 4A1A 2B2B 
    *  11   -0.032407  (    6,    5)  2A1A 3A1X 1B1X 1B2B 4A1B 2B2A 
    *  12    0.030749  (    4,    5)  2A1A 3A1B 1B1X 1B2X 4A1X 
    *  13    0.030749  (    5,    4)  2A1B 3A1A 1B1X 1B2X 4A1X 
    *  14    0.030534  (    9,    9)  2A1X 3A1X 1B1X 4A1X 
    *  15    0.029042  (    5,    5)  3A1X 1B1X 1B2X 4A1X 
    *  16    0.028349  (   10,   10)  2A1X 1B1X 1B2X 2B2X 
    *  17    0.026932  (    3,    7)  2A1X 3A1A 1B1X 1B2A 4A1B 2B2B 
    *  18    0.026932  (    7,    3)  2A1X 3A1B 1B1X 1B2B 4A1A 2B2A 
    *  19   -0.026008  (    9,   10)  2A1X 3A1A 1B1X 1B2B 4A1A 2B2B 
    *  20   -0.026008  (   10,    9)  2A1X 3A1B 1B1X 1B2A 4A1B 2B2A 



Properties will be evaluated at   0.000000,   0.000000,   0.000000 Bohr

Properties computed using the RASSCF density matrix

  Nuclear Dipole Moment: (a.u.)
     X:     0.0000      Y:     0.0000      Z:     1.0351

  Electronic Dipole Moment: (a.u.)
     X:     0.0000      Y:     0.0000      Z:    -0.2177

  Dipole Moment: (a.u.)
     X:     0.0000      Y:     0.0000      Z:     0.8174     Total:     0.8174

  Dipole Moment: (Debye)
     X:     0.0000      Y:     0.0000      Z:     2.0776     Total:     2.0776

	SCF Energy........................................................PASSED
	RASSCF Energy.....................................................PASSED

*** Psi4 exiting successfully. Buy a developer a beer!
