    -----------------------------------------------------------------------
          PSI4: An Open-Source Ab Initio Electronic Structure Package
                              PSI 4.0.0-beta3+ Driver

               Git: Rev {master} d426ff16d868cc5e27ed6a80ab0898a5b4eef4d4

    J. M. Turney, A. C. Simmonett, R. M. Parrish, E. G. Hohenstein,
    F. A. Evangelista, J. T. Fermann, B. J. Mintz, L. A. Burns, J. J. Wilke,
    M. L. Abrams, N. J. Russ, M. L. Leininger, C. L. Janssen, E. T. Seidl,
    W. D. Allen, H. F. Schaefer, R. A. King, E. F. Valeev, C. D. Sherrill,
    and T. D. Crawford, WIREs Comput. Mol. Sci., (2011) (doi: 10.1002/wcms.93)

                         Additional Contributions by
    A. E. DePrince, M. Saitow, U. Bozkaya, A. Yu. Sokolov
    -----------------------------------------------------------------------

    Process ID:  20643
    PSI4DATADIR: /home/cds/psi4/lib

    Using LocalCommunicator (Number of processes = 1)

    Memory level set to 256.000 MB

  ==> Input File <==

--------------------------------------------------------------------------
#! Frequencies for H2O B3LYP/6-31G* at optimized geometry

memory 250 mb

molecule h2o {
  O
  H 1 0.96864
  H 1 0.96864 2 103.586
}

set basis 6-31G*
frequencies('b3lyp')

ref_freqs = PsiMod.Vector(3) #TEST
ref_freqs.set(0, 0, 1713.34) #TEST
ref_freqs.set(0, 1, 3728.49) #TEST
ref_freqs.set(0, 2, 3850.07) #TEST

fd_freqs = PsiMod.wavefunction().frequencies() #TEST
compare_vectors(ref_freqs, fd_freqs, 1, "Reference vs computed frequencies to 0.1 cm^-1") #TEST 

--------------------------------------------------------------------------

  Memory set to 250.000 MiB by Python script.

-------------------------------------------------------------

  Using finite-differences of gradients to determine vibrational frequencies and 
  normal modes.  Resulting frequencies are only valid at stationary points.
	Generating geometries for use with 3-point formula.
	Displacement size will be 5.00e-03.
	Number of atoms is 3.
	Number of irreps is 4.
	Number of SALCS is 3.
	Index of salcs per irrep:
	 1 :  0  1 
	 2 : 
	 3 : 
	 4 :  2 
	Number of SALC's per irrep:
		 Irrep 1: 2
		 Irrep 2: 0
		 Irrep 3: 0
		 Irrep 4: 1
	Number of geometries (including reference) is 6.
	Number of displacements per irrep:
	  Irrep 1: 4
	  Irrep 2: 0
	  Irrep 3: 0
	  Irrep 4: 1

-------------------------------------------------------------

  //>>>>>>>>>>>>>>>>>>>>>>>>>>>>>>>>>>>//
  //    Loading displacement 1 of 6    //
  //<<<<<<<<<<<<<<<<<<<<<<<<<<<<<<<<<<<//

  No DF_BASIS_SCF auxiliary basis selected, defaulting to cc-pvdz-jkfit


*** tstart() called on ds18
*** at Mon Mar 25 16:20:57 2013

	There are an even number of electrons - assuming singlet.
	Specify the multiplicity with the MULTP option in the
	input if this is incorrect


         ---------------------------------------------------------
                                   SCF
            by Justin Turney, Rob Parrish, and Andy Simmonett
                              RKS Reference
                        1 Threads,    250 MiB Core
         ---------------------------------------------------------

  ==> Geometry <==

    Molecular point group: c2v
    Full point group: C2v

    Geometry (in Angstrom), charge = 0, multiplicity = 1:

       Center              X                  Y                   Z       
    ------------   -----------------  -----------------  -----------------
           O          0.000000000000     0.000000000000    -0.067270429192
           H          0.000000000000    -0.761139231823     0.533815264110
           H          0.000000000000     0.761139231823     0.533815264110

  Running in c2v symmetry.

  Nuclear repulsion =    9.077538494060311

  Charge       = 0
  Multiplicity = 1
  Electrons    = 10
  Nalpha       = 5
  Nbeta        = 5

  ==> Algorithm <==

  SCF Algorithm Type is DF.
  DIIS enabled.
  MOM disabled.
  Fractional occupation disabled.
  Guess Type is CORE.
  Energy threshold   = 1.00e-08
  Density threshold  = 1.00e-08
  Integral threshold = 0.00e+00

  ==> Primary Basis <==

  Basis Set: 6-31G*
    Number of shells: 10
    Number of basis function: 19
    Number of Cartesian functions: 19
    Spherical Harmonics?: false
    Max angular momentum: 2

  ==> DFT Potential <==

   => B3LYP Composite Functional <= 

    B3LYP Hybrid-GGA Exchange-Correlation Functional

    P.J. Stephens et. al., J. Phys. Chem., 98, 11623-11627, 1994

    Points   =           5000
    Deriv    =              1
    GGA      =           TRUE
    Meta     =          FALSE

    X_LRC        =          FALSE
    X_Hybrid     =           TRUE
    X_Alpha      =   2.000000E-01
    X_Omega      =   0.000000E+00
    C_LRC        =          FALSE
    C_Hybrid     =          FALSE
    C_SCS_Hybrid =          FALSE
    C_Alpha      =   0.000000E+00
    C_SS_Alpha   =   0.000000E+00
    C_OS_Alpha   =   0.000000E+00

   => Exchange Functionals <=

    0.8000  B3_X
    0.2000    HF 

   => Correlation Functionals <=

    0.1900 VWN3RPA_C
    0.8100 LYP_C
    0.0000 DF-MP2 

   => Molecular Quadrature <=

    Radial Scheme    =       TREUTLER
    Pruning Scheme   =           FLAT
    Nuclear Scheme   =       TREUTLER

    BS radius alpha  =              1
    Pruning alpha    =              1
    Radial Points    =             75
    Spherical Points =            302
    Total Points     =          65475
    Total Blocks     =            111
    Max Points       =           1000
    Max Functions    =             19

  ==> Pre-Iterations <==

   -------------------------------------------------------
    Irrep   Nso     Nmo     Nalpha   Nbeta   Ndocc  Nsocc
   -------------------------------------------------------
     A1        10      10       0       0       0       0
     A2         1       1       0       0       0       0
     B1         3       3       0       0       0       0
     B2         5       5       0       0       0       0
   -------------------------------------------------------
    Total      19      19       5       5       5       0
   -------------------------------------------------------

  ==> Integral Setup <==

 OEINTS: Wrapper to libmints.
   by Justin Turney

   Calculation information:
      Number of atoms:                   3
      Number of AO shells:              10
      Number of SO shells:               8
      Number of primitives:             23
      Number of atomic orbitals:        19
      Number of basis functions:        19

      Number of irreps:                  4
      Number of functions per irrep: [  10    1    3    5 ]

      Overlap, kinetic, potential, dipole, and quadrupole integrals
        stored in file 35.

  ==> DFJK: Density-Fitted J/K Matrices <==

    J tasked:                  Yes
    K tasked:                  Yes
    wK tasked:                  No
    OpenMP threads:              1
    Integrals threads:           1
    Memory (MB):               178
    Algorithm:                Core
    Integral Cache:           NONE
    Schwarz Cutoff:          0E+00
    Fitting Condition:       1E-12

   => Auxiliary Basis Set <=

  Basis Set: cc-pvdz-jkfit
    Number of shells: 42
    Number of basis function: 131
    Number of Cartesian functions: 131
    Spherical Harmonics?: false
    Max angular momentum: 3

  Minimum eigenvalue in the overlap matrix is 2.2747028154E-02.
  Using Symmetric Orthogonalization.
  SCF Guess: Core (One-Electron) Hamiltonian.

  Initial RKS energy:   -58.55974507852438

  ==> Iterations <==

                        Total Energy        Delta E     RMS |[F,P]|

	Occupation by irrep:
	         A1    A2    B1    B2 
	DOCC [     4,    0,    0,    1 ]

   @RKS iter   1:   -69.23302177480655   -1.06733e+01   2.84060e-01 
	Occupation by irrep:
	         A1    A2    B1    B2 
	DOCC [     3,    0,    1,    1 ]

   @RKS iter   2:   -70.31978889318309   -1.08677e+00   2.40132e-01 DIIS
   @RKS iter   3:   -76.29474788013950   -5.97496e+00   4.29164e-02 DIIS
   @RKS iter   4:   -76.40740116451069   -1.12653e-01   4.88169e-03 DIIS
   @RKS iter   5:   -76.40892572750697   -1.52456e-03   7.04841e-04 DIIS
   @RKS iter   6:   -76.40895041111639   -2.46836e-05   1.78162e-04 DIIS
   @RKS iter   7:   -76.40895184173621   -1.43062e-06   5.20299e-05 DIIS
   @RKS iter   8:   -76.40895196571748   -1.23981e-07   7.22756e-06 DIIS
   @RKS iter   9:   -76.40895196807597   -2.35849e-09   2.59048e-07 DIIS
   @RKS iter  10:   -76.40895196807952   -3.55271e-12   3.78338e-09 DIIS

  ==> Post-Iterations <==

	Orbital Energies (a.u.)
	-----------------------

	Doubly Occupied:                                                      

	   1A1   -19.138501     2A1    -0.997616     1B2    -0.516286  
	   3A1    -0.372657     1B1    -0.291196  

	Virtual:                                                              

	   4A1     0.062246     2B2     0.147649     3B2     0.771037  
	   5A1     0.860494     2B1     0.890706     6A1     0.895199  
	   4B2     1.065334     7A1     1.194191     8A1     1.728827  
	   1A2     1.746960     3B1     1.779851     9A1     2.279241  
	   5B2     2.574597    10A1     3.550881  

	Final Occupation by Irrep:
	         A1    A2    B1    B2 
	DOCC [     3,    0,    1,    1 ]

  Energy converged.

  @RKS Final Energy:   -76.40895196807952

   => Energetics <=

    Nuclear Repulsion Energy =              9.0775384940603114
    One-Electron Energy =                -122.9170576863604651
    Two-Electron Energy =                  44.9849085377111990
    DFT Exchange-Correlation Energy =      -7.5543413134905482
    Empirical Dispersion Energy =           0.0000000000000000
    Total Energy =                        -76.4089519680795064



Properties will be evaluated at   0.000000,   0.000000,   0.000000 Bohr
  ==> Properties <==


Properties computed using the SCF density density matrix
  Nuclear Dipole Moment: (a.u.)
     X:     0.0000      Y:     0.0000      Z:     1.0005

  Electronic Dipole Moment: (a.u.)
     X:     0.0000      Y:     0.0000      Z:    -0.1745

  Dipole Moment: (a.u.)
     X:     0.0000      Y:     0.0000      Z:     0.8260     Total:     0.8260

  Dipole Moment: (Debye)
     X:     0.0000      Y:     0.0000      Z:     2.0995     Total:     2.0995


  Saving occupied orbitals to File 180.

*** tstop() called on ds18 at Mon Mar 25 16:20:58 2013
Module time:
	user time   =       1.46 seconds =       0.02 minutes
	system time =       0.01 seconds =       0.00 minutes
	total time  =          1 seconds =       0.02 minutes
Total time:
	user time   =       1.46 seconds =       0.02 minutes
	system time =       0.01 seconds =       0.00 minutes
	total time  =          1 seconds =       0.02 minutes

  No DF_BASIS_SCF auxiliary basis selected, defaulting to cc-pvdz-jkfit


*** tstart() called on ds18
*** at Mon Mar 25 16:20:58 2013


         ------------------------------------------------------------
                                   SCF GRAD                          
                          Rob Parrish, Justin Turney,                
                       Andy Simmonett, and Alex Sokolov              
         ------------------------------------------------------------

  ==> Geometry <==

    Molecular point group: c2v
    Full point group: C2v

    Geometry (in Angstrom), charge = 0, multiplicity = 1:

       Center              X                  Y                   Z       
    ------------   -----------------  -----------------  -----------------
           O          0.000000000000     0.000000000000    -0.067270429192
           H          0.000000000000    -0.761139231823     0.533815264110
           H          0.000000000000     0.761139231823     0.533815264110

  Nuclear repulsion =    9.077538494060311

  ==> Basis Set <==

  Basis Set: 6-31G*
    Number of shells: 10
    Number of basis function: 19
    Number of Cartesian functions: 19
    Spherical Harmonics?: false
    Max angular momentum: 2

  ==> DFJKGrad: Density-Fitted SCF Gradients <==

    Gradient:                    1
    J tasked:                  Yes
    K tasked:                  Yes
    wK tasked:                  No
    OpenMP threads:              1
    Integrals threads:           1
    Memory (MB):               178
    Schwarz Cutoff:          0E+00
    Fitting Condition:       1E-12

   => Auxiliary Basis Set <=

  Basis Set: cc-pvdz-jkfit
    Number of shells: 42
    Number of basis function: 116
    Number of Cartesian functions: 131
    Spherical Harmonics?: true
    Max angular momentum: 3

  ==> DFT Potential <==

   => B3LYP Composite Functional <= 

    B3LYP Hybrid-GGA Exchange-Correlation Functional

    P.J. Stephens et. al., J. Phys. Chem., 98, 11623-11627, 1994

    Points   =           5000
    Deriv    =              1
    GGA      =           TRUE
    Meta     =          FALSE

    X_LRC        =          FALSE
    X_Hybrid     =           TRUE
    X_Alpha      =   2.000000E-01
    X_Omega      =   0.000000E+00
    C_LRC        =          FALSE
    C_Hybrid     =          FALSE
    C_SCS_Hybrid =          FALSE
    C_Alpha      =   0.000000E+00
    C_SS_Alpha   =   0.000000E+00
    C_OS_Alpha   =   0.000000E+00

   => Exchange Functionals <=

    0.8000  B3_X
    0.2000    HF 

   => Correlation Functionals <=

    0.1900 VWN3RPA_C
    0.8100 LYP_C
    0.0000 DF-MP2 

   => Molecular Quadrature <=

    Radial Scheme    =       TREUTLER
    Pruning Scheme   =           FLAT
    Nuclear Scheme   =       TREUTLER

    BS radius alpha  =              1
    Pruning alpha    =              1
    Radial Points    =             75
    Spherical Points =            302
    Total Points     =          65475
    Total Blocks     =            111
    Max Points       =           1000
    Max Functions    =             19


  -Total Gradient:
     Atom            X                  Y                   Z
    ------   -----------------  -----------------  -----------------
       1       -0.000000000000    -0.000000000002    -0.001715936336
       2       -0.000000000000    -0.000510995323     0.000847756720
       3       -0.000000000000     0.000510995325     0.000847756722


*** tstop() called on ds18 at Mon Mar 25 16:20:58 2013
Module time:
	user time   =       0.30 seconds =       0.01 minutes
	system time =       0.01 seconds =       0.00 minutes
	total time  =          0 seconds =       0.00 minutes
Total time:
	user time   =       1.76 seconds =       0.03 minutes
	system time =       0.02 seconds =       0.00 minutes
	total time  =          1 seconds =       0.02 minutes

  //>>>>>>>>>>>>>>>>>>>>>>>>>>>>>>>>>>>//
  //    Loading displacement 2 of 6    //
  //<<<<<<<<<<<<<<<<<<<<<<<<<<<<<<<<<<<//

  No DF_BASIS_SCF auxiliary basis selected, defaulting to cc-pvdz-jkfit


*** tstart() called on ds18
*** at Mon Mar 25 16:20:59 2013

	There are an even number of electrons - assuming singlet.
	Specify the multiplicity with the MULTP option in the
	input if this is incorrect


         ---------------------------------------------------------
                                   SCF
            by Justin Turney, Rob Parrish, and Andy Simmonett
                              RKS Reference
                        1 Threads,    250 MiB Core
         ---------------------------------------------------------

  ==> Geometry <==

    Molecular point group: c2v
    Full point group: C2v

    Geometry (in Angstrom), charge = 0, multiplicity = 1:

       Center              X                  Y                   Z       
    ------------   -----------------  -----------------  -----------------
           O          0.000000000000     0.000000000000    -0.066827785712
           H          0.000000000000    -0.761139231823     0.530302727486
           H          0.000000000000     0.761139231823     0.530302727486

  Running in c2v symmetry.

  Nuclear repulsion =    9.099613680990538

  Charge       = 0
  Multiplicity = 1
  Electrons    = 10
  Nalpha       = 5
  Nbeta        = 5

  ==> Algorithm <==

  SCF Algorithm Type is DF.
  DIIS enabled.
  MOM disabled.
  Fractional occupation disabled.
  Guess Type is CORE.
  Energy threshold   = 1.00e-08
  Density threshold  = 1.00e-08
  Integral threshold = 0.00e+00

  ==> Primary Basis <==

  Basis Set: 6-31G*
    Number of shells: 10
    Number of basis function: 19
    Number of Cartesian functions: 19
    Spherical Harmonics?: false
    Max angular momentum: 2

  ==> DFT Potential <==

   => B3LYP Composite Functional <= 

    B3LYP Hybrid-GGA Exchange-Correlation Functional

    P.J. Stephens et. al., J. Phys. Chem., 98, 11623-11627, 1994

    Points   =           5000
    Deriv    =              1
    GGA      =           TRUE
    Meta     =          FALSE

    X_LRC        =          FALSE
    X_Hybrid     =           TRUE
    X_Alpha      =   2.000000E-01
    X_Omega      =   0.000000E+00
    C_LRC        =          FALSE
    C_Hybrid     =          FALSE
    C_SCS_Hybrid =          FALSE
    C_Alpha      =   0.000000E+00
    C_SS_Alpha   =   0.000000E+00
    C_OS_Alpha   =   0.000000E+00

   => Exchange Functionals <=

    0.8000  B3_X
    0.2000    HF 

   => Correlation Functionals <=

    0.1900 VWN3RPA_C
    0.8100 LYP_C
    0.0000 DF-MP2 

   => Molecular Quadrature <=

    Radial Scheme    =       TREUTLER
    Pruning Scheme   =           FLAT
    Nuclear Scheme   =       TREUTLER

    BS radius alpha  =              1
    Pruning alpha    =              1
    Radial Points    =             75
    Spherical Points =            302
    Total Points     =          65467
    Total Blocks     =            111
    Max Points       =           1000
    Max Functions    =             19

  ==> Pre-Iterations <==

   -------------------------------------------------------
    Irrep   Nso     Nmo     Nalpha   Nbeta   Ndocc  Nsocc
   -------------------------------------------------------
     A1        10      10       0       0       0       0
     A2         1       1       0       0       0       0
     B1         3       3       0       0       0       0
     B2         5       5       0       0       0       0
   -------------------------------------------------------
    Total      19      19       5       5       5       0
   -------------------------------------------------------

  ==> Integral Setup <==

 OEINTS: Wrapper to libmints.
   by Justin Turney

   Calculation information:
      Number of atoms:                   3
      Number of AO shells:              10
      Number of SO shells:               8
      Number of primitives:             23
      Number of atomic orbitals:        19
      Number of basis functions:        19

      Number of irreps:                  4
      Number of functions per irrep: [  10    1    3    5 ]

      Overlap, kinetic, potential, dipole, and quadrupole integrals
        stored in file 35.

  ==> DFJK: Density-Fitted J/K Matrices <==

    J tasked:                  Yes
    K tasked:                  Yes
    wK tasked:                  No
    OpenMP threads:              1
    Integrals threads:           1
    Memory (MB):               178
    Algorithm:                Core
    Integral Cache:           NONE
    Schwarz Cutoff:          0E+00
    Fitting Condition:       1E-12

   => Auxiliary Basis Set <=

  Basis Set: cc-pvdz-jkfit
    Number of shells: 42
    Number of basis function: 131
    Number of Cartesian functions: 131
    Spherical Harmonics?: false
    Max angular momentum: 3

  Minimum eigenvalue in the overlap matrix is 2.2658125644E-02.
  Using Symmetric Orthogonalization.
  SCF Guess: Core (One-Electron) Hamiltonian.

  Initial RKS energy:   -58.55169130705296

  ==> Iterations <==

                        Total Energy        Delta E     RMS |[F,P]|

	Occupation by irrep:
	         A1    A2    B1    B2 
	DOCC [     4,    0,    0,    1 ]

   @RKS iter   1:   -69.23736949797023   -1.06857e+01   2.84175e-01 
	Occupation by irrep:
	         A1    A2    B1    B2 
	DOCC [     3,    0,    1,    1 ]

   @RKS iter   2:   -70.32491705173570   -1.08755e+00   2.40242e-01 DIIS
   @RKS iter   3:   -76.29585598963679   -5.97094e+00   4.27738e-02 DIIS
   @RKS iter   4:   -76.40739816185705   -1.11542e-01   4.89662e-03 DIIS
   @RKS iter   5:   -76.40892700100393   -1.52884e-03   6.89655e-04 DIIS
   @RKS iter   6:   -76.40895069982328   -2.36988e-05   1.71643e-04 DIIS
   @RKS iter   7:   -76.40895203158816   -1.33176e-06   4.96923e-05 DIIS
   @RKS iter   8:   -76.40895214452785   -1.12940e-07   7.08986e-06 DIIS
   @RKS iter   9:   -76.40895214679513   -2.26729e-09   2.65446e-07 DIIS
   @RKS iter  10:   -76.40895214679887   -3.73745e-12   3.69444e-09 DIIS

  ==> Post-Iterations <==

	Orbital Energies (a.u.)
	-----------------------

	Doubly Occupied:                                                      

	   1A1   -19.137884     2A1    -0.998343     1B2    -0.517826  
	   3A1    -0.372061     1B1    -0.291244  

	Virtual:                                                              

	   4A1     0.062976     2B2     0.148625     3B2     0.773478  
	   5A1     0.861917     2B1     0.890783     6A1     0.895148  
	   4B2     1.066247     7A1     1.193211     8A1     1.729363  
	   1A2     1.746143     3B1     1.779914     9A1     2.282222  
	   5B2     2.579445    10A1     3.552785  

	Final Occupation by Irrep:
	         A1    A2    B1    B2 
	DOCC [     3,    0,    1,    1 ]

  Energy converged.

  @RKS Final Energy:   -76.40895214679887

   => Energetics <=

    Nuclear Repulsion Energy =              9.0996136809905384
    One-Electron Energy =                -122.9577517140358509
    Two-Electron Energy =                  45.0053568581771941
    DFT Exchange-Correlation Energy =      -7.5561709719307482
    Empirical Dispersion Energy =           0.0000000000000000
    Total Energy =                        -76.4089521467988675



Properties will be evaluated at   0.000000,   0.000000,   0.000000 Bohr
  ==> Properties <==


Properties computed using the SCF density density matrix
  Nuclear Dipole Moment: (a.u.)
     X:     0.0000      Y:     0.0000      Z:     0.9940

  Electronic Dipole Moment: (a.u.)
     X:     0.0000      Y:     0.0000      Z:    -0.1705

  Dipole Moment: (a.u.)
     X:     0.0000      Y:     0.0000      Z:     0.8235     Total:     0.8235

  Dipole Moment: (Debye)
     X:     0.0000      Y:     0.0000      Z:     2.0931     Total:     2.0931


  Saving occupied orbitals to File 180.

*** tstop() called on ds18 at Mon Mar 25 16:21:00 2013
Module time:
	user time   =       1.22 seconds =       0.02 minutes
	system time =       0.05 seconds =       0.00 minutes
	total time  =          1 seconds =       0.02 minutes
Total time:
	user time   =       3.00 seconds =       0.05 minutes
	system time =       0.07 seconds =       0.00 minutes
	total time  =          3 seconds =       0.05 minutes

  No DF_BASIS_SCF auxiliary basis selected, defaulting to cc-pvdz-jkfit


*** tstart() called on ds18
*** at Mon Mar 25 16:21:00 2013


         ------------------------------------------------------------
                                   SCF GRAD                          
                          Rob Parrish, Justin Turney,                
                       Andy Simmonett, and Alex Sokolov              
         ------------------------------------------------------------

  ==> Geometry <==

    Molecular point group: c2v
    Full point group: C2v

    Geometry (in Angstrom), charge = 0, multiplicity = 1:

       Center              X                  Y                   Z       
    ------------   -----------------  -----------------  -----------------
           O          0.000000000000     0.000000000000    -0.066827785712
           H          0.000000000000    -0.761139231823     0.530302727486
           H          0.000000000000     0.761139231823     0.530302727486

  Nuclear repulsion =    9.099613680990538

  ==> Basis Set <==

  Basis Set: 6-31G*
    Number of shells: 10
    Number of basis function: 19
    Number of Cartesian functions: 19
    Spherical Harmonics?: false
    Max angular momentum: 2

  ==> DFJKGrad: Density-Fitted SCF Gradients <==

    Gradient:                    1
    J tasked:                  Yes
    K tasked:                  Yes
    wK tasked:                  No
    OpenMP threads:              1
    Integrals threads:           1
    Memory (MB):               178
    Schwarz Cutoff:          0E+00
    Fitting Condition:       1E-12

   => Auxiliary Basis Set <=

  Basis Set: cc-pvdz-jkfit
    Number of shells: 42
    Number of basis function: 116
    Number of Cartesian functions: 131
    Spherical Harmonics?: true
    Max angular momentum: 3

  ==> DFT Potential <==

   => B3LYP Composite Functional <= 

    B3LYP Hybrid-GGA Exchange-Correlation Functional

    P.J. Stephens et. al., J. Phys. Chem., 98, 11623-11627, 1994

    Points   =           5000
    Deriv    =              1
    GGA      =           TRUE
    Meta     =          FALSE

    X_LRC        =          FALSE
    X_Hybrid     =           TRUE
    X_Alpha      =   2.000000E-01
    X_Omega      =   0.000000E+00
    C_LRC        =          FALSE
    C_Hybrid     =          FALSE
    C_SCS_Hybrid =          FALSE
    C_Alpha      =   0.000000E+00
    C_SS_Alpha   =   0.000000E+00
    C_OS_Alpha   =   0.000000E+00

   => Exchange Functionals <=

    0.8000  B3_X
    0.2000    HF 

   => Correlation Functionals <=

    0.1900 VWN3RPA_C
    0.8100 LYP_C
    0.0000 DF-MP2 

   => Molecular Quadrature <=

    Radial Scheme    =       TREUTLER
    Pruning Scheme   =           FLAT
    Nuclear Scheme   =       TREUTLER

    BS radius alpha  =              1
    Pruning alpha    =              1
    Radial Points    =             75
    Spherical Points =            302
    Total Points     =          65467
    Total Blocks     =            111
    Max Points       =           1000
    Max Functions    =             19


  -Total Gradient:
     Atom            X                  Y                   Z
    ------   -----------------  -----------------  -----------------
       1        0.000000000000     0.000000000003     0.001671394557
       2        0.000000000000     0.000886965127    -0.000846323824
       3        0.000000000000    -0.000886965131    -0.000846323826


*** tstop() called on ds18 at Mon Mar 25 16:21:00 2013
Module time:
	user time   =       0.31 seconds =       0.01 minutes
	system time =       0.01 seconds =       0.00 minutes
	total time  =          0 seconds =       0.00 minutes
Total time:
	user time   =       3.32 seconds =       0.06 minutes
	system time =       0.08 seconds =       0.00 minutes
	total time  =          3 seconds =       0.05 minutes

  //>>>>>>>>>>>>>>>>>>>>>>>>>>>>>>>>>>>//
  //    Loading displacement 3 of 6    //
  //<<<<<<<<<<<<<<<<<<<<<<<<<<<<<<<<<<<//

  No DF_BASIS_SCF auxiliary basis selected, defaulting to cc-pvdz-jkfit


*** tstart() called on ds18
*** at Mon Mar 25 16:21:00 2013

	There are an even number of electrons - assuming singlet.
	Specify the multiplicity with the MULTP option in the
	input if this is incorrect


         ---------------------------------------------------------
                                   SCF
            by Justin Turney, Rob Parrish, and Andy Simmonett
                              RKS Reference
                        1 Threads,    250 MiB Core
         ---------------------------------------------------------

  ==> Geometry <==

    Molecular point group: c2v
    Full point group: C2v

    Geometry (in Angstrom), charge = 0, multiplicity = 1:

       Center              X                  Y                   Z       
    ------------   -----------------  -----------------  -----------------
           O          0.000000000000     0.000000000000    -0.067049107452
           H          0.000000000000    -0.763002878448     0.532058995798
           H          0.000000000000     0.763002878448     0.532058995798

  Running in c2v symmetry.

  Nuclear repulsion =    9.074523283333015

  Charge       = 0
  Multiplicity = 1
  Electrons    = 10
  Nalpha       = 5
  Nbeta        = 5

  ==> Algorithm <==

  SCF Algorithm Type is DF.
  DIIS enabled.
  MOM disabled.
  Fractional occupation disabled.
  Guess Type is CORE.
  Energy threshold   = 1.00e-08
  Density threshold  = 1.00e-08
  Integral threshold = 0.00e+00

  ==> Primary Basis <==

  Basis Set: 6-31G*
    Number of shells: 10
    Number of basis function: 19
    Number of Cartesian functions: 19
    Spherical Harmonics?: false
    Max angular momentum: 2

  ==> DFT Potential <==

   => B3LYP Composite Functional <= 

    B3LYP Hybrid-GGA Exchange-Correlation Functional

    P.J. Stephens et. al., J. Phys. Chem., 98, 11623-11627, 1994

    Points   =           5000
    Deriv    =              1
    GGA      =           TRUE
    Meta     =          FALSE

    X_LRC        =          FALSE
    X_Hybrid     =           TRUE
    X_Alpha      =   2.000000E-01
    X_Omega      =   0.000000E+00
    C_LRC        =          FALSE
    C_Hybrid     =          FALSE
    C_SCS_Hybrid =          FALSE
    C_Alpha      =   0.000000E+00
    C_SS_Alpha   =   0.000000E+00
    C_OS_Alpha   =   0.000000E+00

   => Exchange Functionals <=

    0.8000  B3_X
    0.2000    HF 

   => Correlation Functionals <=

    0.1900 VWN3RPA_C
    0.8100 LYP_C
    0.0000 DF-MP2 

   => Molecular Quadrature <=

    Radial Scheme    =       TREUTLER
    Pruning Scheme   =           FLAT
    Nuclear Scheme   =       TREUTLER

    BS radius alpha  =              1
    Pruning alpha    =              1
    Radial Points    =             75
    Spherical Points =            302
    Total Points     =          65483
    Total Blocks     =            111
    Max Points       =           1000
    Max Functions    =             19

  ==> Pre-Iterations <==

   -------------------------------------------------------
    Irrep   Nso     Nmo     Nalpha   Nbeta   Ndocc  Nsocc
   -------------------------------------------------------
     A1        10      10       0       0       0       0
     A2         1       1       0       0       0       0
     B1         3       3       0       0       0       0
     B2         5       5       0       0       0       0
   -------------------------------------------------------
    Total      19      19       5       5       5       0
   -------------------------------------------------------

  ==> Integral Setup <==

 OEINTS: Wrapper to libmints.
   by Justin Turney

   Calculation information:
      Number of atoms:                   3
      Number of AO shells:              10
      Number of SO shells:               8
      Number of primitives:             23
      Number of atomic orbitals:        19
      Number of basis functions:        19

      Number of irreps:                  4
      Number of functions per irrep: [  10    1    3    5 ]

      Overlap, kinetic, potential, dipole, and quadrupole integrals
        stored in file 35.

  ==> DFJK: Density-Fitted J/K Matrices <==

    J tasked:                  Yes
    K tasked:                  Yes
    wK tasked:                  No
    OpenMP threads:              1
    Integrals threads:           1
    Memory (MB):               178
    Algorithm:                Core
    Integral Cache:           NONE
    Schwarz Cutoff:          0E+00
    Fitting Condition:       1E-12

   => Auxiliary Basis Set <=

  Basis Set: cc-pvdz-jkfit
    Number of shells: 42
    Number of basis function: 131
    Number of Cartesian functions: 131
    Spherical Harmonics?: false
    Max angular momentum: 3

  Minimum eigenvalue in the overlap matrix is 2.2757958301E-02.
  Using Symmetric Orthogonalization.
  SCF Guess: Core (One-Electron) Hamiltonian.

  Initial RKS energy:   -58.56129546419940

  ==> Iterations <==

                        Total Energy        Delta E     RMS |[F,P]|

	Occupation by irrep:
	         A1    A2    B1    B2 
	DOCC [     4,    0,    0,    1 ]

   @RKS iter   1:   -69.23304825948435   -1.06718e+01   2.84048e-01 
	Occupation by irrep:
	         A1    A2    B1    B2 
	DOCC [     3,    0,    1,    1 ]

   @RKS iter   2:   -70.32129569629495   -1.08825e+00   2.40128e-01 DIIS
   @RKS iter   3:   -76.29502964716391   -5.97373e+00   4.28646e-02 DIIS
   @RKS iter   4:   -76.40740973340908   -1.12380e-01   4.86518e-03 DIIS
   @RKS iter   5:   -76.40892591199565   -1.51618e-03   6.98773e-04 DIIS
   @RKS iter   6:   -76.40895012018643   -2.42082e-05   1.78330e-04 DIIS
   @RKS iter   7:   -76.40895155178887   -1.43160e-06   5.22698e-05 DIIS
   @RKS iter   8:   -76.40895167690061   -1.25112e-07   7.22458e-06 DIIS
   @RKS iter   9:   -76.40895167925717   -2.35656e-09   2.57096e-07 DIIS
   @RKS iter  10:   -76.40895167926070   -3.52429e-12   3.80135e-09 DIIS

  ==> Post-Iterations <==

	Orbital Energies (a.u.)
	-----------------------

	Doubly Occupied:                                                      

	   1A1   -19.138372     2A1    -0.997228     1B2    -0.516739  
	   3A1    -0.371981     1B1    -0.291068  

	Virtual:                                                              

	   4A1     0.062226     2B2     0.147647     3B2     0.772117  
	   5A1     0.859395     2B1     0.890787     6A1     0.894896  
	   4B2     1.065577     7A1     1.192959     8A1     1.729833  
	   1A2     1.746773     3B1     1.780272     9A1     2.279010  
	   5B2     2.574727    10A1     3.551336  

	Final Occupation by Irrep:
	         A1    A2    B1    B2 
	DOCC [     3,    0,    1,    1 ]

  Energy converged.

  @RKS Final Energy:   -76.40895167926070

   => Energetics <=

    Nuclear Repulsion Energy =              9.0745232833330149
    One-Electron Energy =                -122.9128798433722238
    Two-Electron Energy =                  44.9835760758593537
    DFT Exchange-Correlation Energy =      -7.5541711950808335
    Empirical Dispersion Energy =           0.0000000000000000
    Total Energy =                        -76.4089516792606958



Properties will be evaluated at   0.000000,   0.000000,   0.000000 Bohr
  ==> Properties <==


Properties computed using the SCF density density matrix
  Nuclear Dipole Moment: (a.u.)
     X:     0.0000      Y:     0.0000      Z:     0.9973

  Electronic Dipole Moment: (a.u.)
     X:     0.0000      Y:     0.0000      Z:    -0.1731

  Dipole Moment: (a.u.)
     X:     0.0000      Y:     0.0000      Z:     0.8241     Total:     0.8241

  Dipole Moment: (Debye)
     X:     0.0000      Y:     0.0000      Z:     2.0947     Total:     2.0947


  Saving occupied orbitals to File 180.

*** tstop() called on ds18 at Mon Mar 25 16:21:01 2013
Module time:
	user time   =       1.23 seconds =       0.02 minutes
	system time =       0.00 seconds =       0.00 minutes
	total time  =          1 seconds =       0.02 minutes
Total time:
	user time   =       4.57 seconds =       0.08 minutes
	system time =       0.08 seconds =       0.00 minutes
	total time  =          4 seconds =       0.07 minutes

  No DF_BASIS_SCF auxiliary basis selected, defaulting to cc-pvdz-jkfit


*** tstart() called on ds18
*** at Mon Mar 25 16:21:01 2013


         ------------------------------------------------------------
                                   SCF GRAD                          
                          Rob Parrish, Justin Turney,                
                       Andy Simmonett, and Alex Sokolov              
         ------------------------------------------------------------

  ==> Geometry <==

    Molecular point group: c2v
    Full point group: C2v

    Geometry (in Angstrom), charge = 0, multiplicity = 1:

       Center              X                  Y                   Z       
    ------------   -----------------  -----------------  -----------------
           O          0.000000000000     0.000000000000    -0.067049107452
           H          0.000000000000    -0.763002878448     0.532058995798
           H          0.000000000000     0.763002878448     0.532058995798

  Nuclear repulsion =    9.074523283333015

  ==> Basis Set <==

  Basis Set: 6-31G*
    Number of shells: 10
    Number of basis function: 19
    Number of Cartesian functions: 19
    Spherical Harmonics?: false
    Max angular momentum: 2

  ==> DFJKGrad: Density-Fitted SCF Gradients <==

    Gradient:                    1
    J tasked:                  Yes
    K tasked:                  Yes
    wK tasked:                  No
    OpenMP threads:              1
    Integrals threads:           1
    Memory (MB):               178
    Schwarz Cutoff:          0E+00
    Fitting Condition:       1E-12

   => Auxiliary Basis Set <=

  Basis Set: cc-pvdz-jkfit
    Number of shells: 42
    Number of basis function: 116
    Number of Cartesian functions: 131
    Spherical Harmonics?: true
    Max angular momentum: 3

  ==> DFT Potential <==

   => B3LYP Composite Functional <= 

    B3LYP Hybrid-GGA Exchange-Correlation Functional

    P.J. Stephens et. al., J. Phys. Chem., 98, 11623-11627, 1994

    Points   =           5000
    Deriv    =              1
    GGA      =           TRUE
    Meta     =          FALSE

    X_LRC        =          FALSE
    X_Hybrid     =           TRUE
    X_Alpha      =   2.000000E-01
    X_Omega      =   0.000000E+00
    C_LRC        =          FALSE
    C_Hybrid     =          FALSE
    C_SCS_Hybrid =          FALSE
    C_Alpha      =   0.000000E+00
    C_SS_Alpha   =   0.000000E+00
    C_OS_Alpha   =   0.000000E+00

   => Exchange Functionals <=

    0.8000  B3_X
    0.2000    HF 

   => Correlation Functionals <=

    0.1900 VWN3RPA_C
    0.8100 LYP_C
    0.0000 DF-MP2 

   => Molecular Quadrature <=

    Radial Scheme    =       TREUTLER
    Pruning Scheme   =           FLAT
    Nuclear Scheme   =       TREUTLER

    BS radius alpha  =              1
    Pruning alpha    =              1
    Radial Points    =             75
    Spherical Points =            302
    Total Points     =          65483
    Total Blocks     =            111
    Max Points       =           1000
    Max Functions    =             19


  -Total Gradient:
     Atom            X                  Y                   Z
    ------   -----------------  -----------------  -----------------
       1       -0.000000000000     0.000000000001    -0.001333106934
       2       -0.000000000000    -0.001173137067     0.000655980659
       3        0.000000000000     0.001173137065     0.000655980658


*** tstop() called on ds18 at Mon Mar 25 16:21:02 2013
Module time:
	user time   =       0.31 seconds =       0.01 minutes
	system time =       0.01 seconds =       0.00 minutes
	total time  =          1 seconds =       0.02 minutes
Total time:
	user time   =       4.89 seconds =       0.08 minutes
	system time =       0.09 seconds =       0.00 minutes
	total time  =          5 seconds =       0.08 minutes

  //>>>>>>>>>>>>>>>>>>>>>>>>>>>>>>>>>>>//
  //    Loading displacement 4 of 6    //
  //<<<<<<<<<<<<<<<<<<<<<<<<<<<<<<<<<<<//

  No DF_BASIS_SCF auxiliary basis selected, defaulting to cc-pvdz-jkfit


*** tstart() called on ds18
*** at Mon Mar 25 16:21:02 2013

	There are an even number of electrons - assuming singlet.
	Specify the multiplicity with the MULTP option in the
	input if this is incorrect


         ---------------------------------------------------------
                                   SCF
            by Justin Turney, Rob Parrish, and Andy Simmonett
                              RKS Reference
                        1 Threads,    250 MiB Core
         ---------------------------------------------------------

  ==> Geometry <==

    Molecular point group: c2v
    Full point group: C2v

    Geometry (in Angstrom), charge = 0, multiplicity = 1:

       Center              X                  Y                   Z       
    ------------   -----------------  -----------------  -----------------
           O          0.000000000000     0.000000000000    -0.067049107452
           H          0.000000000000    -0.759275585199     0.532058995798
           H          0.000000000000     0.759275585199     0.532058995798

  Running in c2v symmetry.

  Nuclear repulsion =    9.102655259916370

  Charge       = 0
  Multiplicity = 1
  Electrons    = 10
  Nalpha       = 5
  Nbeta        = 5

  ==> Algorithm <==

  SCF Algorithm Type is DF.
  DIIS enabled.
  MOM disabled.
  Fractional occupation disabled.
  Guess Type is CORE.
  Energy threshold   = 1.00e-08
  Density threshold  = 1.00e-08
  Integral threshold = 0.00e+00

  ==> Primary Basis <==

  Basis Set: 6-31G*
    Number of shells: 10
    Number of basis function: 19
    Number of Cartesian functions: 19
    Spherical Harmonics?: false
    Max angular momentum: 2

  ==> DFT Potential <==

   => B3LYP Composite Functional <= 

    B3LYP Hybrid-GGA Exchange-Correlation Functional

    P.J. Stephens et. al., J. Phys. Chem., 98, 11623-11627, 1994

    Points   =           5000
    Deriv    =              1
    GGA      =           TRUE
    Meta     =          FALSE

    X_LRC        =          FALSE
    X_Hybrid     =           TRUE
    X_Alpha      =   2.000000E-01
    X_Omega      =   0.000000E+00
    C_LRC        =          FALSE
    C_Hybrid     =          FALSE
    C_SCS_Hybrid =          FALSE
    C_Alpha      =   0.000000E+00
    C_SS_Alpha   =   0.000000E+00
    C_OS_Alpha   =   0.000000E+00

   => Exchange Functionals <=

    0.8000  B3_X
    0.2000    HF 

   => Correlation Functionals <=

    0.1900 VWN3RPA_C
    0.8100 LYP_C
    0.0000 DF-MP2 

   => Molecular Quadrature <=

    Radial Scheme    =       TREUTLER
    Pruning Scheme   =           FLAT
    Nuclear Scheme   =       TREUTLER

    BS radius alpha  =              1
    Pruning alpha    =              1
    Radial Points    =             75
    Spherical Points =            302
    Total Points     =          65437
    Total Blocks     =            111
    Max Points       =           1000
    Max Functions    =             19

  ==> Pre-Iterations <==

   -------------------------------------------------------
    Irrep   Nso     Nmo     Nalpha   Nbeta   Ndocc  Nsocc
   -------------------------------------------------------
     A1        10      10       0       0       0       0
     A2         1       1       0       0       0       0
     B1         3       3       0       0       0       0
     B2         5       5       0       0       0       0
   -------------------------------------------------------
    Total      19      19       5       5       5       0
   -------------------------------------------------------

  ==> Integral Setup <==

 OEINTS: Wrapper to libmints.
   by Justin Turney

   Calculation information:
      Number of atoms:                   3
      Number of AO shells:              10
      Number of SO shells:               8
      Number of primitives:             23
      Number of atomic orbitals:        19
      Number of basis functions:        19

      Number of irreps:                  4
      Number of functions per irrep: [  10    1    3    5 ]

      Overlap, kinetic, potential, dipole, and quadrupole integrals
        stored in file 35.

  ==> DFJK: Density-Fitted J/K Matrices <==

    J tasked:                  Yes
    K tasked:                  Yes
    wK tasked:                  No
    OpenMP threads:              1
    Integrals threads:           1
    Memory (MB):               178
    Algorithm:                Core
    Integral Cache:           NONE
    Schwarz Cutoff:          0E+00
    Fitting Condition:       1E-12

   => Auxiliary Basis Set <=

  Basis Set: cc-pvdz-jkfit
    Number of shells: 42
    Number of basis function: 131
    Number of Cartesian functions: 131
    Spherical Harmonics?: false
    Max angular momentum: 3

  Minimum eigenvalue in the overlap matrix is 2.2647139895E-02.
  Using Symmetric Orthogonalization.
  SCF Guess: Core (One-Electron) Hamiltonian.

  Initial RKS energy:   -58.55013034869075

  ==> Iterations <==

                        Total Energy        Delta E     RMS |[F,P]|

	Occupation by irrep:
	         A1    A2    B1    B2 
	DOCC [     4,    0,    0,    1 ]

   @RKS iter   1:   -69.23734335946482   -1.06872e+01   2.84188e-01 
	Occupation by irrep:
	         A1    A2    B1    B2 
	DOCC [     3,    0,    1,    1 ]

   @RKS iter   2:   -70.32343092518136   -1.08609e+00   2.40246e-01 DIIS
   @RKS iter   3:   -76.29557841436250   -5.97215e+00   4.28243e-02 DIIS
   @RKS iter   4:   -76.40738652799521   -1.11808e-01   4.91267e-03 DIIS
   @RKS iter   5:   -76.40892355235617   -1.53702e-03   6.95778e-04 DIIS
   @RKS iter   6:   -76.40894772333135   -2.41710e-05   1.71490e-04 DIIS
   @RKS iter   7:   -76.40894905429302   -1.33096e-06   4.94638e-05 DIIS
   @RKS iter   8:   -76.40894916621113   -1.11918e-07   7.08969e-06 DIIS
   @RKS iter   9:   -76.40894916847822   -2.26709e-09   2.67280e-07 DIIS
   @RKS iter  10:   -76.40894916848214   -3.92220e-12   3.68704e-09 DIIS

  ==> Post-Iterations <==

	Orbital Energies (a.u.)
	-----------------------

	Doubly Occupied:                                                      

	   1A1   -19.138012     2A1    -0.998735     1B2    -0.517369  
	   3A1    -0.372738     1B1    -0.291372  

	Virtual:                                                              

	   4A1     0.062995     2B2     0.148629     3B2     0.772386  
	   5A1     0.862986     2B1     0.890702     6A1     0.895502  
	   4B2     1.066010     7A1     1.194436     8A1     1.728350  
	   1A2     1.746333     3B1     1.779490     9A1     2.282453  
	   5B2     2.579318    10A1     3.552327  

	Final Occupation by Irrep:
	         A1    A2    B1    B2 
	DOCC [     3,    0,    1,    1 ]

  Energy converged.

  @RKS Final Energy:   -76.40894916848214

   => Energetics <=

    Nuclear Repulsion Energy =              9.1026552599163697
    One-Electron Energy =                -122.9619701402865815
    Two-Electron Energy =                  45.0067089733673029
    DFT Exchange-Correlation Energy =      -7.5563432614792250
    Empirical Dispersion Energy =           0.0000000000000000
    Total Energy =                        -76.4089491684821240



Properties will be evaluated at   0.000000,   0.000000,   0.000000 Bohr
  ==> Properties <==


Properties computed using the SCF density density matrix
  Nuclear Dipole Moment: (a.u.)
     X:     0.0000      Y:     0.0000      Z:     0.9973

  Electronic Dipole Moment: (a.u.)
     X:     0.0000      Y:     0.0000      Z:    -0.1718

  Dipole Moment: (a.u.)
     X:     0.0000      Y:     0.0000      Z:     0.8254     Total:     0.8254

  Dipole Moment: (Debye)
     X:     0.0000      Y:     0.0000      Z:     2.0980     Total:     2.0980


  Saving occupied orbitals to File 180.

*** tstop() called on ds18 at Mon Mar 25 16:21:03 2013
Module time:
	user time   =       1.34 seconds =       0.02 minutes
	system time =       0.02 seconds =       0.00 minutes
	total time  =          1 seconds =       0.02 minutes
Total time:
	user time   =       6.25 seconds =       0.10 minutes
	system time =       0.11 seconds =       0.00 minutes
	total time  =          6 seconds =       0.10 minutes

  No DF_BASIS_SCF auxiliary basis selected, defaulting to cc-pvdz-jkfit


*** tstart() called on ds18
*** at Mon Mar 25 16:21:03 2013


         ------------------------------------------------------------
                                   SCF GRAD                          
                          Rob Parrish, Justin Turney,                
                       Andy Simmonett, and Alex Sokolov              
         ------------------------------------------------------------

  ==> Geometry <==

    Molecular point group: c2v
    Full point group: C2v

    Geometry (in Angstrom), charge = 0, multiplicity = 1:

       Center              X                  Y                   Z       
    ------------   -----------------  -----------------  -----------------
           O          0.000000000000     0.000000000000    -0.067049107452
           H          0.000000000000    -0.759275585199     0.532058995798
           H          0.000000000000     0.759275585199     0.532058995798

  Nuclear repulsion =    9.102655259916370

  ==> Basis Set <==

  Basis Set: 6-31G*
    Number of shells: 10
    Number of basis function: 19
    Number of Cartesian functions: 19
    Spherical Harmonics?: false
    Max angular momentum: 2

  ==> DFJKGrad: Density-Fitted SCF Gradients <==

    Gradient:                    1
    J tasked:                  Yes
    K tasked:                  Yes
    wK tasked:                  No
    OpenMP threads:              1
    Integrals threads:           1
    Memory (MB):               178
    Schwarz Cutoff:          0E+00
    Fitting Condition:       1E-12

   => Auxiliary Basis Set <=

  Basis Set: cc-pvdz-jkfit
    Number of shells: 42
    Number of basis function: 116
    Number of Cartesian functions: 131
    Spherical Harmonics?: true
    Max angular momentum: 3

  ==> DFT Potential <==

   => B3LYP Composite Functional <= 

    B3LYP Hybrid-GGA Exchange-Correlation Functional

    P.J. Stephens et. al., J. Phys. Chem., 98, 11623-11627, 1994

    Points   =           5000
    Deriv    =              1
    GGA      =           TRUE
    Meta     =          FALSE

    X_LRC        =          FALSE
    X_Hybrid     =           TRUE
    X_Alpha      =   2.000000E-01
    X_Omega      =   0.000000E+00
    C_LRC        =          FALSE
    C_Hybrid     =          FALSE
    C_SCS_Hybrid =          FALSE
    C_Alpha      =   0.000000E+00
    C_SS_Alpha   =   0.000000E+00
    C_OS_Alpha   =   0.000000E+00

   => Exchange Functionals <=

    0.8000  B3_X
    0.2000    HF 

   => Correlation Functionals <=

    0.1900 VWN3RPA_C
    0.8100 LYP_C
    0.0000 DF-MP2 

   => Molecular Quadrature <=

    Radial Scheme    =       TREUTLER
    Pruning Scheme   =           FLAT
    Nuclear Scheme   =       TREUTLER

    BS radius alpha  =              1
    Pruning alpha    =              1
    Radial Points    =             75
    Spherical Points =            302
    Total Points     =          65437
    Total Blocks     =            111
    Max Points       =           1000
    Max Functions    =             19


  -Total Gradient:
     Atom            X                  Y                   Z
    ------   -----------------  -----------------  -----------------
       1       -0.000000000000     0.000000000006     0.001302304130
       2       -0.000000000000     0.001552377210    -0.000661420386
       3       -0.000000000000    -0.001552377216    -0.000661420390


*** tstop() called on ds18 at Mon Mar 25 16:21:03 2013
Module time:
	user time   =       0.31 seconds =       0.01 minutes
	system time =       0.00 seconds =       0.00 minutes
	total time  =          0 seconds =       0.00 minutes
Total time:
	user time   =       6.57 seconds =       0.11 minutes
	system time =       0.11 seconds =       0.00 minutes
	total time  =          6 seconds =       0.10 minutes

  //>>>>>>>>>>>>>>>>>>>>>>>>>>>>>>>>>>>//
  //    Loading displacement 5 of 6    //
  //<<<<<<<<<<<<<<<<<<<<<<<<<<<<<<<<<<<//

  No DF_BASIS_SCF auxiliary basis selected, defaulting to cc-pvdz-jkfit


*** tstart() called on ds18
*** at Mon Mar 25 16:21:03 2013

	There are an even number of electrons - assuming singlet.
	Specify the multiplicity with the MULTP option in the
	input if this is incorrect


         ---------------------------------------------------------
                                   SCF
            by Justin Turney, Rob Parrish, and Andy Simmonett
                              RKS Reference
                        1 Threads,    250 MiB Core
         ---------------------------------------------------------

  ==> Geometry <==

    Molecular point group: cs
    Full point group: Cs

    Geometry (in Angstrom), charge = 0, multiplicity = 1:

       Center              X                  Y                   Z       
    ------------   -----------------  -----------------  -----------------
           O          0.000000000000    -0.000177757256    -0.067049107452
           H          0.000000000000    -0.759728663498     0.530948708904
           H          0.000000000000     0.762549800148     0.533169282692

  Running in cs symmetry.

  Nuclear repulsion =    9.088607846093822

  Charge       = 0
  Multiplicity = 1
  Electrons    = 10
  Nalpha       = 5
  Nbeta        = 5

  ==> Algorithm <==

  SCF Algorithm Type is DF.
  DIIS enabled.
  MOM disabled.
  Fractional occupation disabled.
  Guess Type is CORE.
  Energy threshold   = 1.00e-08
  Density threshold  = 1.00e-08
  Integral threshold = 0.00e+00

  ==> Primary Basis <==

  Basis Set: 6-31G*
    Number of shells: 10
    Number of basis function: 19
    Number of Cartesian functions: 19
    Spherical Harmonics?: false
    Max angular momentum: 2

  ==> DFT Potential <==

   => B3LYP Composite Functional <= 

    B3LYP Hybrid-GGA Exchange-Correlation Functional

    P.J. Stephens et. al., J. Phys. Chem., 98, 11623-11627, 1994

    Points   =           5000
    Deriv    =              1
    GGA      =           TRUE
    Meta     =          FALSE

    X_LRC        =          FALSE
    X_Hybrid     =           TRUE
    X_Alpha      =   2.000000E-01
    X_Omega      =   0.000000E+00
    C_LRC        =          FALSE
    C_Hybrid     =          FALSE
    C_SCS_Hybrid =          FALSE
    C_Alpha      =   0.000000E+00
    C_SS_Alpha   =   0.000000E+00
    C_OS_Alpha   =   0.000000E+00

   => Exchange Functionals <=

    0.8000  B3_X
    0.2000    HF 

   => Correlation Functionals <=

    0.1900 VWN3RPA_C
    0.8100 LYP_C
    0.0000 DF-MP2 

   => Molecular Quadrature <=

    Radial Scheme    =       TREUTLER
    Pruning Scheme   =           FLAT
    Nuclear Scheme   =       TREUTLER

    BS radius alpha  =              1
    Pruning alpha    =              1
    Radial Points    =             75
    Spherical Points =            302
    Total Points     =          65454
    Total Blocks     =            113
    Max Points       =            991
    Max Functions    =             19

  ==> Pre-Iterations <==

   -------------------------------------------------------
    Irrep   Nso     Nmo     Nalpha   Nbeta   Ndocc  Nsocc
   -------------------------------------------------------
     A'        15      15       0       0       0       0
     A"         4       4       0       0       0       0
   -------------------------------------------------------
    Total      19      19       5       5       5       0
   -------------------------------------------------------

  ==> Integral Setup <==

 OEINTS: Wrapper to libmints.
   by Justin Turney

   Calculation information:
      Number of atoms:                   3
      Number of AO shells:              10
      Number of SO shells:              10
      Number of primitives:             23
      Number of atomic orbitals:        19
      Number of basis functions:        19

      Number of irreps:                  2
      Number of functions per irrep: [  15    4 ]

      Overlap, kinetic, potential, dipole, and quadrupole integrals
        stored in file 35.

  ==> DFJK: Density-Fitted J/K Matrices <==

    J tasked:                  Yes
    K tasked:                  Yes
    wK tasked:                  No
    OpenMP threads:              1
    Integrals threads:           1
    Memory (MB):               178
    Algorithm:                Core
    Integral Cache:           NONE
    Schwarz Cutoff:          0E+00
    Fitting Condition:       1E-12

   => Auxiliary Basis Set <=

  Basis Set: cc-pvdz-jkfit
    Number of shells: 42
    Number of basis function: 131
    Number of Cartesian functions: 131
    Spherical Harmonics?: false
    Max angular momentum: 3

  Minimum eigenvalue in the overlap matrix is 2.2702133580E-02.
  Using Symmetric Orthogonalization.
  SCF Guess: Core (One-Electron) Hamiltonian.

  Initial RKS energy:   -58.55570815026132

  ==> Iterations <==

                        Total Energy        Delta E     RMS |[F,P]|

	Occupation by irrep:
	         A'    A" 
	DOCC [     5,    0 ]

   @RKS iter   1:   -69.23519884840591   -1.06795e+01   2.12647e-01 
	Occupation by irrep:
	         A'    A" 
	DOCC [     4,    1 ]

   @RKS iter   2:   -70.32237823253605   -1.08718e+00   1.79767e-01 DIIS
   @RKS iter   3:   -76.29530602026148   -5.97293e+00   3.20652e-02 DIIS
   @RKS iter   4:   -76.40739674279116   -1.12091e-01   3.65794e-03 DIIS
   @RKS iter   5:   -76.40892246741534   -1.52572e-03   5.22334e-04 DIIS
   @RKS iter   6:   -76.40894670605032   -2.42386e-05   1.31024e-04 DIIS
   @RKS iter   7:   -76.40894808941867   -1.38337e-06   3.81232e-05 DIIS
   @RKS iter   8:   -76.40894820785255   -1.18434e-07   5.71842e-06 DIIS
   @RKS iter   9:   -76.40894821045453   -2.60198e-09   7.61011e-07 DIIS
   @RKS iter  10:   -76.40894821050529   -5.07612e-11   4.44370e-08 DIIS
   @RKS iter  11:   -76.40894821050537   -8.52651e-14   1.02114e-09 DIIS

  ==> Post-Iterations <==

	Orbital Energies (a.u.)
	-----------------------

	Doubly Occupied:                                                      

	   1A'   -19.138192     2A'    -0.997983     3A'    -0.517055  
	   4A'    -0.372359     1A"    -0.291220  

	Virtual:                                                              

	   5A'     0.062606     6A'     0.148141     7A'     0.772230  
	   8A'     0.861239     2A"     0.890745     9A'     0.895175  
	  10A'     1.065796    11A'     1.193700    12A'     1.729092  
	   3A"     1.746551     4A"     1.779883    13A'     2.280698  
	  14A'     2.577062    15A'     3.551836  

	Final Occupation by Irrep:
	         A'    A" 
	DOCC [     4,    1 ]

  Energy converged.

  @RKS Final Energy:   -76.40894821050537

   => Energetics <=

    Nuclear Repulsion Energy =              9.0886078460938222
    One-Electron Energy =                -122.9374533910886811
    Two-Electron Energy =                  44.9951562514750023
    DFT Exchange-Correlation Energy =      -7.5552589169855153
    Empirical Dispersion Energy =           0.0000000000000000
    Total Energy =                        -76.4089482105053719



Properties will be evaluated at   0.000000,   0.000000,   0.000000 Bohr
  ==> Properties <==


Properties computed using the SCF density density matrix
  Nuclear Dipole Moment: (a.u.)
     X:     0.0000      Y:     0.0026      Z:     0.9973

  Electronic Dipole Moment: (a.u.)
     X:     0.0000      Y:    -0.0019      Z:    -0.1725

  Dipole Moment: (a.u.)
     X:     0.0000      Y:     0.0007      Z:     0.8248     Total:     0.8248

  Dipole Moment: (Debye)
     X:     0.0000      Y:     0.0018      Z:     2.0963     Total:     2.0963


  Saving occupied orbitals to File 180.

*** tstop() called on ds18 at Mon Mar 25 16:21:05 2013
Module time:
	user time   =       1.34 seconds =       0.02 minutes
	system time =       0.01 seconds =       0.00 minutes
	total time  =          2 seconds =       0.03 minutes
Total time:
	user time   =       7.92 seconds =       0.13 minutes
	system time =       0.12 seconds =       0.00 minutes
	total time  =          8 seconds =       0.13 minutes

  No DF_BASIS_SCF auxiliary basis selected, defaulting to cc-pvdz-jkfit


*** tstart() called on ds18
*** at Mon Mar 25 16:21:05 2013


         ------------------------------------------------------------
                                   SCF GRAD                          
                          Rob Parrish, Justin Turney,                
                       Andy Simmonett, and Alex Sokolov              
         ------------------------------------------------------------

  ==> Geometry <==

    Molecular point group: cs
    Full point group: Cs

    Geometry (in Angstrom), charge = 0, multiplicity = 1:

       Center              X                  Y                   Z       
    ------------   -----------------  -----------------  -----------------
           O          0.000000000000    -0.000177757256    -0.067049107452
           H          0.000000000000    -0.759728663498     0.530948708904
           H          0.000000000000     0.762549800148     0.533169282692

  Nuclear repulsion =    9.088607846093822

  ==> Basis Set <==

  Basis Set: 6-31G*
    Number of shells: 10
    Number of basis function: 19
    Number of Cartesian functions: 19
    Spherical Harmonics?: false
    Max angular momentum: 2

  ==> DFJKGrad: Density-Fitted SCF Gradients <==

    Gradient:                    1
    J tasked:                  Yes
    K tasked:                  Yes
    wK tasked:                  No
    OpenMP threads:              1
    Integrals threads:           1
    Memory (MB):               178
    Schwarz Cutoff:          0E+00
    Fitting Condition:       1E-12

   => Auxiliary Basis Set <=

  Basis Set: cc-pvdz-jkfit
    Number of shells: 42
    Number of basis function: 116
    Number of Cartesian functions: 131
    Spherical Harmonics?: true
    Max angular momentum: 3

  ==> DFT Potential <==

   => B3LYP Composite Functional <= 

    B3LYP Hybrid-GGA Exchange-Correlation Functional

    P.J. Stephens et. al., J. Phys. Chem., 98, 11623-11627, 1994

    Points   =           5000
    Deriv    =              1
    GGA      =           TRUE
    Meta     =          FALSE

    X_LRC        =          FALSE
    X_Hybrid     =           TRUE
    X_Alpha      =   2.000000E-01
    X_Omega      =   0.000000E+00
    C_LRC        =          FALSE
    C_Hybrid     =          FALSE
    C_SCS_Hybrid =          FALSE
    C_Alpha      =   0.000000E+00
    C_SS_Alpha   =   0.000000E+00
    C_OS_Alpha   =   0.000000E+00

   => Exchange Functionals <=

    0.8000  B3_X
    0.2000    HF 

   => Correlation Functionals <=

    0.1900 VWN3RPA_C
    0.8100 LYP_C
    0.0000 DF-MP2 

   => Molecular Quadrature <=

    Radial Scheme    =       TREUTLER
    Pruning Scheme   =           FLAT
    Nuclear Scheme   =       TREUTLER

    BS radius alpha  =              1
    Pruning alpha    =              1
    Radial Points    =             75
    Spherical Points =            302
    Total Points     =          65454
    Total Blocks     =            113
    Max Points       =            991
    Max Functions    =             19


  -Total Gradient:
     Atom            X                  Y                   Z
    ------   -----------------  -----------------  -----------------
       1       -0.000000000000    -0.003016672589    -0.000008544607
       2        0.000000000000     0.001700925780    -0.001192065215
       3        0.000000000000     0.001313195923     0.001179881089


*** tstop() called on ds18 at Mon Mar 25 16:21:05 2013
Module time:
	user time   =       0.31 seconds =       0.01 minutes
	system time =       0.00 seconds =       0.00 minutes
	total time  =          0 seconds =       0.00 minutes
Total time:
	user time   =       8.24 seconds =       0.14 minutes
	system time =       0.12 seconds =       0.00 minutes
	total time  =          8 seconds =       0.13 minutes

  //>>>>>>>>>>>>>>>>>>>>>>>>>>>>>>>>>>>//
  //    Loading displacement 6 of 6    //
  //<<<<<<<<<<<<<<<<<<<<<<<<<<<<<<<<<<<//

  No DF_BASIS_SCF auxiliary basis selected, defaulting to cc-pvdz-jkfit


*** tstart() called on ds18
*** at Mon Mar 25 16:21:05 2013

	There are an even number of electrons - assuming singlet.
	Specify the multiplicity with the MULTP option in the
	input if this is incorrect


         ---------------------------------------------------------
                                   SCF
            by Justin Turney, Rob Parrish, and Andy Simmonett
                              RKS Reference
                        1 Threads,    250 MiB Core
         ---------------------------------------------------------

  ==> Geometry <==

    Molecular point group: c2v
    Full point group: C2v

    Geometry (in Angstrom), charge = 0, multiplicity = 1:

       Center              X                  Y                   Z       
    ------------   -----------------  -----------------  -----------------
           O          0.000000000000     0.000000000000    -0.067049107452
           H          0.000000000000    -0.761139231823     0.532058995798
           H          0.000000000000     0.761139231823     0.532058995798

  Running in c2v symmetry.

  Nuclear repulsion =    9.088573397977537

  Charge       = 0
  Multiplicity = 1
  Electrons    = 10
  Nalpha       = 5
  Nbeta        = 5

  ==> Algorithm <==

  SCF Algorithm Type is DF.
  DIIS enabled.
  MOM disabled.
  Fractional occupation disabled.
  Guess Type is CORE.
  Energy threshold   = 1.00e-08
  Density threshold  = 1.00e-08
  Integral threshold = 0.00e+00

  ==> Primary Basis <==

  Basis Set: 6-31G*
    Number of shells: 10
    Number of basis function: 19
    Number of Cartesian functions: 19
    Spherical Harmonics?: false
    Max angular momentum: 2

  ==> DFT Potential <==

   => B3LYP Composite Functional <= 

    B3LYP Hybrid-GGA Exchange-Correlation Functional

    P.J. Stephens et. al., J. Phys. Chem., 98, 11623-11627, 1994

    Points   =           5000
    Deriv    =              1
    GGA      =           TRUE
    Meta     =          FALSE

    X_LRC        =          FALSE
    X_Hybrid     =           TRUE
    X_Alpha      =   2.000000E-01
    X_Omega      =   0.000000E+00
    C_LRC        =          FALSE
    C_Hybrid     =          FALSE
    C_SCS_Hybrid =          FALSE
    C_Alpha      =   0.000000E+00
    C_SS_Alpha   =   0.000000E+00
    C_OS_Alpha   =   0.000000E+00

   => Exchange Functionals <=

    0.8000  B3_X
    0.2000    HF 

   => Correlation Functionals <=

    0.1900 VWN3RPA_C
    0.8100 LYP_C
    0.0000 DF-MP2 

   => Molecular Quadrature <=

    Radial Scheme    =       TREUTLER
    Pruning Scheme   =           FLAT
    Nuclear Scheme   =       TREUTLER

    BS radius alpha  =              1
    Pruning alpha    =              1
    Radial Points    =             75
    Spherical Points =            302
    Total Points     =          65471
    Total Blocks     =            111
    Max Points       =           1000
    Max Functions    =             19

  ==> Pre-Iterations <==

   -------------------------------------------------------
    Irrep   Nso     Nmo     Nalpha   Nbeta   Ndocc  Nsocc
   -------------------------------------------------------
     A1        10      10       0       0       0       0
     A2         1       1       0       0       0       0
     B1         3       3       0       0       0       0
     B2         5       5       0       0       0       0
   -------------------------------------------------------
    Total      19      19       5       5       5       0
   -------------------------------------------------------

  ==> Integral Setup <==

 OEINTS: Wrapper to libmints.
   by Justin Turney

   Calculation information:
      Number of atoms:                   3
      Number of AO shells:              10
      Number of SO shells:               8
      Number of primitives:             23
      Number of atomic orbitals:        19
      Number of basis functions:        19

      Number of irreps:                  4
      Number of functions per irrep: [  10    1    3    5 ]

      Overlap, kinetic, potential, dipole, and quadrupole integrals
        stored in file 35.

  ==> DFJK: Density-Fitted J/K Matrices <==

    J tasked:                  Yes
    K tasked:                  Yes
    wK tasked:                  No
    OpenMP threads:              1
    Integrals threads:           1
    Memory (MB):               178
    Algorithm:                Core
    Integral Cache:           NONE
    Schwarz Cutoff:          0E+00
    Fitting Condition:       1E-12

   => Auxiliary Basis Set <=

  Basis Set: cc-pvdz-jkfit
    Number of shells: 42
    Number of basis function: 131
    Number of Cartesian functions: 131
    Spherical Harmonics?: false
    Max angular momentum: 3

  Minimum eigenvalue in the overlap matrix is 2.2702475824E-02.
  Using Symmetric Orthogonalization.
  SCF Guess: Core (One-Electron) Hamiltonian.

  Initial RKS energy:   -58.55571902028429

  ==> Iterations <==

                        Total Energy        Delta E     RMS |[F,P]|

	Occupation by irrep:
	         A1    A2    B1    B2 
	DOCC [     4,    0,    0,    1 ]

   @RKS iter   1:   -69.23519881782765   -1.06795e+01   2.84118e-01 
	Occupation by irrep:
	         A1    A2    B1    B2 
	DOCC [     3,    0,    1,    1 ]

   @RKS iter   2:   -70.32236410910826   -1.08717e+00   2.40187e-01 DIIS
   @RKS iter   3:   -76.29530871326730   -5.97294e+00   4.28446e-02 DIIS
   @RKS iter   4:   -76.40740283972293   -1.12094e-01   4.88913e-03 DIIS
   @RKS iter   5:   -76.40892953573022   -1.52670e-03   6.97208e-04 DIIS
   @RKS iter   6:   -76.40895372225677   -2.41865e-05   1.74875e-04 DIIS
   @RKS iter   7:   -76.40895510257357   -1.38032e-06   5.08519e-05 DIIS
   @RKS iter   8:   -76.40895522092391   -1.18350e-07   7.15976e-06 DIIS
   @RKS iter   9:   -76.40895522323727   -2.31336e-09   2.62188e-07 DIIS
   @RKS iter  10:   -76.40895522324085   -3.58114e-12   3.73735e-09 DIIS

  ==> Post-Iterations <==

	Orbital Energies (a.u.)
	-----------------------

	Doubly Occupied:                                                      

	   1A1   -19.138192     2A1    -0.997979     1B2    -0.517055  
	   3A1    -0.372359     1B1    -0.291220  

	Virtual:                                                              

	   4A1     0.062612     2B2     0.148138     3B2     0.772252  
	   5A1     0.861209     2B1     0.890745     6A1     0.895176  
	   4B2     1.065790     7A1     1.193698     8A1     1.729093  
	   1A2     1.746552     3B1     1.779882     9A1     2.280726  
	   5B2     2.577029    10A1     3.551833  

	Final Occupation by Irrep:
	         A1    A2    B1    B2 
	DOCC [     3,    0,    1,    1 ]

  Energy converged.

  @RKS Final Energy:   -76.40895522324085

   => Energetics <=

    Nuclear Repulsion Energy =              9.0885733979775374
    One-Electron Energy =                -122.9374065386908086
    Two-Electron Energy =                  44.9951340498710621
    DFT Exchange-Correlation Energy =      -7.5552561323986476
    Empirical Dispersion Energy =           0.0000000000000000
    Total Energy =                        -76.4089552232408664



Properties will be evaluated at   0.000000,   0.000000,   0.000000 Bohr
  ==> Properties <==


Properties computed using the SCF density density matrix
  Nuclear Dipole Moment: (a.u.)
     X:     0.0000      Y:     0.0000      Z:     0.9973

  Electronic Dipole Moment: (a.u.)
     X:     0.0000      Y:     0.0000      Z:    -0.1725

  Dipole Moment: (a.u.)
     X:     0.0000      Y:     0.0000      Z:     0.8248     Total:     0.8248

  Dipole Moment: (Debye)
     X:     0.0000      Y:     0.0000      Z:     2.0963     Total:     2.0963


  Saving occupied orbitals to File 180.

*** tstop() called on ds18 at Mon Mar 25 16:21:06 2013
Module time:
	user time   =       1.29 seconds =       0.02 minutes
	system time =       0.01 seconds =       0.00 minutes
	total time  =          1 seconds =       0.02 minutes
Total time:
	user time   =       9.55 seconds =       0.16 minutes
	system time =       0.13 seconds =       0.00 minutes
	total time  =          9 seconds =       0.15 minutes

  No DF_BASIS_SCF auxiliary basis selected, defaulting to cc-pvdz-jkfit


*** tstart() called on ds18
*** at Mon Mar 25 16:21:06 2013


         ------------------------------------------------------------
                                   SCF GRAD                          
                          Rob Parrish, Justin Turney,                
                       Andy Simmonett, and Alex Sokolov              
         ------------------------------------------------------------

  ==> Geometry <==

    Molecular point group: c2v
    Full point group: C2v

    Geometry (in Angstrom), charge = 0, multiplicity = 1:

       Center              X                  Y                   Z       
    ------------   -----------------  -----------------  -----------------
           O          0.000000000000     0.000000000000    -0.067049107452
           H          0.000000000000    -0.761139231823     0.532058995798
           H          0.000000000000     0.761139231823     0.532058995798

  Nuclear repulsion =    9.088573397977537

  ==> Basis Set <==

  Basis Set: 6-31G*
    Number of shells: 10
    Number of basis function: 19
    Number of Cartesian functions: 19
    Spherical Harmonics?: false
    Max angular momentum: 2

  ==> DFJKGrad: Density-Fitted SCF Gradients <==

    Gradient:                    1
    J tasked:                  Yes
    K tasked:                  Yes
    wK tasked:                  No
    OpenMP threads:              1
    Integrals threads:           1
    Memory (MB):               178
    Schwarz Cutoff:          0E+00
    Fitting Condition:       1E-12

   => Auxiliary Basis Set <=

  Basis Set: cc-pvdz-jkfit
    Number of shells: 42
    Number of basis function: 116
    Number of Cartesian functions: 131
    Spherical Harmonics?: true
    Max angular momentum: 3

  ==> DFT Potential <==

   => B3LYP Composite Functional <= 

    B3LYP Hybrid-GGA Exchange-Correlation Functional

    P.J. Stephens et. al., J. Phys. Chem., 98, 11623-11627, 1994

    Points   =           5000
    Deriv    =              1
    GGA      =           TRUE
    Meta     =          FALSE

    X_LRC        =          FALSE
    X_Hybrid     =           TRUE
    X_Alpha      =   2.000000E-01
    X_Omega      =   0.000000E+00
    C_LRC        =          FALSE
    C_Hybrid     =          FALSE
    C_SCS_Hybrid =          FALSE
    C_Alpha      =   0.000000E+00
    C_SS_Alpha   =   0.000000E+00
    C_OS_Alpha   =   0.000000E+00

   => Exchange Functionals <=

    0.8000  B3_X
    0.2000    HF 

   => Correlation Functionals <=

    0.1900 VWN3RPA_C
    0.8100 LYP_C
    0.0000 DF-MP2 

   => Molecular Quadrature <=

    Radial Scheme    =       TREUTLER
    Pruning Scheme   =           FLAT
    Nuclear Scheme   =       TREUTLER

    BS radius alpha  =              1
    Pruning alpha    =              1
    Radial Points    =             75
    Spherical Points =            302
    Total Points     =          65471
    Total Blocks     =            111
    Max Points       =           1000
    Max Functions    =             19


  -Total Gradient:
     Atom            X                  Y                   Z
    ------   -----------------  -----------------  -----------------
       1        0.000000000000    -0.000000000004    -0.000025194634
       2       -0.000000000000     0.000183986096     0.000002171969
       3       -0.000000000000    -0.000183986092     0.000002171971


*** tstop() called on ds18 at Mon Mar 25 16:21:07 2013
Module time:
	user time   =       0.31 seconds =       0.01 minutes
	system time =       0.02 seconds =       0.00 minutes
	total time  =          1 seconds =       0.02 minutes
Total time:
	user time   =       9.87 seconds =       0.16 minutes
	system time =       0.15 seconds =       0.00 minutes
	total time  =         10 seconds =       0.17 minutes

-------------------------------------------------------------

  Computing second-derivative from gradients using projected, 
  symmetry-adapted, cartesian coordinates (fd_freq_1).

  6 gradients passed in, including the reference geometry.
  Generating complete list of displacements from unique ones.

	Operation 2 takes plus displacements of irrep B2 to minus ones.

	  Irrep      Harmonic Frequency   
	                  (cm-1)          
	-----------------------------------------------
	     A1         1713.3427  
	     A1         3728.4894  
	     B2         3850.1412  
	-----------------------------------------------

	Normal Modes (mass-weighted).
	Molecular mass is   18.01056 amu.
	Frequencies in cm^-1; force constants in au.

   Frequency:       1713.34
   Force constant:   0.1111
	     X       Y       Z           mass	
  O 	   0.000   0.000  -0.271      15.994915
  H 	   0.000   0.414   0.540       1.007825
  H 	   0.000  -0.414   0.540       1.007825

   Frequency:       3728.49
   Force constant:   0.5261
	     X       Y       Z           mass	
  O 	   0.000   0.000   0.196      15.994915
  H 	   0.000   0.573  -0.390       1.007825
  H 	   0.000  -0.573  -0.390       1.007825

   Frequency:       3850.14
   Force constant:   0.5610
	     X       Y       Z           mass	
  O 	   0.000   0.269   0.000      15.994915
  H 	   0.000  -0.535   0.421       1.007825
  H 	   0.000  -0.535  -0.421       1.007825

-------------------------------------------------------------

            *********************************************
            * Thermodynamic Analysis by R.A. King, 2012 *
            *********************************************

    Full point group: Cnv (C2v)

    Data used to determine thermochemical information:
    Temperature (K):          298.15
    Pressure (Pa)  :       101325.00
    Multiplicity   :               1
    Rotor type     :  ASYMMETRIC_TOP
    Rotational symmetry number :   2

    Rotational constants:
           wavenumbers          GHz
        A:   26.237133    786.56945
        B:   14.436208    432.78664
        C:    9.312358    279.17747

    Nuclear masses:
         15.994915  1.007825  1.007825

    No.    Vib. Freq. (cm^-1)      Vib. Temp. (K)
      1              1713.343            2465.115
      2              3728.489            5364.458
      3              3850.141            5539.488

    Component        Thermal Energy             Cv              S
                           kcal/mol    cal/(mol K)    cal/(mol K) 
    Electronic                0.000          0.000          0.000
    Translational             0.889          2.981         34.608
    Rotational                0.889          2.981         10.524
    Vibrational              13.285          0.035          0.005
    Total                    15.062          5.997         45.137

                               cm^(-1)              au        kcal/mol
    Zero-point energy        4645.9867      0.02116867         13.2835

    Energies in Hartree/particle:   Correction            Total
    Energy (0 K)                    0.02116867     -76.38778655
    Internal energy                 0.02400323     -76.38495199
    Enthalpy                        0.02494742     -76.38400780
    Gibbs Free Energy               0.00350143     -76.40545379

*** PSI4 exiting successfully. Buy a developer a beer!
