    -----------------------------------------------------------------------
          PSI4: An Open-Source Ab Initio Electronic Structure Package
                              PSI 4.0.0-beta2+ Driver

               Git: Rev 3034b1730e8de3189fdd759e7001366ccfeb8a22

    J. M. Turney, A. C. Simmonett, R. M. Parrish, E. G. Hohenstein,
    F. A. Evangelista, J. T. Fermann, B. J. Mintz, L. A. Burns, J. J. Wilke,
    M. L. Abrams, N. J. Russ, M. L. Leininger, C. L. Janssen, E. T. Seidl,
    W. D. Allen, H. F. Schaefer, R. A. King, E. F. Valeev, C. D. Sherrill,
    and T. D. Crawford, WIREs Comput. Mol. Sci., (2011) (doi: 10.1002/wcms.93)

                         Additional Contributions by
    A. E. DePrince, M. Saitow, U. Bozkaya, A. Yu. Sokolov
    -----------------------------------------------------------------------

    Process ID:  95611
    PSI4DATADIR: /Users/loriab/linux/psi4_efp_nowcurrent/psi4/objdir/../lib

    Using LocalCommunicator (Number of processes = 1)

    Memory level set to 256.000 MB

  ==> Input File <==

--------------------------------------------------------------------------
#! DF-BP86-D2 cc-pVDZ frozen core gradient of S22 HCN

ref_bp86d2 = [
             [  0.000471372941,    -0.006768222864,     0.000000000000],  #TEST
             [  0.000447936019,    -0.006988081177,    -0.000000000000],  #TEST
             [ -0.000919105947,     0.013753536153,    -0.000000000000]]  #TEST

ref = PsiMod.Matrix(3, 3)                                                 #TEST
ref.set(ref_bp86d2)                                                       #TEST

memory 250 mb
molecule {
  0 1
  N    -0.0034118    3.5353926    0.0000000
  C     0.0751963    2.3707040    0.0000000
  H     0.1476295    1.3052847    0.0000000
}


set {
    scf_type      df
    basis         cc-pvdz
    freeze_core   true
}

gradient('bp86-d')
grad = PsiMod.reference_wavefunction().gradient()                          #TEST
compare_matrices(ref, grad, 7, "Analytic dft gradients called by name")    #TEST
clean()


set {
    dft_functional bp86-d
    reference rks
}

gradient('bp86-d')
grad = PsiMod.reference_wavefunction().gradient()                          #TEST
compare_matrices(ref, grad, 7, "Analytic dft gradients called by options") #TEST
--------------------------------------------------------------------------

  Memory set to 250.000 MiB by Python script.

No DF_BASIS_SCF auxiliary basis selected, defaulting to cc-pvdz-jkfit


*** tstart() called on localhost
*** at Sat Jul 28 02:55:32 2012


         ---------------------------------------------------------
                                   SCF
            by Justin Turney, Rob Parrish, and Andy Simmonett
                              RKS Reference
                        1 Threads,    250 MiB Core
         ---------------------------------------------------------

  ==> Geometry <==

    Molecular point group: cs
    Full point group: Cs

    Geometry (in Angstrom), charge = 0, multiplicity = 1:

       Center              X                  Y                   Z       
    ------------   -----------------  -----------------  -----------------
           N         -0.040558457589     0.600639828526     0.000000000000
           C          0.038049642411    -0.564048771474     0.000000000000
           H          0.110482842411    -1.629468071474     0.000000000000

  Running in cs symmetry.

  Nuclear repulsion =   23.669879231087002

  Charge       = 0
  Multiplicity = 1
  Electrons    = 14
  Nalpha       = 7
  Nbeta        = 7

  ==> Algorithm <==

  SCF Algorithm Type is DF.
  DIIS enabled.
  MOM disabled.
  Fractional occupation disabled.
  Guess Type is CORE.
  Energy threshold   = 1.00e-08
  Density threshold  = 1.00e-08
  Integral threshold = 0.00e+00

  ==> Primary Basis <==

  Basis Set: CC-PVDZ
    Number of shells: 15
    Number of basis function: 33
    Number of Cartesian functions: 35
    Spherical Harmonics?: true
    Max angular momentum: 2

  ==> DFT Potential <==

   => BP86-D Composite Functional <= 

    BP86 GGA Exchange-Correlation Functional

    Null

    Points   =           5000
    Deriv    =              1
    GGA      =           TRUE
    Meta     =          FALSE

    X_LRC        =          FALSE
    X_Hybrid     =          FALSE
    X_Alpha      =   0.000000E+00
    X_Omega      =   0.000000E+00
    C_LRC        =          FALSE
    C_Hybrid     =          FALSE
    C_SCS_Hybrid =          FALSE
    C_Alpha      =   0.000000E+00
    C_SS_Alpha   =   0.000000E+00
    C_OS_Alpha   =   0.000000E+00

   => Exchange Functionals <=

    1.0000 B88_X

   => Correlation Functionals <=

    1.0000 P86_C
    0.0000 DF-MP2 

   => -D2: Empirical Dispersion <=

    Grimme's -D2 Dispersion Correction

    Grimme, S. (2006),  J. Comp. Chem., 27: 1787-1799

    S6 =   1.050000E+00

   => Molecular Quadrature <=

    Spherical Scheme = Lebedev-Laikov
    Radial Scheme    =       Treutler
    Atomic Scheme    =       Treutler

    Spherical Points =            302
    Radial Points    =             99
    Total Points     =          86161
    Total Blocks     =            145
    Max Points       =            971
    Max Functions    =             33

  ==> Pre-Iterations <==

   -------------------------------------------------------
    Irrep   Nso     Nmo     Nalpha   Nbeta   Ndocc  Nsocc
   -------------------------------------------------------
     A'        24      24       0       0       0       0
     A"         9       9       0       0       0       0
   -------------------------------------------------------
    Total      33      33       7       7       7       0
   -------------------------------------------------------

  ==> Integral Setup <==

 OEINTS: Wrapper to libmints.
   by Justin Turney

   Calculation information:
      Number of atoms:                   3
      Number of AO shells:              15
      Number of SO shells:              15
      Number of primitives:             49
      Number of atomic orbitals:        35
      Number of basis functions:        33

      Number of irreps:                  2
      Number of functions per irrep: [  24    9 ]

      Overlap, kinetic, potential, dipole, and quadrupole integrals
        stored in file 35.

  ==> DFJK: Density-Fitted J/K Matrices <==

    J tasked:                  Yes
    K tasked:                   No
    wK tasked:                  No
    OpenMP threads:              1
    Integrals threads:           1
    Memory (MB):               178
    Algorithm:                Core
    Integral Cache:           NONE
    Schwarz Cutoff:          0E+00
    Fitting Condition:       1E-12

   => Auxiliary Basis Set <=

  Basis Set: cc-pvdz-jkfit
    Number of shells: 57
    Number of basis function: 163
    Number of Cartesian functions: 187
    Spherical Harmonics?: true
    Max angular momentum: 3

  Minimum eigenvalue in the overlap matrix is 7.7788208310E-03.
  Using Symmetric Orthogonalization.
  SCF Guess: Core (One-Electron) Hamiltonian.

  Initial RKS energy:   -68.62403173594760

  ==> Iterations <==

                        Total Energy        Delta E     Density RMS

   @RKS iter   1:   -80.94425605644783   -1.23202e+01   0.00000e+00 
   @RKS iter   2:   -80.18825813912052    7.55998e-01   3.19850e-01 DIIS
   @RKS iter   3:   -93.01337425619603   -1.28251e+01   2.42550e-01 DIIS
   @RKS iter   4:   -92.91261437394913    1.00760e-01   5.79165e-02 DIIS
   @RKS iter   5:   -93.41295819734401   -5.00344e-01   1.59448e-02 DIIS
   @RKS iter   6:   -93.40507544311144    7.88275e-03   4.23722e-03 DIIS
   @RKS iter   7:   -93.42535916226832   -2.02837e-02   2.24973e-03 DIIS
   @RKS iter   8:   -93.42892107582615   -3.56191e-03   1.23649e-03 DIIS
   @RKS iter   9:   -93.42897526694000   -5.41911e-05   2.30822e-04 DIIS
   @RKS iter  10:   -93.42897703185828   -1.76492e-06   3.56967e-05 DIIS
   @RKS iter  11:   -93.42897703370201   -1.84373e-09   1.13244e-06 DIIS
   @RKS iter  12:   -93.42897703373221   -3.01981e-11   1.86957e-07 DIIS
   @RKS iter  13:   -93.42897703373330   -1.09424e-12   2.96541e-08 DIIS

  ==> Post-Iterations <==

	Orbital Energies (a.u.)
	-----------------------

	Doubly Occupied:                                                      

	   1A'   -14.041618     2A'    -9.971196     3A'    -0.840131  
	   4A'    -0.553267     5A'    -0.330685     1A"    -0.322897  
	   6A'    -0.322897  

	Virtual:                                                              

	   7A'    -0.026679     2A"    -0.026679     8A'     0.041954  
	   9A'     0.175160    10A'     0.424370     3A"     0.424370  
	  11A'     0.507098    12A'     0.623307    13A'     0.705033  
	   4A"     0.736214    14A'     0.736214    15A'     0.909811  
	   5A"     1.018761    16A'     1.018762     6A"     1.037862  
	  17A'     1.037862    18A'     1.386483    19A'     1.641439  
	   7A"     1.641439    20A'     1.793336     8A"     1.793337  
	  21A'     1.990006    22A'     2.466304     9A"     2.466304  
	  23A'     2.698662    24A'     2.960891  

	Final Occupation by Irrep:
	         A'    A" 
	DOCC [     6,    1 ]

  Energy converged.

  @RKS Final Energy:   -93.42897703373330

   => Energetics <=

    Nuclear Repulsion Energy =         23.6698792310870019
    One-Electron Energy =            -172.3852552409644261
    Two-Electron Energy =              67.8780382422655748
    DFT Functional Energy =           -12.5913635855534505
    Empirical Dispersion Energy =      -0.0002756805680046
    Total Energy =                    -93.4289770337333039

  ==> Properties <==

  Nuclear Dipole Moment: (a.u.)
     X:     0.1037      Y:    -1.5293      Z:     0.0000

  Electronic Dipole Moment: (a.u.)
     X:    -0.0317      Y:     0.4661      Z:     0.0000

  Dipole Moment: (a.u.)
     X:     0.0720      Y:    -1.0632      Z:     0.0000     Total:     1.0656

  Dipole Moment: (Debye)
     X:     0.1830      Y:    -2.7024      Z:     0.0000     Total:     2.7086


  Saving occupied orbitals to File 180.

*** tstop() called on localhost at Sat Jul 28 02:55:57 2012
Module time:
	user time   =      20.37 seconds =       0.34 minutes
	system time =       0.72 seconds =       0.01 minutes
	total time  =         25 seconds =       0.42 minutes
Total time:
	user time   =      20.37 seconds =       0.34 minutes
	system time =       0.72 seconds =       0.01 minutes
	total time  =         25 seconds =       0.42 minutes

No DF_BASIS_SCF auxiliary basis selected, defaulting to cc-pvdz-jkfit


*** tstart() called on localhost
*** at Sat Jul 28 02:55:57 2012


         ------------------------------------------------------------
                                   SCF GRAD                          
                          Rob Parrish, Justin Turney,                
                       Andy Simmonett, and Alex Sokolov              
         ------------------------------------------------------------

  ==> Geometry <==

    Molecular point group: cs
    Full point group: Cs

    Geometry (in Angstrom), charge = 0, multiplicity = 1:

       Center              X                  Y                   Z       
    ------------   -----------------  -----------------  -----------------
           N         -0.040558457589     0.600639828526     0.000000000000
           C          0.038049642411    -0.564048771474     0.000000000000
           H          0.110482842411    -1.629468071474     0.000000000000

  Nuclear repulsion =   23.669879231087002

  ==> Basis Set <==

  Basis Set: CC-PVDZ
    Number of shells: 15
    Number of basis function: 33
    Number of Cartesian functions: 35
    Spherical Harmonics?: true
    Max angular momentum: 2

  ==> DFJKGrad: Density-Fitted SCF Gradients <==

    J tasked:                  Yes
    K tasked:                   No
    wK tasked:                  No
    OpenMP threads:              1
    Integrals threads:           1
    Memory (MB):               178
    Schwarz Cutoff:          0E+00
    Fitting Condition:       1E-12

   => Auxiliary Basis Set <=

  Basis Set: cc-pvdz-jkfit
    Number of shells: 57
    Number of basis function: 163
    Number of Cartesian functions: 187
    Spherical Harmonics?: true
    Max angular momentum: 3

  ==> DFT Potential <==

   => BP86-D Composite Functional <= 

    BP86 GGA Exchange-Correlation Functional

    Null

    Points   =           5000
    Deriv    =              1
    GGA      =           TRUE
    Meta     =          FALSE

    X_LRC        =          FALSE
    X_Hybrid     =          FALSE
    X_Alpha      =   0.000000E+00
    X_Omega      =   0.000000E+00
    C_LRC        =          FALSE
    C_Hybrid     =          FALSE
    C_SCS_Hybrid =          FALSE
    C_Alpha      =   0.000000E+00
    C_SS_Alpha   =   0.000000E+00
    C_OS_Alpha   =   0.000000E+00

   => Exchange Functionals <=

    1.0000 B88_X

   => Correlation Functionals <=

    1.0000 P86_C
    0.0000 DF-MP2 

   => -D2: Empirical Dispersion <=

    Grimme's -D2 Dispersion Correction

    Grimme, S. (2006),  J. Comp. Chem., 27: 1787-1799

    S6 =   1.050000E+00

   => Molecular Quadrature <=

    Spherical Scheme = Lebedev-Laikov
    Radial Scheme    =       Treutler
    Atomic Scheme    =       Treutler

    Spherical Points =            302
    Radial Points    =             99
    Total Points     =          86161
    Total Blocks     =            145
    Max Points       =            971
    Max Functions    =             33


  -Total Gradient:
     Atom            X                  Y                   Z
    ------   -----------------  -----------------  -----------------
       1        0.000471372941    -0.006768222864     0.000000000000
       2        0.000447936019    -0.006988081177    -0.000000000000
       3       -0.000919105947     0.013753536153    -0.000000000000


*** tstop() called on localhost at Sat Jul 28 02:56:03 2012
Module time:
	user time   =       3.84 seconds =       0.06 minutes
	system time =       0.11 seconds =       0.00 minutes
	total time  =          6 seconds =       0.10 minutes
Total time:
	user time   =      24.21 seconds =       0.40 minutes
	system time =       0.83 seconds =       0.01 minutes
	total time  =         31 seconds =       0.52 minutes

No DF_BASIS_SCF auxiliary basis selected, defaulting to cc-pvdz-jkfit


*** tstart() called on localhost
*** at Sat Jul 28 02:56:03 2012


         ---------------------------------------------------------
                                   SCF
            by Justin Turney, Rob Parrish, and Andy Simmonett
                              RKS Reference
                        1 Threads,    250 MiB Core
         ---------------------------------------------------------

  ==> Geometry <==

    Molecular point group: cs
    Full point group: Cs

    Geometry (in Angstrom), charge = 0, multiplicity = 1:

       Center              X                  Y                   Z       
    ------------   -----------------  -----------------  -----------------
           N         -0.040558457589     0.600639828526     0.000000000000
           C          0.038049642411    -0.564048771474     0.000000000000
           H          0.110482842411    -1.629468071474     0.000000000000

  Running in cs symmetry.

  Nuclear repulsion =   23.669879231087002

  Charge       = 0
  Multiplicity = 1
  Electrons    = 14
  Nalpha       = 7
  Nbeta        = 7

  ==> Algorithm <==

  SCF Algorithm Type is DF.
  DIIS enabled.
  MOM disabled.
  Fractional occupation disabled.
  Guess Type is CORE.
  Energy threshold   = 1.00e-08
  Density threshold  = 1.00e-08
  Integral threshold = 0.00e+00

  ==> Primary Basis <==

  Basis Set: CC-PVDZ
    Number of shells: 15
    Number of basis function: 33
    Number of Cartesian functions: 35
    Spherical Harmonics?: true
    Max angular momentum: 2

  ==> DFT Potential <==

   => BP86-D Composite Functional <= 

    BP86 GGA Exchange-Correlation Functional

    Null

    Points   =           5000
    Deriv    =              1
    GGA      =           TRUE
    Meta     =          FALSE

    X_LRC        =          FALSE
    X_Hybrid     =          FALSE
    X_Alpha      =   0.000000E+00
    X_Omega      =   0.000000E+00
    C_LRC        =          FALSE
    C_Hybrid     =          FALSE
    C_SCS_Hybrid =          FALSE
    C_Alpha      =   0.000000E+00
    C_SS_Alpha   =   0.000000E+00
    C_OS_Alpha   =   0.000000E+00

   => Exchange Functionals <=

    1.0000 B88_X

   => Correlation Functionals <=

    1.0000 P86_C
    0.0000 DF-MP2 

   => -D2: Empirical Dispersion <=

    Grimme's -D2 Dispersion Correction

    Grimme, S. (2006),  J. Comp. Chem., 27: 1787-1799

    S6 =   1.050000E+00

   => Molecular Quadrature <=

    Spherical Scheme = Lebedev-Laikov
    Radial Scheme    =       Treutler
    Atomic Scheme    =       Treutler

    Spherical Points =            302
    Radial Points    =             99
    Total Points     =          86161
    Total Blocks     =            145
    Max Points       =            971
    Max Functions    =             33

  ==> Pre-Iterations <==

   -------------------------------------------------------
    Irrep   Nso     Nmo     Nalpha   Nbeta   Ndocc  Nsocc
   -------------------------------------------------------
     A'        24      24       0       0       0       0
     A"         9       9       0       0       0       0
   -------------------------------------------------------
    Total      33      33       7       7       7       0
   -------------------------------------------------------

  ==> Integral Setup <==

 OEINTS: Wrapper to libmints.
   by Justin Turney

   Calculation information:
      Number of atoms:                   3
      Number of AO shells:              15
      Number of SO shells:              15
      Number of primitives:             49
      Number of atomic orbitals:        35
      Number of basis functions:        33

      Number of irreps:                  2
      Number of functions per irrep: [  24    9 ]

      Overlap, kinetic, potential, dipole, and quadrupole integrals
        stored in file 35.

  ==> DFJK: Density-Fitted J/K Matrices <==

    J tasked:                  Yes
    K tasked:                   No
    wK tasked:                  No
    OpenMP threads:              1
    Integrals threads:           1
    Memory (MB):               178
    Algorithm:                Core
    Integral Cache:           NONE
    Schwarz Cutoff:          0E+00
    Fitting Condition:       1E-12

   => Auxiliary Basis Set <=

  Basis Set: cc-pvdz-jkfit
    Number of shells: 57
    Number of basis function: 163
    Number of Cartesian functions: 187
    Spherical Harmonics?: true
    Max angular momentum: 3

  Minimum eigenvalue in the overlap matrix is 7.7788208310E-03.
  Using Symmetric Orthogonalization.
  SCF Guess: Core (One-Electron) Hamiltonian.

  Initial RKS energy:   -68.62403173594760

  ==> Iterations <==

                        Total Energy        Delta E     Density RMS

   @RKS iter   1:   -80.94425605644783   -1.23202e+01   0.00000e+00 
   @RKS iter   2:   -80.18825813912052    7.55998e-01   3.19850e-01 DIIS
   @RKS iter   3:   -93.01337425619603   -1.28251e+01   2.42550e-01 DIIS
   @RKS iter   4:   -92.91261437394913    1.00760e-01   5.79165e-02 DIIS
   @RKS iter   5:   -93.41295819734401   -5.00344e-01   1.59448e-02 DIIS
   @RKS iter   6:   -93.40507544311144    7.88275e-03   4.23722e-03 DIIS
   @RKS iter   7:   -93.42535916226832   -2.02837e-02   2.24973e-03 DIIS
   @RKS iter   8:   -93.42892107582615   -3.56191e-03   1.23649e-03 DIIS
   @RKS iter   9:   -93.42897526694000   -5.41911e-05   2.30822e-04 DIIS
   @RKS iter  10:   -93.42897703185828   -1.76492e-06   3.56967e-05 DIIS
   @RKS iter  11:   -93.42897703370201   -1.84373e-09   1.13244e-06 DIIS
   @RKS iter  12:   -93.42897703373221   -3.01981e-11   1.86957e-07 DIIS
   @RKS iter  13:   -93.42897703373330   -1.09424e-12   2.96541e-08 DIIS

  ==> Post-Iterations <==

	Orbital Energies (a.u.)
	-----------------------

	Doubly Occupied:                                                      

	   1A'   -14.041618     2A'    -9.971196     3A'    -0.840131  
	   4A'    -0.553267     5A'    -0.330685     1A"    -0.322897  
	   6A'    -0.322897  

	Virtual:                                                              

	   7A'    -0.026679     2A"    -0.026679     8A'     0.041954  
	   9A'     0.175160    10A'     0.424370     3A"     0.424370  
	  11A'     0.507098    12A'     0.623307    13A'     0.705033  
	   4A"     0.736214    14A'     0.736214    15A'     0.909811  
	   5A"     1.018761    16A'     1.018762     6A"     1.037862  
	  17A'     1.037862    18A'     1.386483    19A'     1.641439  
	   7A"     1.641439    20A'     1.793336     8A"     1.793337  
	  21A'     1.990006    22A'     2.466304     9A"     2.466304  
	  23A'     2.698662    24A'     2.960891  

	Final Occupation by Irrep:
	         A'    A" 
	DOCC [     6,    1 ]

  Energy converged.

  @RKS Final Energy:   -93.42897703373330

   => Energetics <=

    Nuclear Repulsion Energy =         23.6698792310870019
    One-Electron Energy =            -172.3852552409644261
    Two-Electron Energy =              67.8780382422655748
    DFT Functional Energy =           -12.5913635855534505
    Empirical Dispersion Energy =      -0.0002756805680046
    Total Energy =                    -93.4289770337333039

  ==> Properties <==

  Nuclear Dipole Moment: (a.u.)
     X:     0.1037      Y:    -1.5293      Z:     0.0000

  Electronic Dipole Moment: (a.u.)
     X:    -0.0317      Y:     0.4661      Z:     0.0000

  Dipole Moment: (a.u.)
     X:     0.0720      Y:    -1.0632      Z:     0.0000     Total:     1.0656

  Dipole Moment: (Debye)
     X:     0.1830      Y:    -2.7024      Z:     0.0000     Total:     2.7086


  Saving occupied orbitals to File 180.

*** tstop() called on localhost at Sat Jul 28 02:56:26 2012
Module time:
	user time   =      20.07 seconds =       0.33 minutes
	system time =       0.33 seconds =       0.01 minutes
	total time  =         23 seconds =       0.38 minutes
Total time:
	user time   =      44.34 seconds =       0.74 minutes
	system time =       1.16 seconds =       0.02 minutes
	total time  =         54 seconds =       0.90 minutes

No DF_BASIS_SCF auxiliary basis selected, defaulting to cc-pvdz-jkfit


*** tstart() called on localhost
*** at Sat Jul 28 02:56:26 2012


         ------------------------------------------------------------
                                   SCF GRAD                          
                          Rob Parrish, Justin Turney,                
                       Andy Simmonett, and Alex Sokolov              
         ------------------------------------------------------------

  ==> Geometry <==

    Molecular point group: cs
    Full point group: Cs

    Geometry (in Angstrom), charge = 0, multiplicity = 1:

       Center              X                  Y                   Z       
    ------------   -----------------  -----------------  -----------------
           N         -0.040558457589     0.600639828526     0.000000000000
           C          0.038049642411    -0.564048771474     0.000000000000
           H          0.110482842411    -1.629468071474     0.000000000000

  Nuclear repulsion =   23.669879231087002

  ==> Basis Set <==

  Basis Set: CC-PVDZ
    Number of shells: 15
    Number of basis function: 33
    Number of Cartesian functions: 35
    Spherical Harmonics?: true
    Max angular momentum: 2

  ==> DFJKGrad: Density-Fitted SCF Gradients <==

    J tasked:                  Yes
    K tasked:                   No
    wK tasked:                  No
    OpenMP threads:              1
    Integrals threads:           1
    Memory (MB):               178
    Schwarz Cutoff:          0E+00
    Fitting Condition:       1E-12

   => Auxiliary Basis Set <=

  Basis Set: cc-pvdz-jkfit
    Number of shells: 57
    Number of basis function: 163
    Number of Cartesian functions: 187
    Spherical Harmonics?: true
    Max angular momentum: 3

  ==> DFT Potential <==

   => BP86-D Composite Functional <= 

    BP86 GGA Exchange-Correlation Functional

    Null

    Points   =           5000
    Deriv    =              1
    GGA      =           TRUE
    Meta     =          FALSE

    X_LRC        =          FALSE
    X_Hybrid     =          FALSE
    X_Alpha      =   0.000000E+00
    X_Omega      =   0.000000E+00
    C_LRC        =          FALSE
    C_Hybrid     =          FALSE
    C_SCS_Hybrid =          FALSE
    C_Alpha      =   0.000000E+00
    C_SS_Alpha   =   0.000000E+00
    C_OS_Alpha   =   0.000000E+00

   => Exchange Functionals <=

    1.0000 B88_X

   => Correlation Functionals <=

    1.0000 P86_C
    0.0000 DF-MP2 

   => -D2: Empirical Dispersion <=

    Grimme's -D2 Dispersion Correction

    Grimme, S. (2006),  J. Comp. Chem., 27: 1787-1799

    S6 =   1.050000E+00

   => Molecular Quadrature <=

    Spherical Scheme = Lebedev-Laikov
    Radial Scheme    =       Treutler
    Atomic Scheme    =       Treutler

    Spherical Points =            302
    Radial Points    =             99
    Total Points     =          86161
    Total Blocks     =            145
    Max Points       =            971
    Max Functions    =             33


  -Total Gradient:
     Atom            X                  Y                   Z
    ------   -----------------  -----------------  -----------------
       1        0.000471372941    -0.006768222864     0.000000000000
       2        0.000447936019    -0.006988081177    -0.000000000000
       3       -0.000919105947     0.013753536153    -0.000000000000


*** tstop() called on localhost at Sat Jul 28 02:56:30 2012
Module time:
	user time   =       3.60 seconds =       0.06 minutes
	system time =       0.08 seconds =       0.00 minutes
	total time  =          4 seconds =       0.07 minutes
Total time:
	user time   =      47.95 seconds =       0.80 minutes
	system time =       1.24 seconds =       0.02 minutes
	total time  =         58 seconds =       0.97 minutes

*** PSI4 exiting successfully. Buy a developer a beer!
