    -----------------------------------------------------------------------
          Psi4: An Open-Source Ab Initio Electronic Structure Package
                              Psi4 0.5 Driver

                          Git: Rev {master} dbe9080

    J. M. Turney, A. C. Simmonett, R. M. Parrish, E. G. Hohenstein,
    F. A. Evangelista, J. T. Fermann, B. J. Mintz, L. A. Burns, J. J. Wilke,
    M. L. Abrams, N. J. Russ, M. L. Leininger, C. L. Janssen, E. T. Seidl,
    W. D. Allen, H. F. Schaefer, R. A. King, E. F. Valeev, C. D. Sherrill,
    and T. D. Crawford, WIREs Comput. Mol. Sci. 2, 556-565 (2012)
    (doi: 10.1002/wcms.93)

                         Additional Contributions by
    A. E. DePrince, M. Saitow, U. Bozkaya, A. Yu. Sokolov
    -----------------------------------------------------------------------


    Psi4 started on: Mon Mar 14 15:27:26 2016

    Process ID:  12222
    PSI4DATADIR: /home/dsmith/Gits/dgas_psi/share
    Memory level set to 256.000 MB

  ==> Input File <==

--------------------------------------------------------------------------
#! DF-BP86-D2 cc-pVDZ frozen core gradient of S22 HCN

ref_bp86d2 = [
             [  0.000471372941,    -0.006768222864,     0.000000000000],  #TEST
             [  0.000447936019,    -0.006988081177,    -0.000000000000],  #TEST
             [ -0.000919105947,     0.013753536153,    -0.000000000000]]  #TEST

ref = psi4.Matrix(3, 3)                                                 #TEST
ref.set(ref_bp86d2)                                                       #TEST

memory 250 mb
molecule {
  0 1
  N    -0.0034118    3.5353926    0.0000000
  C     0.0751963    2.3707040    0.0000000
  H     0.1476295    1.3052847    0.0000000
}


set {
    scf_type              df
    basis                 cc-pvdz
    freeze_core           true
    dft_radial_points     99
    dft_spherical_points  302
    e_convergence         8
    d_convergence         8
}

grad = gradient('bp86-d')
compare_matrices(ref, grad, 7, "Analytic dft gradients called by name")    #TEST
clean()


set {
    dft_functional bp86-d
    reference rks
    dft_radial_points 99
    dft_spherical_points 302
}

grad = gradient('bp86-d')
compare_matrices(ref, grad, 7, "Analytic dft gradients called by options") #TEST
--------------------------------------------------------------------------

  Memory set to 250.000 MiB by Python script.
gradient() will perform analytic gradient computation.

*** tstart() called on ds1.sherrill.chemistry.gatech.edu
*** at Mon Mar 14 15:27:26 2016


         ---------------------------------------------------------
                                   SCF
            by Justin Turney, Rob Parrish, and Andy Simmonett
                              RKS Reference
                        1 Threads,    250 MiB Core
         ---------------------------------------------------------

  ==> Geometry <==

    Molecular point group: cs
    Full point group: Cs

    Geometry (in Angstrom), charge = 0, multiplicity = 1:

       Center              X                  Y                   Z               Mass       
    ------------   -----------------  -----------------  -----------------  -----------------
           N         -0.040558457589     0.600639828526     0.000000000000    14.003074004780
           C          0.038049642411    -0.564048771474     0.000000000000    12.000000000000
           H          0.110482842411    -1.629468071474     0.000000000000     1.007825032070

  Running in cs symmetry.

  Rotational constants: A = 83386922.25089  B =      1.45345  C =      1.45345 [cm^-1]
  Rotational constants: A = 2499877038665.02588  B =  43573.43250  C =  43573.43174 [MHz]
  Nuclear repulsion =   23.669879231087002

  Charge       = 0
  Multiplicity = 1
  Electrons    = 14
  Nalpha       = 7
  Nbeta        = 7

  ==> Algorithm <==

  SCF Algorithm Type is DF.
  DIIS enabled.
  MOM disabled.
  Fractional occupation disabled.
  Guess Type is CORE.
  Energy threshold   = 1.00e-08
  Density threshold  = 1.00e-08
  Integral threshold = 0.00e+00

  ==> Primary Basis <==

  Basis Set: CC-PVDZ
    Number of shells: 15
    Number of basis function: 33
    Number of Cartesian functions: 35
    Spherical Harmonics?: true
    Max angular momentum: 2

  ==> DFT Potential <==

   => BP86-D Composite Functional <= 

    BP86 GGA Exchange-Correlation Functional

    Null

    Points   =           5000
    Deriv    =              1
    GGA      =           TRUE
    Meta     =          FALSE

    X_LRC        =          FALSE
    X_Hybrid     =          FALSE
    X_Alpha      =   0.000000E+00
    X_Omega      =   0.000000E+00
    C_LRC        =          FALSE
    C_Hybrid     =          FALSE
    C_Alpha      =   0.000000E+00
    C_Omega      =   0.000000E+00

   => Exchange Functionals <=

    1.0000   B88_X

   => Correlation Functionals <=

    1.0000   P86_C

   => -D2: Empirical Dispersion <=

    Grimme's -D2 Dispersion Correction

    Grimme, S. (2006),  J. Comp. Chem., 27: 1787-1799

    S6  =   1.050000E+00
    A6  =   2.000000E+01

   => Molecular Quadrature <=

    Radial Scheme    =       TREUTLER
    Pruning Scheme   =           FLAT
    Nuclear Scheme   =       TREUTLER

    BS radius alpha  =              1
    Pruning alpha    =              1
    Radial Points    =             99
    Spherical Points =            302
    Total Points     =          86317
    Total Blocks     =             94
    Max Points       =           4841
    Max Functions    =             33

  ==> Pre-Iterations <==

   -------------------------------------------------------
    Irrep   Nso     Nmo     Nalpha   Nbeta   Ndocc  Nsocc
   -------------------------------------------------------
     A'        24      24       0       0       0       0
     A"         9       9       0       0       0       0
   -------------------------------------------------------
    Total      33      33       7       7       7       0
   -------------------------------------------------------

  ==> Integral Setup <==

  ==> DFJK: Density-Fitted J/K Matrices <==

    J tasked:                  Yes
    K tasked:                   No
    wK tasked:                  No
    OpenMP threads:              1
    Integrals threads:           1
    Memory (MB):               178
    Algorithm:                Core
    Integral Cache:           NONE
    Schwarz Cutoff:          1E-12
    Fitting Condition:       1E-12

   => Auxiliary Basis Set <=

  Basis Set: 
    Number of shells: 57
    Number of basis function: 163
    Number of Cartesian functions: 187
    Spherical Harmonics?: true
    Max angular momentum: 3

  Minimum eigenvalue in the overlap matrix is 7.7788208310E-03.
  Using Symmetric Orthogonalization.
  SCF Guess: Core (One-Electron) Hamiltonian.

  ==> Iterations <==

                           Total Energy        Delta E     RMS |[F,P]|

   @DF-RKS iter   1:   -80.94425605644207   -8.09443e+01   1.22329e-01 
   @DF-RKS iter   2:   -80.18825813911749    7.55998e-01   1.19592e-01 DIIS
   @DF-RKS iter   3:   -93.01337425619272   -1.28251e+01   2.69627e-02 DIIS
   @DF-RKS iter   4:   -92.91261437394576    1.00760e-01   3.91882e-02 DIIS
   @DF-RKS iter   5:   -93.41295819734174   -5.00344e-01   6.21076e-03 DIIS
   @DF-RKS iter   6:   -93.40507544310913    7.88275e-03   8.85589e-03 DIIS
   @DF-RKS iter   7:   -93.42535916226601   -2.02837e-02   3.45196e-03 DIIS
   @DF-RKS iter   8:   -93.42892107582372   -3.56191e-03   4.30853e-04 DIIS
   @DF-RKS iter   9:   -93.42897526693764   -5.41911e-05   7.72672e-05 DIIS
   @DF-RKS iter  10:   -93.42897703185596   -1.76492e-06   2.47982e-06 DIIS
   @DF-RKS iter  11:   -93.42897703369971   -1.84374e-09   2.92206e-07 DIIS
   @DF-RKS iter  12:   -93.42897703372984   -3.01270e-11   5.58927e-08 DIIS
   @DF-RKS iter  13:   -93.42897703373089   -1.05160e-12   5.13092e-09 DIIS

  ==> Post-Iterations <==

    Orbital Energies (a.u.)
    -----------------------

    Doubly Occupied:                                                      

       1Ap   -14.041618     2Ap    -9.971196     3Ap    -0.840131  
       4Ap    -0.553267     5Ap    -0.330685     1App   -0.322897  
       6Ap    -0.322897  

    Virtual:                                                              

       7Ap    -0.026679     2App   -0.026679     8Ap     0.041954  
       9Ap     0.175160    10Ap     0.424370     3App    0.424370  
      11Ap     0.507098    12Ap     0.623307    13Ap     0.705033  
       4App    0.736214    14Ap     0.736214    15Ap     0.909811  
       5App    1.018761    16Ap     1.018762     6App    1.037862  
      17Ap     1.037862    18Ap     1.386483    19Ap     1.641439  
       7App    1.641439    20Ap     1.793336     8App    1.793337  
      21Ap     1.990006    22Ap     2.466304     9App    2.466304  
      23Ap     2.698662    24Ap     2.960891  

    Final Occupation by Irrep:
             Ap   App 
    DOCC [     6,    1 ]

  Energy converged.

  @DF-RKS Final Energy:   -93.42897703373089

   => Energetics <=

    Nuclear Repulsion Energy =             23.6698792310870019
    One-Electron Energy =                -172.3852552409625787
    Two-Electron Energy =                  67.8780382422659869
    DFT Exchange-Correlation Energy =     -12.5913635855532942
    Empirical Dispersion Energy =          -0.0002756805680046
    PCM Polarization Energy =               0.0000000000000000
    EFP Energy =                            0.0000000000000000
    Total Energy =                        -93.4289770337308880

    Alert: EFP and PCM quantities not currently incorporated into SCF psivars.

Properties will be evaluated at   0.000000,   0.000000,   0.000000 Bohr
  ==> Properties <==


Properties computed using the SCF density matrix

  Nuclear Dipole Moment: (a.u.)
     X:     0.1037      Y:    -1.5293      Z:     0.0000

  Electronic Dipole Moment: (a.u.)
     X:    -0.0317      Y:     0.4661      Z:     0.0000

  Dipole Moment: (a.u.)
     X:     0.0720      Y:    -1.0632      Z:     0.0000     Total:     1.0656

  Dipole Moment: (Debye)
     X:     0.1830      Y:    -2.7024      Z:     0.0000     Total:     2.7086


  Saving occupied orbitals to File 180.

*** tstop() called on ds1.sherrill.chemistry.gatech.edu at Mon Mar 14 15:27:29 2016
Module time:
	user time   =       2.95 seconds =       0.05 minutes
	system time =       0.02 seconds =       0.00 minutes
	total time  =          3 seconds =       0.05 minutes
Total time:
	user time   =       2.95 seconds =       0.05 minutes
	system time =       0.02 seconds =       0.00 minutes
	total time  =          3 seconds =       0.05 minutes

*** tstart() called on ds1.sherrill.chemistry.gatech.edu
*** at Mon Mar 14 15:27:29 2016


         ------------------------------------------------------------
                                   SCF GRAD                          
                          Rob Parrish, Justin Turney,                
                       Andy Simmonett, and Alex Sokolov              
         ------------------------------------------------------------

  ==> Geometry <==

    Molecular point group: cs
    Full point group: Cs

    Geometry (in Angstrom), charge = 0, multiplicity = 1:

       Center              X                  Y                   Z               Mass       
    ------------   -----------------  -----------------  -----------------  -----------------
           N         -0.040558457589     0.600639828526     0.000000000000    14.003074004780
           C          0.038049642411    -0.564048771474     0.000000000000    12.000000000000
           H          0.110482842411    -1.629468071474     0.000000000000     1.007825032070

  Nuclear repulsion =   23.669879231087002

  ==> Basis Set <==

  Basis Set: CC-PVDZ
    Number of shells: 15
    Number of basis function: 33
    Number of Cartesian functions: 35
    Spherical Harmonics?: true
    Max angular momentum: 2

  ==> DFJKGrad: Density-Fitted SCF Gradients <==

    Gradient:                    1
    J tasked:                  Yes
    K tasked:                   No
    wK tasked:                  No
    OpenMP threads:              1
    Integrals threads:           1
    Memory (MB):               178
    Schwarz Cutoff:          0E+00
    Fitting Condition:       1E-12

   => Auxiliary Basis Set <=

  Basis Set: 
    Number of shells: 57
    Number of basis function: 163
    Number of Cartesian functions: 187
    Spherical Harmonics?: true
    Max angular momentum: 3

  ==> DFT Potential <==

   => BP86-D Composite Functional <= 

    BP86 GGA Exchange-Correlation Functional

    Null

    Points   =           5000
    Deriv    =              1
    GGA      =           TRUE
    Meta     =          FALSE

    X_LRC        =          FALSE
    X_Hybrid     =          FALSE
    X_Alpha      =   0.000000E+00
    X_Omega      =   0.000000E+00
    C_LRC        =          FALSE
    C_Hybrid     =          FALSE
    C_Alpha      =   0.000000E+00
    C_Omega      =   0.000000E+00

   => Exchange Functionals <=

    1.0000   B88_X

   => Correlation Functionals <=

    1.0000   P86_C

   => -D2: Empirical Dispersion <=

    Grimme's -D2 Dispersion Correction

    Grimme, S. (2006),  J. Comp. Chem., 27: 1787-1799

    S6  =   1.050000E+00
    A6  =   2.000000E+01

   => Molecular Quadrature <=

    Radial Scheme    =       TREUTLER
    Pruning Scheme   =           FLAT
    Nuclear Scheme   =       TREUTLER

    BS radius alpha  =              1
    Pruning alpha    =              1
    Radial Points    =             99
    Spherical Points =            302
    Total Points     =          86317
    Total Blocks     =             94
    Max Points       =           4841
    Max Functions    =             33


  -Total Gradient:
     Atom            X                  Y                   Z
    ------   -----------------  -----------------  -----------------
       1        0.000471372949    -0.006768222991     0.000000000000
       2        0.000447936015    -0.006988081109     0.000000000000
       3       -0.000919105951     0.013753536212     0.000000000000


*** tstop() called on ds1.sherrill.chemistry.gatech.edu at Mon Mar 14 15:27:30 2016
Module time:
	user time   =       0.65 seconds =       0.01 minutes
	system time =       0.01 seconds =       0.00 minutes
	total time  =          1 seconds =       0.02 minutes
Total time:
	user time   =       3.60 seconds =       0.06 minutes
	system time =       0.03 seconds =       0.00 minutes
	total time  =          4 seconds =       0.07 minutes
	Analytic dft gradients called by name.............................PASSED
gradient() will perform analytic gradient computation.

*** tstart() called on ds1.sherrill.chemistry.gatech.edu
*** at Mon Mar 14 15:27:30 2016


         ---------------------------------------------------------
                                   SCF
            by Justin Turney, Rob Parrish, and Andy Simmonett
                              RKS Reference
                        1 Threads,    250 MiB Core
         ---------------------------------------------------------

  ==> Geometry <==

    Molecular point group: cs
    Full point group: Cs

    Geometry (in Angstrom), charge = 0, multiplicity = 1:

       Center              X                  Y                   Z               Mass       
    ------------   -----------------  -----------------  -----------------  -----------------
           N         -0.040558457589     0.600639828526     0.000000000000    14.003074004780
           C          0.038049642411    -0.564048771474     0.000000000000    12.000000000000
           H          0.110482842411    -1.629468071474     0.000000000000     1.007825032070

  Running in cs symmetry.

  Rotational constants: A = 83386922.25089  B =      1.45345  C =      1.45345 [cm^-1]
  Rotational constants: A = 2499877038665.02588  B =  43573.43250  C =  43573.43174 [MHz]
  Nuclear repulsion =   23.669879231087002

  Charge       = 0
  Multiplicity = 1
  Electrons    = 14
  Nalpha       = 7
  Nbeta        = 7

  ==> Algorithm <==

  SCF Algorithm Type is DF.
  DIIS enabled.
  MOM disabled.
  Fractional occupation disabled.
  Guess Type is CORE.
  Energy threshold   = 1.00e-08
  Density threshold  = 1.00e-08
  Integral threshold = 0.00e+00

  ==> Primary Basis <==

  Basis Set: CC-PVDZ
    Number of shells: 15
    Number of basis function: 33
    Number of Cartesian functions: 35
    Spherical Harmonics?: true
    Max angular momentum: 2

  ==> DFT Potential <==

   => BP86-D Composite Functional <= 

    BP86 GGA Exchange-Correlation Functional

    Null

    Points   =           5000
    Deriv    =              1
    GGA      =           TRUE
    Meta     =          FALSE

    X_LRC        =          FALSE
    X_Hybrid     =          FALSE
    X_Alpha      =   0.000000E+00
    X_Omega      =   0.000000E+00
    C_LRC        =          FALSE
    C_Hybrid     =          FALSE
    C_Alpha      =   0.000000E+00
    C_Omega      =   0.000000E+00

   => Exchange Functionals <=

    1.0000   B88_X

   => Correlation Functionals <=

    1.0000   P86_C

   => -D2: Empirical Dispersion <=

    Grimme's -D2 Dispersion Correction

    Grimme, S. (2006),  J. Comp. Chem., 27: 1787-1799

    S6  =   1.050000E+00
    A6  =   2.000000E+01

   => Molecular Quadrature <=

    Radial Scheme    =       TREUTLER
    Pruning Scheme   =           FLAT
    Nuclear Scheme   =       TREUTLER

    BS radius alpha  =              1
    Pruning alpha    =              1
    Radial Points    =             99
    Spherical Points =            302
    Total Points     =          86317
    Total Blocks     =             94
    Max Points       =           4841
    Max Functions    =             33

  ==> Pre-Iterations <==

   -------------------------------------------------------
    Irrep   Nso     Nmo     Nalpha   Nbeta   Ndocc  Nsocc
   -------------------------------------------------------
     A'        24      24       0       0       0       0
     A"         9       9       0       0       0       0
   -------------------------------------------------------
    Total      33      33       7       7       7       0
   -------------------------------------------------------

  ==> Integral Setup <==

  ==> DFJK: Density-Fitted J/K Matrices <==

    J tasked:                  Yes
    K tasked:                   No
    wK tasked:                  No
    OpenMP threads:              1
    Integrals threads:           1
    Memory (MB):               178
    Algorithm:                Core
    Integral Cache:           NONE
    Schwarz Cutoff:          1E-12
    Fitting Condition:       1E-12

   => Auxiliary Basis Set <=

  Basis Set: 
    Number of shells: 57
    Number of basis function: 163
    Number of Cartesian functions: 187
    Spherical Harmonics?: true
    Max angular momentum: 3

  Minimum eigenvalue in the overlap matrix is 7.7788208310E-03.
  Using Symmetric Orthogonalization.
  SCF Guess: Core (One-Electron) Hamiltonian.

  ==> Iterations <==

                           Total Energy        Delta E     RMS |[F,P]|

   @DF-RKS iter   1:   -80.94425605643951   -8.09443e+01   1.22329e-01 
   @DF-RKS iter   2:   -80.18825813910738    7.55998e-01   1.19592e-01 DIIS
   @DF-RKS iter   3:   -93.01337425618840   -1.28251e+01   2.69627e-02 DIIS
   @DF-RKS iter   4:   -92.91261437394152    1.00760e-01   3.91882e-02 DIIS
   @DF-RKS iter   5:   -93.41295819733767   -5.00344e-01   6.21076e-03 DIIS
   @DF-RKS iter   6:   -93.40507544310512    7.88275e-03   8.85589e-03 DIIS
   @DF-RKS iter   7:   -93.42535916226194   -2.02837e-02   3.45196e-03 DIIS
   @DF-RKS iter   8:   -93.42892107581969   -3.56191e-03   4.30853e-04 DIIS
   @DF-RKS iter   9:   -93.42897526693358   -5.41911e-05   7.72672e-05 DIIS
   @DF-RKS iter  10:   -93.42897703185184   -1.76492e-06   2.47982e-06 DIIS
   @DF-RKS iter  11:   -93.42897703369565   -1.84380e-09   2.92206e-07 DIIS
   @DF-RKS iter  12:   -93.42897703372580   -3.01554e-11   5.58927e-08 DIIS
   @DF-RKS iter  13:   -93.42897703372677   -9.66338e-13   5.13092e-09 DIIS

  ==> Post-Iterations <==

    Orbital Energies (a.u.)
    -----------------------

    Doubly Occupied:                                                      

       1Ap   -14.041618     2Ap    -9.971196     3Ap    -0.840131  
       4Ap    -0.553267     5Ap    -0.330685     1App   -0.322897  
       6Ap    -0.322897  

    Virtual:                                                              

       7Ap    -0.026679     2App   -0.026679     8Ap     0.041954  
       9Ap     0.175160    10Ap     0.424370     3App    0.424370  
      11Ap     0.507098    12Ap     0.623307    13Ap     0.705033  
       4App    0.736214    14Ap     0.736214    15Ap     0.909811  
       5App    1.018761    16Ap     1.018762     6App    1.037862  
      17Ap     1.037862    18Ap     1.386483    19Ap     1.641439  
       7App    1.641439    20Ap     1.793336     8App    1.793337  
      21Ap     1.990006    22Ap     2.466304     9App    2.466304  
      23Ap     2.698662    24Ap     2.960891  

    Final Occupation by Irrep:
             Ap   App 
    DOCC [     6,    1 ]

  Energy converged.

  @DF-RKS Final Energy:   -93.42897703372677

   => Energetics <=

    Nuclear Repulsion Energy =             23.6698792310870019
    One-Electron Energy =                -172.3852552409644829
    Two-Electron Energy =                  67.8780382422722397
    DFT Exchange-Correlation Energy =     -12.5913635855535109
    Empirical Dispersion Energy =          -0.0002756805680046
    PCM Polarization Energy =               0.0000000000000000
    EFP Energy =                            0.0000000000000000
    Total Energy =                        -93.4289770337267527

    Alert: EFP and PCM quantities not currently incorporated into SCF psivars.

Properties will be evaluated at   0.000000,   0.000000,   0.000000 Bohr
  ==> Properties <==


Properties computed using the SCF density matrix

  Nuclear Dipole Moment: (a.u.)
     X:     0.1037      Y:    -1.5293      Z:     0.0000

  Electronic Dipole Moment: (a.u.)
     X:    -0.0317      Y:     0.4661      Z:     0.0000

  Dipole Moment: (a.u.)
     X:     0.0720      Y:    -1.0632      Z:     0.0000     Total:     1.0656

  Dipole Moment: (Debye)
     X:     0.1830      Y:    -2.7024      Z:     0.0000     Total:     2.7086


  Saving occupied orbitals to File 180.

*** tstop() called on ds1.sherrill.chemistry.gatech.edu at Mon Mar 14 15:27:33 2016
Module time:
	user time   =       2.90 seconds =       0.05 minutes
	system time =       0.01 seconds =       0.00 minutes
	total time  =          3 seconds =       0.05 minutes
Total time:
	user time   =       6.54 seconds =       0.11 minutes
	system time =       0.04 seconds =       0.00 minutes
	total time  =          7 seconds =       0.12 minutes

*** tstart() called on ds1.sherrill.chemistry.gatech.edu
*** at Mon Mar 14 15:27:33 2016


         ------------------------------------------------------------
                                   SCF GRAD                          
                          Rob Parrish, Justin Turney,                
                       Andy Simmonett, and Alex Sokolov              
         ------------------------------------------------------------

  ==> Geometry <==

    Molecular point group: cs
    Full point group: Cs

    Geometry (in Angstrom), charge = 0, multiplicity = 1:

       Center              X                  Y                   Z               Mass       
    ------------   -----------------  -----------------  -----------------  -----------------
           N         -0.040558457589     0.600639828526     0.000000000000    14.003074004780
           C          0.038049642411    -0.564048771474     0.000000000000    12.000000000000
           H          0.110482842411    -1.629468071474     0.000000000000     1.007825032070

  Nuclear repulsion =   23.669879231087002

  ==> Basis Set <==

  Basis Set: CC-PVDZ
    Number of shells: 15
    Number of basis function: 33
    Number of Cartesian functions: 35
    Spherical Harmonics?: true
    Max angular momentum: 2

  ==> DFJKGrad: Density-Fitted SCF Gradients <==

    Gradient:                    1
    J tasked:                  Yes
    K tasked:                   No
    wK tasked:                  No
    OpenMP threads:              1
    Integrals threads:           1
    Memory (MB):               178
    Schwarz Cutoff:          0E+00
    Fitting Condition:       1E-12

   => Auxiliary Basis Set <=

  Basis Set: 
    Number of shells: 57
    Number of basis function: 163
    Number of Cartesian functions: 187
    Spherical Harmonics?: true
    Max angular momentum: 3

  ==> DFT Potential <==

   => BP86-D Composite Functional <= 

    BP86 GGA Exchange-Correlation Functional

    Null

    Points   =           5000
    Deriv    =              1
    GGA      =           TRUE
    Meta     =          FALSE

    X_LRC        =          FALSE
    X_Hybrid     =          FALSE
    X_Alpha      =   0.000000E+00
    X_Omega      =   0.000000E+00
    C_LRC        =          FALSE
    C_Hybrid     =          FALSE
    C_Alpha      =   0.000000E+00
    C_Omega      =   0.000000E+00

   => Exchange Functionals <=

    1.0000   B88_X

   => Correlation Functionals <=

    1.0000   P86_C

   => -D2: Empirical Dispersion <=

    Grimme's -D2 Dispersion Correction

    Grimme, S. (2006),  J. Comp. Chem., 27: 1787-1799

    S6  =   1.050000E+00
    A6  =   2.000000E+01

   => Molecular Quadrature <=

    Radial Scheme    =       TREUTLER
    Pruning Scheme   =           FLAT
    Nuclear Scheme   =       TREUTLER

    BS radius alpha  =              1
    Pruning alpha    =              1
    Radial Points    =             99
    Spherical Points =            302
    Total Points     =          86317
    Total Blocks     =             94
    Max Points       =           4841
    Max Functions    =             33


  -Total Gradient:
     Atom            X                  Y                   Z
    ------   -----------------  -----------------  -----------------
       1        0.000471372951    -0.006768223015     0.000000000000
       2        0.000447936014    -0.006988081089     0.000000000000
       3       -0.000919105951     0.013753536217     0.000000000000


*** tstop() called on ds1.sherrill.chemistry.gatech.edu at Mon Mar 14 15:27:33 2016
Module time:
	user time   =       0.66 seconds =       0.01 minutes
	system time =       0.01 seconds =       0.00 minutes
	total time  =          0 seconds =       0.00 minutes
Total time:
	user time   =       7.20 seconds =       0.12 minutes
	system time =       0.05 seconds =       0.00 minutes
	total time  =          7 seconds =       0.12 minutes
	Analytic dft gradients called by options..........................PASSED

*** PSI4 exiting successfully. Buy a developer a beer!
