    -----------------------------------------------------------------------
          PSI4: An Open-Source Ab Initio Electronic Structure Package
                              PSI 4.0.0-alpha Driver

    J. M. Turney, A. C. Simmonett, R. M. Parrish, E. G. Hohenstein,
    F. Evangelista, J. T. Fermann, B. J. Mintz, L. A. Burns, J. J. Wilke,
    M. L. Abrams, N. J. Russ, M. L. Leininger, C. L. Janssen, E. T. Seidl,
    W. D. Allen, H. F. Schaefer, R. A. King, E. F. Valeev, C. D. Sherrill,
    and T. D. Crawford, WIREs Comput. Mol. Sci., (2011)
                         Additional Contributions by
    -----------------------------------------------------------------------


    Using LocalCommunicator (Number of processes = 1)

    Memory level set to 256.000 MB

  ==> Input File <==

--------------------------------------------------------------------------
#! RASCI/6-31G** H2O Energy Point

refnuc   =   8.8046872909987 #TEST
refscf   = -76.017296571842  #TEST
refci    = -76.0296830210809 #TEST
refcorr  = refci - refscf    #TEST

molecule h2o {
    O
    H 1 1.00
    H 1 1.00 2 103.1
}

set globals {
  wfn detci
  basis 6-31G**
  restricted_docc  [1, 0, 0, 0]
  ras1             [2, 0, 1, 1]
  ras3             [1, 0, 0, 1]
  restricted_uocc  [8, 2, 3, 5]
}

thisenergy = energy('detci')

# 7 digits on CI seems ok, but we may need to back it down to 6 later #TEST
compare_values(refnuc, h2o.nuclear_repulsion_energy(), 9, "Nuclear repulsion energy") #TEST 
compare_values(refscf, get_variable("SCF total energy"),     8, "SCF energy") #TEST
compare_values(refci, thisenergy,                      7, "CI energy") #TEST
compare_values(refcorr, get_variable("CI CORRELATION ENERGY"), 7, "CI correlation energy") #TEST

clean()

--------------------------------------------------------------------------

*** tstart() called on ds9
*** at Tue Nov 22 18:14:35 2011

	There are an even number of electrons - assuming singlet.
	Specify the multiplicity with the MULTP option in the
	input if this is incorrect


         ---------------------------------------------------------
                                   SCF
            by Justin Turney, Rob Parrish, and Andy Simmonett
                              RHF Reference
                        1 Threads,    256 MiB Core
         ---------------------------------------------------------

  ==> Geometry <==

    Molecular point group: c2v

    Geometry (in Angstrom), charge = 0, multiplicity = 1:

       Center              X                  Y                   Z       
    ------------   -----------------  -----------------  -----------------
           O          0.000000000000     0.000000000000    -0.069592187390
           H          0.000000000000    -0.783151105291     0.552239257844
           H          0.000000000000     0.783151105291     0.552239257844

    Number of unique atoms: 2

    Atoms equivalency:
       unique atom 0: 0 
       unique atom 1: 1 2 

  Running in c2v symmetry.

  Nuclear repulsion =    8.804687290998672

  Charge       = 0
  Multiplicity = 1
  Electrons    = 10
  Nalpha       = 5
  Nbeta        = 5

  ==> Algorithm <==

  SCF Algorithm Type is PK.
  DIIS enabled.
  MOM disabled.
  Guess Type is CORE.
  Energy threshold   = 1.00e-08
  Density threshold  = 1.00e-08
  Integral threshold = 0.00e+00

  ==> Primary Basis: 6-31G** <==

  Basis Set
    Number of shells: 12
    Number of basis function: 25
    Number of Cartesian functions: 25
    Spherical Harmonics?: false
    Max angular momentum: 2

  ==> Pre-Iterations <==

  Minimum eigenvalue in the overlap matrix is 2.3361251844E-02.
  Using Symmetric Orthogonalization.
  SCF Guess: Core (One-Electron) Hamiltonian.

  Initial RHF energy:   -58.75934033118257

   -------------------------------------------------------
    Irrep   Nso     Nmo     Nalpha   Nbeta   Ndocc  Nsocc
   -------------------------------------------------------
     A1        12      12       3       3       3       0
     A2         2       2       0       0       0       0
     B1         4       4       1       1       1       0
     B2         7       7       1       1       1       0
   -------------------------------------------------------
    Total      25      25       5       5       5       0
   -------------------------------------------------------

  ==> Integral Setup <==

 MINTS: Wrapper to libmints.
   by Justin Turney

   Calculation information:
      Number of atoms:                   3
      Number of AO shells:              12
      Number of SO shells:               9
      Number of primitives:             25
      Number of atomic orbitals:        25
      Number of basis functions:        25

      Number of irreps:                  4
      Number of functions per irrep: [  12    2    4    7 ]

      Computing integrals...done

      Computed 13617 non-zero integrals.

  ==> Iterations <==

                        Total Energy        Delta E     Density RMS

   @RHF iter   1:   -68.35488443461821   -9.59554e+00   0.00000e+00  
	Occupation by irrep:
	         A1    A2    B1    B2 
	DOCC [     4,    0,    0,    1 ]
   @RHF iter   2:   -71.39794024417724   -3.04306e+00   5.03598e-01 DIIS
	Occupation by irrep:
	         A1    A2    B1    B2 
	DOCC [     3,    0,    1,    1 ]
   @RHF iter   3:   -75.77170401143009   -4.37376e+00   4.76874e-01 DIIS
   @RHF iter   4:   -76.00006703142691   -2.28363e-01   1.67735e-02 DIIS
   @RHF iter   5:   -76.01682092540251   -1.67539e-02   7.81375e-03 DIIS
   @RHF iter   6:   -76.01724894131669   -4.28016e-04   1.27860e-03 DIIS
   @RHF iter   7:   -76.01729489704316   -4.59557e-05   5.67962e-04 DIIS
   @RHF iter   8:   -76.01729646695615   -1.56991e-06   9.33668e-05 DIIS
   @RHF iter   9:   -76.01729656842251   -1.01466e-07   2.90504e-05 DIIS
   @RHF iter  10:   -76.01729657097100   -2.54849e-09   4.41619e-06 DIIS
   @RHF iter  11:   -76.01729657098959   -1.85878e-11   2.99617e-07 DIIS
   @RHF iter  12:   -76.01729657099034   -7.53175e-13   5.49673e-08 DIIS

  ==> Post-Iterations <==

	Orbital Energies (a.u.)
	-----------------------

	Doubly Occupied:                                                      

	   1A1   -20.569000     2A1    -1.320609     1B2    -0.678724  
	   3A1    -0.563930     1B1    -0.495004  

	Virtual:                                                              

	   4A1     0.202466     2B2     0.292719     3B2     0.981164  
	   5A1     1.056318     6A1     1.129179     2B1     1.168639  
	   4B2     1.294985     7A1     1.413596     1A2     1.802875  
	   8A1     1.806916     3B1     1.918871     9A1     2.513249  
	   5B2     2.537822     6B2     2.713577     2A2     2.921065  
	   4B1     2.947486    10A1     3.291755    11A1     3.620730  
	   7B2     3.874917    12A1     4.077740  

	Final Occupation by Irrep:
	         A1    A2    B1    B2 
	DOCC [     3,    0,    1,    1 ]

  Energy converged.

  @RHF Final Energy:   -76.01729657099034

  ==> Properties <==
  Nuclear Dipole Moment: (a.u.)
     X:     0.0000      Y:     0.0000      Z:     1.0351

  Electronic Dipole Moment: (a.u.)
     X:     0.0000      Y:     0.0000      Z:    -0.1532

  Dipole Moment: (a.u.)
     X:     0.0000      Y:     0.0000      Z:     0.8819     Total:     0.8819

  Dipole Moment: (Debye)
     X:     0.0000      Y:     0.0000      Z:     2.2415     Total:     2.2415


  Saving occupied orbitals to File 180.

*** tstop() called on ds9 at Tue Nov 22 18:14:35 2011
Module time:
	user time   =       0.12 seconds =       0.00 minutes
	system time =       0.01 seconds =       0.00 minutes
	total time  =          0 seconds =       0.00 minutes
Total time:
	user time   =       0.12 seconds =       0.00 minutes
	system time =       0.01 seconds =       0.00 minutes
	total time  =          0 seconds =       0.00 minutes

*** tstart() called on ds9
*** at Tue Nov 22 18:14:35 2011


	**************************************************
	* TRANSQT2: Program to transform integrals from  *
	*           the SO basis to the MO basis.        *
	*                                                *
	*            Daniel, David, & Justin             *
	**************************************************


	Input parameters:
	-----------------
	Wave function   =	DETCI
	Backtransform   =	No
	Print Level     =	1
	Print TEIs      =	No
	Reference wfn   =	RHF
	Derivative      =	None
	Delete TEI File =	Yes
	Memory (Mbytes) =	100.0
	Cache Level     =	2
	Cache Type      =	LRU
	Chkpt Parameters:
	--------------------
	Number of irreps     = 4
	Number of SOs        = 25
	Number of MOs        = 25
	Number of active MOs = 25

	Label	# SOs	# FZDC	# DOCC	# SOCC	# VIRT	# FZVR
	-----	-----	------	------	------	------	------
	 A1	   12	    0	    3	    0	    9	    0
	 A2	   2	    0	    0	    0	    2	    0
	 B1	   4	    0	    1	    0	    3	    0
	 B2	   7	    0	    1	    0	    6	    0

	Nuclear Rep. energy (chkpt) =      8.80468729099867
	SCF energy          (chkpt) =    -76.01729657099034

	Presorting SO-basis two-electron integrals.
	Sorting File: SO Ints (pq,rs) nbuckets = 1
	Frozen-core energy =  -61.217512253807534
	Starting first half-transformation.
	Sorting half-transformed integrals.
	Starting second half-transformation.
	Two-electron integral transformation complete.

*** tstop() called on ds9 at Tue Nov 22 18:14:35 2011
Module time:
	user time   =       0.02 seconds =       0.00 minutes
	system time =       0.00 seconds =       0.00 minutes
	total time  =          0 seconds =       0.00 minutes
Total time:
	user time   =       0.14 seconds =       0.00 minutes
	system time =       0.01 seconds =       0.00 minutes
	total time  =          0 seconds =       0.00 minutes

*** tstart() called on ds9
*** at Tue Nov 22 18:14:35 2011


*******************************************************
                       D E T C I  

                   C. David Sherrill
                   Matt L. Leininger
                     18 June 1999
*******************************************************




PARAMETERS: 
   EX LVL        =        2      H0 BLOCKSIZE =      400
   VAL EX LVL    =        0      H0 GUESS SIZE=      400
   H0COUPLINGSIZE=        0      H0 COUPLING  =       no
   NPRINT        =       20
   MAXITER       =       12      FREEZE CORE  =      yes
   NUM ROOTS     =        1      ICORE        =        1
   PRINT         =        1      FCI          =       no
   CONV          =        4      MIXED        =      yes
   E CONV        =        6      MIXED4       =      yes
   OEI FILE      =       35      R4S          =       no
   REPL OTF      =       no
   TEI FILE      =       72      DIAG METHOD  =      SEM
   PRECONDITIONER= DAVIDSON      UPDATE       =   DAVIDSON
   S             =   0.0000      Ms0          =      yes
   MAXNVECT      =       13
   RESTART       =       no
   GUESS VECTOR  =  H0BLOCK      OPENTYPE     =     NONE
   REF SYM       =     auto
   COLLAPSE SIZE =        1      HD AVE       = EVANGELISTI
   LSE           =       no      LSE ITER     =        0
   HD OTF        =      yes      NO DFILE     =       no
   MPN           =       no      MPN SCHMIDT  =       no
   ZAPTN         =       no      WIGNER       =       no
   PERT Z        =   1.0000      ROOT         =        0
   NTHREADS      =        1
   EXPORT VECTOR =       no      NUM EXPORT   =        0
   FILTER_GUESS  =       no      SF_RESTRICT  =       no
   OPDM          =       no      TRANS DENSITY=       no

   FILES         =  50 51 52 53

   EX_ALLOW      =  1  1 
   STATE AVERAGE =  1(1.00) 
   STATE AVERAGE =  1(1.00) 

ORBITALS:
   NMO          =       25      NUM ALP      =        5
   ORBS IN CI   =        6      NUM ALP EXPL =        4
   FROZEN CORE  =        1      NUM BET      =        5
   RESTR CORE   =        0      NUM BET EXPL =        4
   IOPEN        =       no
   RAS1 LVL     =        3      A RAS3 MAX   =        2
   RAS1 MIN     =        8      B RAS3 MAX   =        2
   A RAS1 LVL   =        3      RAS4 LVL     =        6
   A RAS1 MIN   =        3      A RAS4 MAX   =        0
   A RAS1 MAX   =        5      B RAS4 MAX   =        0
   B RAS1 LVL   =        3      RAS4 MAX     =        0
   B RAS1 MIN   =        3      A RAS34 MAX  =        2
   B RAS1 MAX   =        5      B RAS34 MAX  =        2
   RAS3 LVL     =        4      RAS34 MAX    =        2
   RAS3 MAX     =        2

   DOCC         =  3  0  1  1 
   SOCC         =  0  0  0  0 
   FROZEN DOCC  =  1  0  0  0 
   FROZEN UOCC  =  8  2  3  5 
   RAS 1        =  2  0  1  1 
   RAS 2        =  0  0  0  0 
   RAS 3        =  1  0  0  1 
   RAS 4        =  0  0  0  0 
*******************************************************


There are 15 alpha strings
There are 15 beta strings
CI space contains    9 blocks

CI space requires 31 determinants

Check SCF Energy from 1- and 2-electron integrals

SCF Energy (ref):            -76.0172965710
Nuclear repulsion energy:      8.8046872910
One-electron energy:         -41.0924073359
Two-electron energy:          17.4879357277
Frozen core energy:          -61.2175122538
Total electronic energy:     -84.8219838620
Total SCF energy:            -76.0172965710

 CI vector/subblock length = 31

*** H0 Block Eigenvalue = -76.02968302

Find the roots by the Simultaneous Expansion Method (Block Davidson Method)
Energy convergence = 1e-06
RMS CI vector convergence = 0.0001

Using 1 initial trial vectors
Iter  0  Root  1 = -76.029683023   Delta_E -2.362E+01   Delta_C  4.606E-14  
Warning: Norm of correction (root 0) is < 1.0E-13
Iter  1  Root  1 = -76.029683023   Delta_E -3.553E-15   Delta_C  1.712E-13 c

* ROOT 1 CI total energy = -76.0296830230206


The 20 most important determinants

    1    0.995725  (    3,    3)  2A1X  3A1X  1B1X  1B2X  
    2   -0.047200  (    6,    6)  2A1X  3A1X  1B1X  2B2X  
    3    0.028090  (    4,    6)  2A1X  3A1B  1B1X  1B2A  4A1A  2B2B  
    4    0.028090  (    6,    4)  2A1X  3A1A  1B1X  1B2B  4A1B  2B2A  
    5   -0.026911  (    4,    4)  2A1X  1B1X  1B2X  4A1X  
    6    0.018362  (    5,    6)  2A1B  3A1X  1B1X  1B2A  4A1A  2B2B  
    7    0.018362  (    6,    5)  2A1A  3A1X  1B1X  1B2B  4A1B  2B2A  
    8   -0.018302  (    9,    9)  2A1X  3A1X  1B1X  4A1X  
    9   -0.016443  (    4,    5)  2A1A  3A1B  1B1X  1B2X  4A1X  
   10   -0.016443  (    5,    4)  2A1B  3A1A  1B1X  1B2X  4A1X  
   11   -0.015785  (   10,   10)  2A1X  1B1X  1B2X  2B2X  
   12   -0.014846  (    5,    5)  3A1X  1B1X  1B2X  4A1X  
   13   -0.014474  (    3,    7)  2A1X  3A1A  1B1X  1B2A  4A1B  2B2B  
   14   -0.014474  (    7,    3)  2A1X  3A1B  1B1X  1B2B  4A1A  2B2A  
   15    0.013666  (    3,    4)  2A1X  3A1A  1B1X  1B2X  4A1B  
   16    0.013666  (    4,    3)  2A1X  3A1B  1B1X  1B2X  4A1A  
   17    0.013616  (    9,   10)  2A1X  3A1A  1B1X  1B2B  4A1A  2B2B  
   18    0.013616  (   10,    9)  2A1X  3A1B  1B1X  1B2A  4A1B  2B2A  
   19   -0.011604  (    3,    6)  2A1X  3A1X  1B1X  1B2A  2B2B  
   20   -0.011604  (    6,    3)  2A1X  3A1X  1B1X  1B2B  2B2A  




        Total Time (s)     %Time 		%Relative
 -----------------------------------------------------
 Read      0.000087
 Write     0.000100
 Sigma1    0.000014
 Sigma2    0.000070
 Sigma3    0.000176
 S1 Thread 0.000000
 S2 Thread 0.000000
 S3 Thread 0.000000

		 "A good bug is a dead bug" 

			 - Starship Troopers

		 "I didn't write FORTRAN.  That's the problem."

			 - Edward Valeev


*** tstop() called on ds9 at Tue Nov 22 18:14:35 2011
Module time:
	user time   =       0.01 seconds =       0.00 minutes
	system time =       0.00 seconds =       0.00 minutes
	total time  =          0 seconds =       0.00 minutes
Total time:
	user time   =       0.15 seconds =       0.00 minutes
	system time =       0.01 seconds =       0.00 minutes
	total time  =          0 seconds =       0.00 minutes

*** PSI4 exiting successfully. Buy a developer a beer!
