    -----------------------------------------------------------------------
          PSI4: An Open-Source Ab Initio Electronic Structure Package
                              PSI 4.0.0-beta1 Driver

    J. M. Turney, A. C. Simmonett, R. M. Parrish, E. G. Hohenstein,
    F. Evangelista, J. T. Fermann, B. J. Mintz, L. A. Burns, J. J. Wilke,
    M. L. Abrams, N. J. Russ, M. L. Leininger, C. L. Janssen, E. T. Seidl,
    W. D. Allen, H. F. Schaefer, R. A. King, E. F. Valeev, C. D. Sherrill,
    and T. D. Crawford, WIREs Comput. Mol. Sci., (2011) (doi: 10.1002/wcms.93)

                         Additional Contributions by
    A. E. DePrince, M. Saitow, U. Bozkaya, A. Yu. Sokolov
    -----------------------------------------------------------------------


    Using LocalCommunicator (Number of processes = 1)

    Memory level set to 256.000 MB

  ==> Input File <==

--------------------------------------------------------------------------
molecule ch {
  0 2
  C
  H 1 1.1198
}

set {
  wfn eom_cc3
  states_per_irrep [3, 0, 0, 0]
  reference rohf
  basis Sadlej-pVTZ
  freeze_core true
  prop_root 2
}

basis {
[Sadlej-pVTZ]
spherical
****
H 0
S 4 1.00
        33.8650140000           0.0060680000
         5.0947880000           0.0453160000
         1.1587860000           0.2028460000
         0.3258400000           0.5037090000
S 1 1.00
         0.1027410000           1.0000000000
S 1 1.00
         0.0324000000           1.0000000000
P 2 1.00
         1.1588000000           0.1884400000
         0.3258000000           0.8824200000
P 2 1.00
         0.1027000000           0.1178000000
         0.0324000000           0.0042000000
****
C 0
S 5 1.00
      5240.6353000000           0.0009370000
       782.2048000000           0.0072280000
       178.3508300000           0.0363440000
        50.8159420000           0.1306000000
        16.8235620000           0.3189310000
S 2 1.00
         6.1757760000           0.4387420000
         2.4180490000           0.2149740000
S 1 1.00
         0.5119000000           1.0000000000
S 1 1.00
         0.1565900000           1.0000000000
S 1 1.00
         0.0479000000           1.0000000000
P 4 1.00
        18.8418000000           0.0138870000
         4.1592400000           0.0862790000
         1.2067100000           0.2887440000
         0.3855400000           0.4994110000
P 1 1.00
         0.1219400000           1.0000000000
P 1 1.00
         0.0385680000           1.0000000000
D 2 1.00
         1.2067000000           0.2628500000
         0.3855000000           0.8043000000
D 2 1.00
         0.1219000000           0.6535000000
         0.0386000000           0.8636000000
****
O 0
S 5 1.00
     10662.2850000000           0.0007990000
      1599.7097000000           0.0061530000
       364.7252600000           0.0311570000
       103.6517900000           0.1155960000
        33.9058050000           0.3015520000
S 2 1.00
        12.2874690000           0.4448700000
         4.7568050000           0.2431720000
S 1 1.00
         1.0042710000           1.0000000000
S 1 1.00
         0.3006860000           1.0000000000
S 1 1.00
         0.0900300000           1.0000000000
P 4 1.00
        34.8564630000           0.0156480000
         7.8431310000           0.0981970000
         2.3062490000           0.3077680000
         0.7231640000           0.4924700000
P 1 1.00
         0.2148820000           1.0000000000
P 1 1.00
         0.0638500000           1.0000000000
D 2 1.00
         2.3062000000           0.2027000000
         0.7232000000           0.5791000000
D 2 1.00
         0.2149000000           0.7854500000
         0.0639000000           0.5338700000
****
}

energy('eom-cc3')
clean()
--------------------------------------------------------------------------
update_geometry() is called.
Geometry bf reorientation.
  Irrep: 1 Size: 2 x 3

                 1            2            3

    1    0.0000000    0.0000000    0.0000000
    2    0.0000000    0.0000000    2.1161152




*** tstart() called on lawn-143-215-105-45.lawn.gatech.edu
*** at Fri Jan  6 11:09:32 2012

update_geometry() is called.
Geometry bf reorientation.
  Irrep: 1 Size: 2 x 3

                 1            2            3

    1    0.0000000    0.0000000    0.0000000
    2    0.0000000    0.0000000    2.1161152



  Basis set Sadlej-pVTZ for C read from /tmp/sadlej-pvtz.gbs
  Basis set Sadlej-pVTZ for H read from /tmp/sadlej-pvtz.gbs

         ---------------------------------------------------------
                                   SCF
            by Justin Turney, Rob Parrish, and Andy Simmonett
                             ROHF Reference
                        1 Threads,    256 MiB Core
         ---------------------------------------------------------

  ==> Geometry <==

    Molecular point group: c2v

    Geometry (in Angstrom), charge = 0, multiplicity = 2:

       Center              X                  Y                   Z       
    ------------   -----------------  -----------------  -----------------
           C          0.000000000000     0.000000000000    -0.086760274537
           H          0.000000000000     0.000000000000     1.033039725463

    Number of unique atoms: 2

    Atoms equivalency:
       unique atom 0: 0 
       unique atom 1: 1 

  Running in c2v symmetry.

  Nuclear repulsion =    2.835384438292553

  Charge       = 0
  Multiplicity = 2
  Electrons    = 7
  Nalpha       = 4
  Nbeta        = 3

  ==> Algorithm <==

  SCF Algorithm Type is PK.
  DIIS enabled.
  MOM disabled.
  Guess Type is CORE.
  Energy threshold   = 1.00e-08
  Density threshold  = 1.00e-08
  Integral threshold = 0.00e+00

  ==> Primary Basis: SADLEJ-PVTZ <==

  Basis Set
    Number of shells: 15
    Number of basis function: 33
    Number of Cartesian functions: 35
    Spherical Harmonics?: true
    Max angular momentum: 2

  ==> Pre-Iterations <==

  Minimum eigenvalue in the overlap matrix is 1.0499439731E-03.
  Using Symmetric Orthogonalization.
  SCF Guess: Core (One-Electron) Hamiltonian.

  Initial ROHF energy:   -27.10424236765363

   -------------------------------------------------------
    Irrep   Nso     Nmo     Nalpha   Nbeta   Ndocc  Nsocc
   -------------------------------------------------------
     A1        17      17       3       3       3       0
     A2         2       2       0       0       0       0
     B1         7       7       1       0       0       1
     B2         7       7       0       0       0       0
   -------------------------------------------------------
    Total      33      33       4       3       3       1
   -------------------------------------------------------

  ==> Integral Setup <==

update_geometry() is called.
Geometry bf reorientation.
  Irrep: 1 Size: 2 x 3

                 1            2            3

    1    0.0000000    0.0000000    0.0000000
    2    0.0000000    0.0000000    2.1161152



update_geometry() is called.
Geometry bf reorientation.
  Irrep: 1 Size: 2 x 3

                 1            2            3

    1    0.0000000    0.0000000    0.0000000
    2    0.0000000    0.0000000    2.1161152



  Basis set Sadlej-pVTZ for C read from /tmp/sadlej-pvtz.gbs
  Basis set Sadlej-pVTZ for H read from /tmp/sadlej-pvtz.gbs
 MINTS: Wrapper to libmints.
   by Justin Turney

   Calculation information:
      Number of atoms:                   2
      Number of AO shells:              15
      Number of SO shells:              15
      Number of primitives:             30
      Number of atomic orbitals:        35
      Number of basis functions:        33

      Number of irreps:                  4
      Number of functions per irrep: [  17    2    7    7 ]

      Overlap, kinetic, potential, dipole, and quadrupole integrals
        stored in file 35.

      Computing two-electron integrals...done
      Computed 34324 non-zero two-electron integrals.
        Stored in file 33.

  ==> Iterations <==

                        Total Energy        Delta E     Density RMS

   @ROHF iter   1:   -35.76420841303695   -8.65997e+00   1.39805e-76 
	Occupation by irrep:
	         A1    A2    B1    B2 
	DOCC [     3,    0,    0,    0 ]
	SOCC [     1,    0,    0,    0 ]
   @ROHF iter   2:   -36.93070100567995   -1.16649e+00   2.46060e+00 DIIS
	Occupation by irrep:
	         A1    A2    B1    B2 
	DOCC [     3,    0,    0,    0 ]
	SOCC [     0,    0,    1,    0 ]
   @ROHF iter   3:   -38.15083587928596   -1.22013e+00   2.46191e+00 DIIS
   @ROHF iter   4:   -38.25756619720590   -1.06730e-01   2.86937e-02 DIIS
   @ROHF iter   5:   -38.27249495301211   -1.49288e-02   1.16567e-02 DIIS
   @ROHF iter   6:   -38.27298577908856   -4.90826e-04   3.52774e-03 DIIS
   @ROHF iter   7:   -38.27301516266637   -2.93836e-05   8.96094e-04 DIIS
   @ROHF iter   8:   -38.27301732228646   -2.15962e-06   2.20048e-04 DIIS
   @ROHF iter   9:   -38.27301740850241   -8.62159e-08   5.87901e-05 DIIS
   @ROHF iter  10:   -38.27301741853557   -1.00332e-08   1.88321e-05 DIIS
   @ROHF iter  11:   -38.27301741909767   -5.62096e-10   3.49869e-06 DIIS
   @ROHF iter  12:   -38.27301741912461   -2.69367e-11   8.39592e-07 DIIS
   @ROHF iter  13:   -38.27301741912510   -4.90274e-13   1.13297e-07 DIIS
   @ROHF iter  14:   -38.27301741912512   -2.13163e-14   2.71922e-08 DIIS

  ==> Post-Iterations <==

	Orbital Energies (a.u.)
	-----------------------

	Doubly Occupied:                                                      

	   1A1   -11.321827     2A1    -0.830378     3A1    -0.455181  

	Singly Occupied:                                                      

	   1B1    -0.133924  

	Virtual:                                                              

	   1B2     0.025648     4A1     0.036656     5A1     0.104444  
	   2B1     0.107929     2B2     0.134246     6A1     0.176599  
	   7A1     0.185700     3B2     0.188214     3B1     0.192170  
	   1A2     0.205862     8A1     0.206878     9A1     0.320624  
	   4B1     0.353517     4B2     0.355196    10A1     0.479964  
	  11A1     0.635030     5B1     0.665178     5B2     0.684597  
	  12A1     0.786647     6B2     1.059652     6B1     1.062181  
	  13A1     1.205717     2A2     1.298826    14A1     1.299179  
	  15A1     1.636236     7B2     1.676862     7B1     1.689054  
	  16A1     2.350283    17A1    22.370009  

	Final Occupation by Irrep:
	         A1    A2    B1    B2 
	DOCC [     3,    0,    0,    0 ]
	SOCC [     0,    0,    1,    0 ]

  Energy converged.

  @ROHF Final Energy:   -38.27301741912512

  ==> Properties <==
  Nuclear Dipole Moment: (a.u.)
     X:     0.0000      Y:     0.0000      Z:     0.9684

  Electronic Dipole Moment: (a.u.)
     X:     0.0000      Y:     0.0000      Z:    -0.3522

  Dipole Moment: (a.u.)
     X:     0.0000      Y:     0.0000      Z:     0.6162     Total:     0.6162

  Dipole Moment: (Debye)
     X:     0.0000      Y:     0.0000      Z:     1.5663     Total:     1.5663


  Saving occupied orbitals to File 180.

*** tstop() called on lawn-143-215-105-45.lawn.gatech.edu at Fri Jan  6 11:09:32 2012
Module time:
	user time   =       0.25 seconds =       0.00 minutes
	system time =       0.00 seconds =       0.00 minutes
	total time  =          0 seconds =       0.00 minutes
Total time:
	user time   =       0.25 seconds =       0.00 minutes
	system time =       0.00 seconds =       0.00 minutes
	total time  =          0 seconds =       0.00 minutes

*** tstart() called on lawn-143-215-105-45.lawn.gatech.edu
*** at Fri Jan  6 11:09:32 2012


	**************************************************
	* TRANSQT2: Program to transform integrals from  *
	*           the SO basis to the MO basis.        *
	*                                                *
	*            Daniel, David, & Justin             *
	**************************************************


	Input parameters:
	-----------------
	Wave function   =	CC3
	Backtransform   =	No
	Print Level     =	1
	Print TEIs      =	No
	Reference wfn   =	ROHF (using UHF for semicanonical orbitals)
	Derivative      =	None
	Delete TEI File =	Yes
	Memory (Mbytes) =	256.0
	Cache Level     =	2
	Cache Type      =	LRU
	Chkpt Parameters:
	--------------------
	Number of irreps     = 4
	Number of SOs        = 33
	Number of MOs        = 33
	Number of active MOs = 32

	Label	# SOs	# FZDC	# DOCC	# SOCC	# VIRT	# FZVR
	-----	-----	------	------	------	------	------
	 A1	   17	    1	    2	    0	    14	    0
	 A2	   2	    0	    0	    0	    2	    0
	 B1	   7	    0	    0	    1	    6	    0
	 B2	   7	    0	    0	    0	    7	    0

	Nuclear Rep. energy (chkpt) =      2.83538443829255
	SCF energy          (chkpt) =    -38.27301741912512

	Presorting SO-basis two-electron integrals.
	Sorting File: SO Ints (pq,rs) nbuckets = 1
	Frozen-core energy =  -33.304038770983439
	Starting AA/AB first half-transformation.
	Sorting AA/AB half-transformed integrals.
	Starting AA second half-transformation.
	Starting AB second half-transformation.
	Starting BB first half-transformation.
	Sorting BB half-transformed integrals.
	Starting BB second half-transformation.
	Two-electron integral transformation complete.

*** tstop() called on lawn-143-215-105-45.lawn.gatech.edu at Fri Jan  6 11:09:32 2012
Module time:
	user time   =       0.07 seconds =       0.00 minutes
	system time =       0.03 seconds =       0.00 minutes
	total time  =          0 seconds =       0.00 minutes
Total time:
	user time   =       0.32 seconds =       0.01 minutes
	system time =       0.03 seconds =       0.00 minutes
	total time  =          0 seconds =       0.00 minutes

*** tstart() called on lawn-143-215-105-45.lawn.gatech.edu
*** at Fri Jan  6 11:09:32 2012


			**************************
			*                        *
			*         CCSORT         *
			*                        *
			**************************


	Input parameters:
	-----------------
	Wave function   =	CC3
	Reference wfn   =	ROHF changed to UHF for Semicanonical Orbitals
	Derivative      =	None
	Memory (Mbytes) =	256.0
	AO Basis        =	NONE
	Make (ab|cd)    =	True
	Make unpacked (ab|cd) =	True
	Cache Level     =	2
	Cache Type      =	LRU
	Local CC        =     No


	Chkpt Parameters:
	--------------------
	Number of irreps     = 4
	Number of MOs        = 33
	Number of active MOs = 32

	Label	# MOs	# FZDC	# DOCC	# SOCC	# VIRT	# FZVR
	-----	-----	------	------	------	------	------
	 A1	   17	    1	    2	    0	    14	    0
	 A2	   2	    0	    0	    0	    2	    0
	 B1	   7	    0	    0	    1	    6	    0
	 B2	   7	    0	    0	    0	    7	    0

	Nuclear Rep. energy (chkpt) =      2.83538443829255
	SCF energy          (chkpt) =    -38.27301741912512

	Size of irrep 0 of <AB|CD> integrals:      0.016 (MW) /      0.131 (MB)
	Size of irrep 1 of <AB|CD> integrals:      0.005 (MW) /      0.039 (MB)
	Size of irrep 2 of <AB|CD> integrals:      0.010 (MW) /      0.077 (MB)
	Size of irrep 3 of <AB|CD> integrals:      0.012 (MW) /      0.097 (MB)
	Total:                                     0.043 (MW) /      0.344 (MB)

	Size of irrep 0 of <ab|cd> integrals:      0.018 (MW) /      0.144 (MB)
	Size of irrep 1 of <ab|cd> integrals:      0.006 (MW) /      0.047 (MB)
	Size of irrep 2 of <ab|cd> integrals:      0.013 (MW) /      0.100 (MB)
	Size of irrep 3 of <ab|cd> integrals:      0.013 (MW) /      0.100 (MB)
	Total:                                     0.049 (MW) /      0.392 (MB)

	Size of irrep 0 of <Ab|Cd> integrals:      0.085 (MW) /      0.677 (MB)
	Size of irrep 1 of <Ab|Cd> integrals:      0.022 (MW) /      0.173 (MB)
	Size of irrep 2 of <Ab|Cd> integrals:      0.044 (MW) /      0.353 (MB)
	Size of irrep 3 of <Ab|Cd> integrals:      0.049 (MW) /      0.394 (MB)
	Total:                                     0.200 (MW) /      1.597 (MB)

	Size of irrep 0 of <IA|BC> integrals:      0.010 (MW) /      0.078 (MB)
	Size of irrep 1 of <IA|BC> integrals:      0.002 (MW) /      0.012 (MB)
	Size of irrep 2 of <IA|BC> integrals:      0.005 (MW) /      0.041 (MB)
	Size of irrep 3 of <IA|BC> integrals:      0.004 (MW) /      0.028 (MB)
	Total:                                     0.020 (MW) /      0.159 (MB)

	Size of irrep 0 of <ia|bc> integrals:      0.008 (MW) /      0.067 (MB)
	Size of irrep 1 of <ia|bc> integrals:      0.001 (MW) /      0.005 (MB)
	Size of irrep 2 of <ia|bc> integrals:      0.003 (MW) /      0.025 (MB)
	Size of irrep 3 of <ia|bc> integrals:      0.003 (MW) /      0.025 (MB)
	Total:                                     0.015 (MW) /      0.122 (MB)

	Size of irrep 0 of <Ia|Bc> integrals:      0.010 (MW) /      0.081 (MB)
	Size of irrep 1 of <Ia|Bc> integrals:      0.002 (MW) /      0.013 (MB)
	Size of irrep 2 of <Ia|Bc> integrals:      0.006 (MW) /      0.047 (MB)
	Size of irrep 3 of <Ia|Bc> integrals:      0.004 (MW) /      0.028 (MB)
	Total:                                     0.021 (MW) /      0.170 (MB)

	Size of irrep 0 of <iA|bC> integrals:      0.008 (MW) /      0.065 (MB)
	Size of irrep 1 of <iA|bC> integrals:      0.001 (MW) /      0.005 (MB)
	Size of irrep 2 of <iA|bC> integrals:      0.003 (MW) /      0.020 (MB)
	Size of irrep 3 of <iA|bC> integrals:      0.003 (MW) /      0.025 (MB)
	Total:                                     0.014 (MW) /      0.115 (MB)

	Size of irrep 0 of tIjAb amplitudes:       0.001 (MW) /      0.009 (MB)
	Size of irrep 1 of tIjAb amplitudes:       0.000 (MW) /      0.000 (MB)
	Size of irrep 2 of tIjAb amplitudes:       0.000 (MW) /      0.003 (MB)
	Size of irrep 3 of tIjAb amplitudes:       0.000 (MW) /      0.000 (MB)
	Total:                                     0.002 (MW) /      0.013 (MB)


	Sorting File: A <IJ|KL> nbuckets = 1
	Sorting File: B <AB|CD> nbuckets = 1
	Sorting File: C <IA|JB> nbuckets = 1
	Sorting File: D <IJ|AB> nbuckets = 1
	Sorting File: E <AI|JK> nbuckets = 1
	Sorting File: F <IA|BC> nbuckets = 1
	Sorting File: F <AI|BC> nbuckets = 1
	Sorting File: A <ij|kl> nbuckets = 1
	Sorting File: B <ab|cd> nbuckets = 1
	Sorting File: C <ia|jb> nbuckets = 1
	Sorting File: D <ij|ab> nbuckets = 1
	Sorting File: E <ai|jk> nbuckets = 1
	Sorting File: F <ia|bc> nbuckets = 1
	Sorting File: F <ai|bc> nbuckets = 1
	Sorting File: A <Ij|Kl> nbuckets = 1
	Sorting File: B <Ab|Cd> nbuckets = 1
	Sorting File: C <Ia|Jb> nbuckets = 1
	Sorting File: C <Ai|Bj> nbuckets = 1
	Sorting File: D <Ij|Ab> nbuckets = 1
	Sorting File: E <Ai|Jk> nbuckets = 1
	Sorting File: E <Ij|Ka> nbuckets = 1
	Sorting File: F <Ia|Bc> nbuckets = 1
	Sorting File: F <aI|bC> nbuckets = 1
	Sorting File: F <Ab|Ci> nbuckets = 1
	Sorting File: F <Ai|Bc> nbuckets = 1
	One-electron energy          =    -12.62174513024738
	Two-electron (AA) energy     =      1.27554863224828
	Two-electron (BB) energy     =      0.39414781282673
	Two-electron (AB) energy     =      3.14768559873819
	Two-electron energy          =      4.81738204381320
	Frozen-core energy (transqt) =    -33.30403877098344
	Reference energy             =    -38.27301741912507

*** tstop() called on lawn-143-215-105-45.lawn.gatech.edu at Fri Jan  6 11:09:33 2012
Module time:
	user time   =       0.10 seconds =       0.00 minutes
	system time =       0.07 seconds =       0.00 minutes
	total time  =          1 seconds =       0.02 minutes
Total time:
	user time   =       0.42 seconds =       0.01 minutes
	system time =       0.10 seconds =       0.00 minutes
	total time  =          1 seconds =       0.02 minutes
update_geometry() is called.
Geometry bf reorientation.
  Irrep: 1 Size: 2 x 3

                 1            2            3

    1    0.0000000    0.0000000    0.0000000
    2    0.0000000    0.0000000    2.1161152



  Basis set Sadlej-pVTZ for C read from /tmp/sadlej-pvtz.gbs
  Basis set Sadlej-pVTZ for H read from /tmp/sadlej-pvtz.gbs

*** tstart() called on lawn-143-215-105-45.lawn.gatech.edu
*** at Fri Jan  6 11:09:33 2012

			**************************
			*                        *
			*        CCENERGY        *
			*                        *
			**************************

	Nuclear Rep. energy (chkpt)   =    2.835384438292553
	SCF energy          (chkpt)   =  -38.273017419125118
	Reference energy    (file100) =  -38.273017419125068

	Input parameters:
	-----------------
	Wave function   =      CC3
	Reference wfn   =     ROHF changed to UHF for Semicanonical Orbitals
	Memory (Mbytes) =     256.0
	Maxiter         =     50
	Convergence     =     1.0e-07
	Restart         =     No
	DIIS            =     Yes
	AO Basis        =     NONE
	ABCD            =     NEW
	Cache Level     =     2
	Cache Type      =     LRU
	Print Level     =     1
	Num. of threads =     1
	# Amps to Print =     10
	Print MP2 Amps? =     No
	Analyze T2 Amps =     No
	Print Pair Ener =     No
	Local CC        =     No
	T3 Ws incore    =     No
	SCS-MP2         =     False
	SCSN-MP2        =     False
	SCS-CCSD        =     False

	            Solving CC Amplitude Equations
	            ------------------------------
  Iter             Energy              RMS        T1Diag      D1Diag    New D1Diag
  ----     ---------------------    ---------   ----------  ----------  ----------
     0        -0.085947990539384    0.000e+00    0.018491    0.000000    0.000000
     1        -0.105141702310607    5.592e-02    0.022625    0.000000    0.000000
     2        -0.113789609985424    2.599e-02    0.025460    0.000000    0.000000
     3        -0.114766028378026    9.753e-03    0.026300    0.000000    0.000000
     4        -0.114927084773038    3.224e-03    0.026308    0.000000    0.000000
     5        -0.114921877432746    1.362e-03    0.026258    0.000000    0.000000
     6        -0.114921669845067    5.945e-04    0.026219    0.000000    0.000000
     7        -0.114932773002739    1.634e-04    0.026219    0.000000    0.000000
     8        -0.114928591188954    4.794e-05    0.026219    0.000000    0.000000
     9        -0.114928446486036    1.820e-05    0.026219    0.000000    0.000000
    10        -0.114928350815607    7.277e-06    0.026219    0.000000    0.000000
    11        -0.114928498437508    2.643e-06    0.026219    0.000000    0.000000
    12        -0.114928440283793    1.032e-06    0.026219    0.000000    0.000000
    13        -0.114928406695334    3.243e-07    0.026219    0.000000    0.000000
    14        -0.114928405711605    1.210e-07    0.026219    0.000000    0.000000
    15        -0.114928407786600    4.738e-08    0.026219    0.000000    0.000000

	Iterations converged.


	Largest TIA Amplitudes:
	          0   7        -0.0138365084
	          0   6         0.0136077638
	          0  10         0.0125344232
	          0   2        -0.0122250640
	          0  11        -0.0115403601
	          0   8         0.0110085230
	          1   7        -0.0108722979
	          2  16        -0.0106276375
	          1   2        -0.0102244859
	          0   5        -0.0100699074

	Largest Tia Amplitudes:
	          0  10        -0.0229088869
	          1  10        -0.0202114780
	          1   4        -0.0123599586
	          1   5        -0.0121128854
	          0   4        -0.0099819262
	          1   1         0.0095979941
	          1   3         0.0073446429
	          0   2         0.0068131987
	          1  11         0.0066112405
	          0   7         0.0062197608

	Largest TIJAB Amplitudes:
	  2   1  20   8         0.0168560110
	  2   1  19   7        -0.0168302081
	  2   1  19   8        -0.0134268954
	  2   1  18   8         0.0126588312
	  2   1  20   5        -0.0116849240
	  2   1  18   5        -0.0116634293
	  2   0  22  15         0.0115252007
	  2   0  19   9         0.0114482391
	  2   1  19   5         0.0113046219
	  2   1  19   1        -0.0112250037

	Largest Tijab Amplitudes:
	  1   0  21  17         0.0099322264
	  1   0  28  23        -0.0089448832
	  1   0  21  16        -0.0081923543
	  1   0  28  24         0.0075367243
	  1   0  11   8         0.0069145343
	  1   0   7   6         0.0065248123
	  1   0   6   5         0.0060676017
	  1   0   9   7        -0.0055683715
	  1   0   7   2        -0.0055343919
	  1   0  11   5        -0.0054997060

	Largest TIjAb Amplitudes:
	  1   1  22  23         0.0700316816
	  1   1  22  24        -0.0541044299
	  1   1  23  23         0.0438021048
	  0   0  22  23         0.0424475001
	  1   1   8   8        -0.0421575961
	  0   0  22  24        -0.0359945277
	  1   1  23  24        -0.0338612552
	  0   1  22  23         0.0331718882
	  0   0  23  23         0.0290959682
	  0   1  22  24        -0.0287663612

	SCF energy       (chkpt)              =  -38.273017419125118
	Reference energy (file100)            =  -38.273017419125068

	Opposite-spin MP2 correlation energy  =    0.000000000000000
	Same-spin MP2 correlation energy      =    0.000000000000000
	MP2 correlation energy                =   -0.085903983171326
      * MP2 total energy                      =  -38.358921402296396
	CC3 correlation energy     =   -0.114928407786600
      * CC3 total energy           =  -38.387945826911668


*** tstop() called on lawn-143-215-105-45.lawn.gatech.edu at Fri Jan  6 11:09:39 2012
Module time:
	user time   =       4.25 seconds =       0.07 minutes
	system time =       2.18 seconds =       0.04 minutes
	total time  =          6 seconds =       0.10 minutes
Total time:
	user time   =       4.69 seconds =       0.08 minutes
	system time =       2.28 seconds =       0.04 minutes
	total time  =          7 seconds =       0.12 minutes

*** tstart() called on lawn-143-215-105-45.lawn.gatech.edu
*** at Fri Jan  6 11:09:39 2012


			**************************
			*                        *
			*         CCHBAR         *
			*                        *
			**************************

Dots of (HeT1)c in names "CC3 Wxxx" in CC3_HET1 
Wamef terms
	<WAMEF|WAMEF> =    1.5252721977
	<Wamef|Wamef> =    1.0763681083
	<WAmEf|WAmEf> =    1.0045495394
	<WaMeF|WaMeF> =    1.5630005020
Wmnie terms
	<WMNIE (M>N,IE)|WMNIE> =    0.1452946864
	<Wmnie (m>n,ie)|Wmnie> =    0.0401803960
	<WMnIe (Mn,Ie)|WMnIe> =    0.1540821240
	<WmNiE (mN,iE)|WmNiE> =    0.1255022328
	<WMNIE(M>N,EI)|WMNIE(M>N,EI)> =    0.1452946864
	<Wmnie(m>n,ei)|Wmnie(m>n,ei)> =    0.0401803960
	<WMnIe(Mn,eI)|WMnIe(Mn,eI)> =    0.1540821240
	<WmNiE(mN,Ei)|WmNiE(mN,Ei)> =    0.1255022328
Doing Wmnij terms.
	<WMNIJ (M>N,I>J)|WMNIJ> =    2.1874483097
	<Wmnij (m>n,i>j)|Wmnij> =    0.6156871611
	<WMnIj (Mn,Ij)|WMnIj> =    1.7197505719
Doing Wmbij terms.
	<WMBIJ (MB,I>J)|WMBIJ> =    0.1455925240
	<WMBIJ (I>J,MB)|WMBIJ> =    0.1455925240
	<Wmbij (mb,i>j)|Wmbij> =    0.0406704411
	<Wmbij (i>j,mb)|Wmbij> =    0.0406704411
	<WMbIj (Mb,Ij)|WMbIj> =    0.1538336270
	<WMbIj (Ij,Mb)|WMbIj> =    0.1538336270
	<WmBiJ (mB,iJ)|WmBiJ> =    0.1266986669
	<WmBiJ (iJ,mB)|WmBiJ> =    0.1266986669
Doing Wmbej terms.
	<WMBEJ (all ME,JB)|WMBEJ> =   10.7785220837
	<Wmbej|Wmbej> =    7.5952151031
	<WMbEj|WMbEj> =    0.1959156480
	<WmBeJ|WmBeJ> =    0.1960157847
	<WMbeJ|WMbeJ> =   13.7856554649
	<WmBEj|WmBEj> =    8.5812288674
Doing Wabei terms.
	<WABEI (IE,B>A) |WABEI> =    1.5337406206
	<Wabei (ie,b>a)|Wabei> =    1.0826307148
	<WAbEi (iE,bA)|WAbEi> =    1.0108330089
	<WAbEi (iE,Ba)|WAbEi> =    1.5768527509

*** tstop() called on lawn-143-215-105-45.lawn.gatech.edu at Fri Jan  6 11:09:39 2012
Module time:
	user time   =       0.06 seconds =       0.00 minutes
	system time =       0.05 seconds =       0.00 minutes
	total time  =          0 seconds =       0.00 minutes
Total time:
	user time   =       4.75 seconds =       0.08 minutes
	system time =       2.33 seconds =       0.04 minutes
	total time  =          7 seconds =       0.12 minutes

*** tstart() called on lawn-143-215-105-45.lawn.gatech.edu
*** at Fri Jan  6 11:09:39 2012


	**********************************************************
	*  CCEOM: An Equation of Motion Coupled Cluster Program  *
	**********************************************************

	Nuclear Rep. energy (chkpt)   =    2.835384438292553
	SCF energy          (chkpt)   =  -38.273017419125118
	Reference energy    (file100) =  -38.273017419125068
	CC3 energy          (file100) =   -0.114928407786600

	Input parameters:
	-----------------
	Reference wfn   = ROHF changed to UHF for Semicanonical Orbitals
	Reference EOM wfn=     UHF
	Memory (Mbytes) =  256.0
	ABCD            =     NEW
	Cache Level     =    2
	Cache Type      =     LRU
	T3 Ws incore  =      No
	Num. of threads =     1
	Local CC        =     No


	CCEOM parameters:
	-----------------
	States sought per irrep     = A1 3, A2 0, B1 0, B2 0,
	Max. number of iterations   =    80
	Vectors stored per root     =    12
	Print HbarSS iterations?    =     0
	Excitation range for HBarSS =     2
	Eigenvalue tolerance        = 1.0e-08
	Eigenvalue toleranceSS      = 1.0e-06
	Residual vector tolerance   = 1.0e-06
	Residual vector toleranceSS = 1.0e-06
	Complex tolerance           = 1.0e-12
	Root for properties         =     2
	Sym of state for properties =     B1
	Guess vectors taken from    = SINGLES
	Restart EOM CC3             = NO
	Collapse with last vector   = YES


Symmetry of ground state: B1
Symmetry of excited state: A1
Symmetry of right eigenvector: B1
Obtaining initial guess from singles-singles block of Hbar...Done.

Iter=1    L=3     Root    EOM Energy     Delta E   Res. Norm    Conv?
                     1   0.1890401358   1.89e-01    3.19e-01      N
                     2   0.3037850510   3.04e-01    2.72e-01      N
                     3   0.3665087199   3.67e-01    2.63e-01      N
Iter=2    L=6     Root    EOM Energy     Delta E   Res. Norm    Conv?
                     1   0.1314769407  -5.76e-02    6.09e-02      N
                     2   0.2404975362  -6.33e-02    6.13e-02      N
                     3   0.3081878349  -5.83e-02    5.73e-02      N
Iter=3    L=9     Root    EOM Energy     Delta E   Res. Norm    Conv?
                     1   0.1285858470  -2.89e-03    3.30e-02      N
                     2   0.2370804154  -3.42e-03    2.14e-02      N
                     3   0.3046372308  -3.55e-03    2.25e-02      N
Iter=4    L=12    Root    EOM Energy     Delta E   Res. Norm    Conv?
                     1   0.1265097944  -2.08e-03    3.50e-02      N
                     2   0.2365253135  -5.55e-04    1.90e-02      N
                     3   0.3032616651  -1.38e-03    4.33e-02      N
Iter=5    L=15    Root    EOM Energy     Delta E   Res. Norm    Conv?
                     1   0.1240764207  -2.43e-03    2.56e-02      N
                     2   0.2199574797  -1.66e-02    1.46e-01      N
                     3   0.2373196612  -6.59e-02    4.02e-02      N
Iter=6    L=18    Root    EOM Energy     Delta E   Res. Norm    Conv?
                     1   0.1231648758  -9.12e-04    1.33e-02      N
                     2   0.1989862673  -2.10e-02    6.78e-02      N
                     3   0.2368341988  -4.85e-04    9.01e-03      N
Iter=7    L=21    Root    EOM Energy     Delta E   Res. Norm    Conv?
                     1   0.1229783581  -1.87e-04    5.85e-03      N
                     2   0.1939774363  -5.01e-03    3.27e-02      N
                     3   0.2367801705  -5.40e-05    4.37e-03      N
Iter=8    L=24    Root    EOM Energy     Delta E   Res. Norm    Conv?
                     1   0.1229371818  -4.12e-05    2.04e-03      N
                     2   0.1931002806  -8.77e-04    1.27e-02      N
                     3   0.2367683619  -1.18e-05    1.84e-03      N
Iter=9    L=27    Root    EOM Energy     Delta E   Res. Norm    Conv?
                     1   0.1229290440  -8.14e-06    7.03e-04      N
                     2   0.1929730130  -1.27e-04    4.79e-03      N
                     3   0.2367667579  -1.60e-06    7.25e-04      N
Iter=10   L=30    Root    EOM Energy     Delta E   Res. Norm    Conv?
                     1   0.1229304920   1.45e-06    2.43e-04      N
                     2   0.1929410959  -3.19e-05    1.85e-03      N
                     3   0.2367676621   9.04e-07    3.02e-04      N
Iter=11   L=33    Root    EOM Energy     Delta E   Res. Norm    Conv?
                     1   0.1229315020   1.01e-06    8.27e-05      N
                     2   0.1929388887  -2.21e-06    7.09e-04      N
                     3   0.2367681018   4.40e-07    1.34e-04      N
Iter=12   L=36    Root    EOM Energy     Delta E   Res. Norm    Conv?
                     1   0.1229317523   2.50e-07    2.62e-05      N
                     2   0.1929389960   1.07e-07    2.50e-04      N
                     3   0.2367681354   3.36e-08    5.16e-05      N
Iter=13   L=6     Root    EOM Energy     Delta E   Res. Norm    Conv?
                     1   0.1229317523   1.92e-15    2.62e-05      N
                     2   0.1929389960   2.61e-15    2.50e-04      N
                     3   0.2367681354   1.38e-14    5.16e-05      N
Iter=14   L=9     Root    EOM Energy     Delta E   Res. Norm    Conv?
                     1   0.1229317893   3.69e-08    8.54e-06      N
                     2   0.1929389362  -5.99e-08    9.41e-05      N
                     3   0.2367681476   1.21e-08    2.19e-05      N
Iter=15   L=12    Root    EOM Energy     Delta E   Res. Norm    Conv?
                     1   0.1229317846  -4.66e-09    3.04e-06      N
                     2   0.1929390521   1.16e-07    3.76e-05      N
                     3   0.2367681427  -4.85e-09    9.56e-06      N
Iter=16   L=15    Root    EOM Energy     Delta E   Res. Norm    Conv?
                     1   0.1229317782  -6.45e-09    1.20e-06      N
                     2   0.1929390862   3.41e-08    1.65e-05      N
                     3   0.2367681449   2.19e-09    4.42e-06      N
Iter=17   L=18    Root    EOM Energy     Delta E   Res. Norm    Conv?
                     1   0.1229317764  -1.77e-09    4.52e-07      Y
                     2   0.1929390763  -9.89e-09    7.29e-06      N
                     3   0.2367681439  -1.05e-09    2.27e-06      N
Iter=18   L=20    Root    EOM Energy     Delta E   Res. Norm    Conv?
                     1   0.1229317762  -2.39e-10    1.66e-07      Y
                     2   0.1929390738  -2.49e-09    2.91e-06      N
                     3   0.2367681456   1.75e-09    1.00e-06      N
Iter=19   L=22    Root    EOM Energy     Delta E   Res. Norm    Conv?
                     1   0.1229317759  -2.19e-10    8.21e-08      Y
                     2   0.1929390712  -2.60e-09    1.16e-06      N
                     3   0.2367681482   2.62e-09    4.46e-07      Y
Iter=20   L=23    Root    EOM Energy     Delta E   Res. Norm    Conv?
                     1   0.1229317759  -1.15e-11    6.67e-08      Y
                     2   0.1929390684  -2.79e-09    5.11e-07      Y
                     3   0.2367681483   1.21e-10    2.57e-07      Y
Completed EOM_CCSD
Collapsing to only 3 vector(s).
Copying root 2 to CC3_MISC file.
Setting initial CC3 eigenvalue to    0.1929390684
Iter=1    L=3     Root    EOM Energy     Delta E   Res. Norm    Conv?
                     2   0.1644941574  -2.84e-02    1.94e-02      N
Iter=2    L=4     Root    EOM Energy     Delta E   Res. Norm    Conv?
                     2   0.1641383623  -3.56e-04    7.07e-03      N
Iter=3    L=5     Root    EOM Energy     Delta E   Res. Norm    Conv?
                     2   0.1640712666  -6.71e-05    3.68e-03      N
Iter=4    L=6     Root    EOM Energy     Delta E   Res. Norm    Conv?
                     2   0.1640534882  -1.78e-05    1.43e-03      N
Iter=5    L=7     Root    EOM Energy     Delta E   Res. Norm    Conv?
                     2   0.1640523382  -1.15e-06    4.66e-04      N
Iter=6    L=8     Root    EOM Energy     Delta E   Res. Norm    Conv?
                     2   0.1640531008   7.63e-07    1.79e-04      N
Iter=7    L=9     Root    EOM Energy     Delta E   Res. Norm    Conv?
                     2   0.1640534882   3.87e-07    6.79e-05      N
Iter=8    L=10    Root    EOM Energy     Delta E   Res. Norm    Conv?
                     2   0.1640536008   1.13e-07    2.79e-05      N
Collapsing to 4 vector(s).
Change in CC3 energy from last iterated value   -0.0288854676
Iter=9    L=4     Root    EOM Energy     Delta E   Res. Norm    Conv?
                     2   0.1643438502   2.90e-04    2.35e-04      N
Iter=10   L=5     Root    EOM Energy     Delta E   Res. Norm    Conv?
                     2   0.1643434958  -3.54e-07    8.57e-05      N
Iter=11   L=6     Root    EOM Energy     Delta E   Res. Norm    Conv?
                     2   0.1643436025   1.07e-07    4.78e-05      N
Iter=12   L=7     Root    EOM Energy     Delta E   Res. Norm    Conv?
                     2   0.1643436079   5.46e-09    1.94e-05      N
Iter=13   L=8     Root    EOM Energy     Delta E   Res. Norm    Conv?
                     2   0.1643435997  -8.26e-09    4.94e-06      N
Iter=14   L=9     Root    EOM Energy     Delta E   Res. Norm    Conv?
                     2   0.1643435897  -1.00e-08    4.86e-06      N
Iter=15   L=10    Root    EOM Energy     Delta E   Res. Norm    Conv?
                     2   0.1643435793  -1.03e-08    1.55e-06      N
Collapsing to 4 vector(s).
Change in CC3 energy from last iterated value    0.0002899785
Iter=16   L=4     Root    EOM Energy     Delta E   Res. Norm    Conv?
                     2   0.1643406360  -2.94e-06    2.88e-06      N
Iter=17   L=5     Root    EOM Energy     Delta E   Res. Norm    Conv?
                     2   0.1643406365   5.38e-10    1.31e-06      N
Iter=18   L=6     Root    EOM Energy     Delta E   Res. Norm    Conv?
                     2   0.1643406358  -7.24e-10    6.44e-07      Y
Forcing restart to make sure new sigma vectors give same eigenvalue.
Collapsing to only 2 vector(s).
Change in CC3 energy from last iterated value   -0.0000029435
Setting old CC3 eigenvalue to    0.1643406358
Iter=19   L=2     Root    EOM Energy     Delta E   Res. Norm    Conv?
                     2   0.1643406657   2.99e-08    6.53e-07      N
Iter=20   L=3     Root    EOM Energy     Delta E   Res. Norm    Conv?
                     2   0.1643406653  -3.82e-10    2.61e-07      Y
Forcing restart to make sure new sigma vectors give same eigenvalue.
Collapsing to only 2 vector(s).
Change in CC3 energy from last iterated value    0.0000000295
Setting old CC3 eigenvalue to    0.1643406653
Iter=21   L=2     Root    EOM Energy     Delta E   Res. Norm    Conv?
                     2   0.1643406650  -2.99e-10    2.61e-07      Y
Collapsing to only 2 vector(s).
Copying root 2 to start of EOM_Cxxx files.
Change in CC3 energy from last iterated value   -0.0000000003

Procedure converged for 1 root(s).
<R|R> =   1.0000000000000000
EOM CC3 R0 for root 0 =   0.00000000000

Final Energetic Summary for Converged Roots of Irrep A1
                     Excitation Energy              Total Energy
                (eV)     (cm^-1)     (au)             (au)
EOM State 1      4.472    36068.6   0.1643406650   -38.223605161936

Largest components of excited wave function #1:
 RIA (libdpd indices) : (cscf notation)
         0 >   2      :       1b1 >    6a1 :    0.0387771527
         0 >   1      :       1b1 >    5a1 :    0.0352304662
         0 >   0      :       1b1 >    4a1 :   -0.0249114843
         1 >   0      :       3a1 >    2b1 :   -0.0248414318
         0 >   6      :       1b1 >   10a1 :   -0.0238751324
 Ria (libdpd indices) : (cscf notation)
         1 >   0      :       3a1 >    1b1 :    0.4112602203
         1 >   1      :       3a1 >    2b1 :   -0.3090350941
         1 >   2      :       3a1 >    3b1 :    0.0755061910
         1 >   4      :       3a1 >    5b1 :   -0.0732296958
         1 >   3      :       3a1 >    4b1 :   -0.0540906917
 RIjAb (libdpd indices)     : (cscf notation)
        0   1 >   0   0     :    1b1    3a1 >    1b2    1b2 :   -0.6327724537
        0   1 >   0   1     :    1b1    3a1 >    1b2    2b2 :    0.3571740844
        0   1 >   1   0     :    1b1    3a1 >    2b2    1b2 :   -0.3076893821
        0   1 >   1   1     :    1b1    3a1 >    2b2    2b2 :    0.1478049587
        0   1 >   4   0     :    1b1    3a1 >    5b2    1b2 :    0.1159086920
 RIJAB (libdpd indices)     : (cscf notation)
        0   1 >   1   0     :    1b1    3a1 >    2b2    1b2 :    0.0303211262
        0   1 >   3   0     :    1b1    3a1 >    4b2    1b2 :    0.0207261112
        0   1 >   5   0     :    1b1    3a1 >    6b2    1b2 :    0.0188522258
        0   1 >   6   0     :    1b1    3a1 >    7b2    1b2 :    0.0159848867
        0   1 >   4   0     :    1b1    3a1 >    5b2    1b2 :   -0.0158185486
 Rijab (libdpd indices)     : (cscf notation)
        1   0 >   0   8     :    3a1    2a1 >    1b1   12a1 :    0.0099223987
        1   0 >   0   5     :    3a1    2a1 >    1b1    9a1 :   -0.0092987108
        1   0 >   0   1     :    3a1    2a1 >    1b2    2a2 :    0.0089193297
        1   0 >   0   7     :    3a1    2a1 >    1b1   11a1 :   -0.0084170331
        1   0 >   0   6     :    3a1    2a1 >    1b1   10a1 :    0.0082992987

	Total # of sigma evaluations: 84

*** tstop() called on lawn-143-215-105-45.lawn.gatech.edu at Fri Jan  6 11:10:11 2012
Module time:
	user time   =      23.78 seconds =       0.40 minutes
	system time =      12.60 seconds =       0.21 minutes
	total time  =         32 seconds =       0.53 minutes
Total time:
	user time   =      28.53 seconds =       0.48 minutes
	system time =      14.93 seconds =       0.25 minutes
	total time  =         39 seconds =       0.65 minutes

*** PSI4 exiting successfully. Buy a developer a beer!
