[Molden Format]
[Atoms] (AU)
O    1    8           0.0000000000         0.0000000000        -0.1086931105
H    2    1           0.0000000000         0.0000000000         1.7250385401
[GTO]
  1 0
 s    6  1.00
     7816.5400000000         0.0020310000
     1175.8200000000         0.0154360000
      273.1880000000         0.0737710000
       81.1696000000         0.2476060000
       27.1836000000         0.6118320000
        3.4136000000         0.2412050000
 s    1  1.00
        9.5322000000         1.0000000000
 s    1  1.00
        0.9398000000         1.0000000000
 s    1  1.00
        0.2846000000         1.0000000000
 p    4  1.00
       35.1832000000         0.0195800000
        7.9040000000         0.1241890000
        2.3051000000         0.3947270000
        0.7171000000         0.6273750000
 p    1  1.00
        0.2137000000         1.0000000000

  2 0
 s    3  1.00
       19.2406000000         0.0328280000
        2.8992000000         0.2312080000
        0.6534000000         0.8172380000
 s    1  1.00
        0.1776000000         1.0000000000

[MO]
 Sym= A
 Ene=        -2.0635785905e+01
 Spin= Alpha
 Occup=         1.0000000000e+00
  1         5.8058354994e-01
  2         4.6124354135e-01
  3         1.0895954995e-03
  4         1.2480801806e-03
  5         3.0204652620e-17
  6        -8.5070509077e-17
  7         1.4041659651e-03
  8        -1.1661741780e-16
  9        -1.6733933155e-16
 10        -4.7012649133e-04
 11        -5.6124449719e-05
 12         4.9589106838e-05
 Sym= A
 Ene=        -1.3925837642e+00
 Spin= Alpha
 Occup=         1.0000000000e+00
  1         1.3886908076e-01
  2         1.9292544577e-01
  3        -5.6245277359e-01
  4        -4.7557650273e-01
  5        -1.2041091652e-16
  6         5.2554862835e-17
  7        -1.1617964719e-01
  8        -3.2591956729e-16
  9        -1.2699467063e-16
 10        -3.0428543963e-02
 11        -1.4386698013e-01
 12         1.5057064634e-03
 Sym= A
 Ene=        -6.7350913577e-01
 Spin= Alpha
 Occup=         1.0000000000e+00
  1         4.1991999384e-02
  2         5.8179407353e-02
  3        -1.7188367225e-01
  4        -2.5608428796e-01
  5        -2.7995007357e-15
  6         5.7039666574e-15
  7         6.2339174156e-01
  8        -1.5159317563e-15
  9         2.8375669326e-15
 10         2.3283839966e-01
 11         2.8055849760e-01
 12         1.2367751152e-01
 Sym= A
 Ene=        -6.4773466919e-01
 Spin= Alpha
 Occup=         1.0000000000e+00
  1         4.4252299297e-16
  2         5.2041946003e-16
  3        -1.8702297510e-15
  4        -1.8888209272e-15
  5         4.1896828185e-01
  6        -6.6380545166e-01
  7         5.3731238643e-15
  8         1.8079694030e-01
  9        -2.8645126568e-01
 10         1.6193559332e-15
 11         2.3262959572e-15
 12         1.1183794904e-15
 Sym= A
 Ene=        -5.6106525317e-01
 Spin= Alpha
 Occup=         1.0000000000e+00
  1        -1.7724258281e-16
  2         1.1899553145e-16
  3         3.3668825876e-16
  4         1.3700206919e-16
  5         6.4343207390e-01
  6         4.0610939518e-01
  7        -7.1160296249e-16
  8         3.1248060398e-01
  9         1.9722565012e-01
 10         2.3240720407e-16
 11        -5.0240162212e-16
 12        -3.9411107246e-16
 Sym= A
 Ene=         2.2368137032e-01
 Spin= Alpha
 Occup=         0.0000000000e+00
  1         3.9186186314e-02
  2         5.3046445422e-02
  3        -1.0125369859e-01
  4        -9.5467608296e-01
  5         9.8574681541e-17
  6         3.3432627980e-16
  7        -3.3550928679e-01
  8         2.9056032806e-18
  9        -2.1191873005e-16
 10        -6.7991043244e-01
 11         7.5150805260e-02
 12         1.6962865672e+00
 Sym= A
 Ene=         7.8465579925e-01
 Spin= Alpha
 Occup=         0.0000000000e+00
  1        -1.6904142739e-16
  2         1.1697084986e-16
  3        -7.3746015546e-16
  4         6.1490275001e-16
  5         4.5539548091e-01
  6        -7.2152001950e-01
  7         3.1952408106e-16
  8        -5.9180396383e-01
  9         9.3764304966e-01
 10         5.6405050174e-16
 11        -2.0307156563e-15
 12         1.2652953658e-15
 Sym= A
 Ene=         8.3517109281e-01
 Spin= Alpha
 Occup=         0.0000000000e+00
  1         2.0919014750e-16
  2        -5.4773070706e-18
  3         4.0294927170e-16
  4        -2.5101597654e-15
  5         7.3974589047e-01
  6         4.6689894450e-01
  7         3.4258661425e-15
  8        -9.2929257413e-01
  9        -5.8653346721e-01
 10        -7.1998404989e-15
 11         3.1309164295e-15
 12         1.5675111934e-15
 Sym= A
 Ene=         8.8788127958e-01
 Spin= Alpha
 Occup=         0.0000000000e+00
  1         3.1823401892e-02
  2         4.8055476423e-02
  3        -2.0667092663e-01
  4        -2.4016090132e-01
  5        -3.5245521332e-15
  6        -2.6506042080e-15
  7         7.9537248196e-01
  8         4.3377476516e-15
  9         3.3738176283e-15
 10        -1.4550829612e+00
 11         3.0512342663e-01
 12         5.2068602659e-01
 Sym= A
 Ene=         1.1221860585e+00
 Spin= Alpha
 Occup=         0.0000000000e+00
  1         9.7083508186e-03
  2         1.1012529198e-02
  3         2.5419938117e-02
  4        -6.0556560194e-02
  5        -4.1765244343e-16
  6        -1.7651549447e-15
  7        -4.8836375076e-01
  8         4.5356665036e-16
  9         2.3542416873e-15
 10        -7.0401836135e-02
 11         1.3916309240e+00
 12        -9.1172623522e-01
 Sym= A
 Ene=         1.4718659323e+00
 Spin= Alpha
 Occup=         0.0000000000e+00
  1         1.4348858854e-01
  2         2.4824434445e-01
  3        -1.8550096404e+00
  4         2.4649867659e+00
  5         6.4101888937e-16
  6         5.3588198866e-16
  7        -1.9065492515e-01
  8        -8.6840934801e-16
  9        -1.3059937304e-15
 10         8.3865084163e-01
 11        -9.1228266270e-02
 12        -1.1839489892e+00
 Sym= A
 Ene=         4.3203537783e+01
 Spin= Alpha
 Occup=         0.0000000000e+00
  1         1.7312503372e+00
  2        -1.8732360969e+00
  3         3.6663479117e-01
  4        -2.8742151766e-01
  5         7.8625304022e-17
  6         2.6734646553e-16
  7         1.1490592751e-02
  8        -1.8466591351e-16
  9         2.9293177033e-16
 10        -6.8949558342e-02
 11        -2.4323948520e-03
 12         1.1657736643e-01
 Sym= A
 Ene=        -2.0594556522e+01
 Spin= Beta
 Occup=         1.0000000000e+00
  1         5.8156858471e-01
  2         4.6136488798e-01
  3        -1.8676204055e-03
  4         1.9223890804e-03
  5         4.4719197743e-18
  6        -1.3615221113e-16
  7         1.3208121883e-03
  8        -7.3223215089e-17
  9        -1.5253330908e-16
 10        -3.7586999843e-04
 11         1.7169568161e-04
 12        -2.9629402613e-04
 Sym= A
 Ene=        -1.2352123606e+00
 Spin= Beta
 Occup=         1.0000000000e+00
  1         1.3108163085e-01
  2         1.8190570013e-01
  3        -5.1915797719e-01
  4        -4.5879166824e-01
  5        -2.6100035724e-16
  6        -1.3423483693e-16
  7        -1.3306790010e-01
  8        -3.6811736595e-16
  9        -7.8189337671e-16
 10        -2.1333375858e-02
 11        -1.9384077772e-01
 12        -3.1494400603e-02
 Sym= A
 Ene=        -6.2110918054e-01
 Spin= Beta
 Occup=         1.0000000000e+00
  1         4.9948590499e-02
  2         6.9086397112e-02
  3        -1.9712002945e-01
  4        -3.1349199355e-01
  5        -3.5776766814e-16
  6         4.2858255930e-16
  7         5.7951593682e-01
  8        -4.6308481668e-16
  9         6.2577145149e-16
 10         2.4230470335e-01
 11         2.8850240712e-01
 12         1.4690806759e-01
 Sym= A
 Ene=        -5.0583874307e-01
 Spin= Beta
 Occup=         1.0000000000e+00
  1         1.6852789815e-16
  2        -5.7074827631e-17
  3         1.1825488551e-16
  4        -5.0023114985e-16
  5         6.2276207717e-01
  6         3.9306329410e-01
  7        -9.5143440078e-17
  8         3.3801963175e-01
  9         2.1334489494e-01
 10         3.3285305581e-16
 11        -7.1561034572e-17
 12        -4.0329022716e-16
 Sym= A
 Ene=         1.0799504522e-01
 Spin= Beta
 Occup=         0.0000000000e+00
  1        -3.2029680798e-16
  2         3.7406256700e-16
  3        -1.1356097709e-16
  4        -2.4375927003e-15
  5         2.8748144606e-01
  6        -4.5548018648e-01
  7         4.9602311462e-16
  8         3.2717995793e-01
  9        -5.1837776069e-01
 10        -1.8954654969e-15
 11         1.8650669420e-16
 12         4.2254696464e-15
 Sym= A
 Ene=         2.3750631657e-01
 Spin= Beta
 Occup=         0.0000000000e+00
  1         4.0452880164e-02
  2         5.4355495423e-02
  3        -9.1207889138e-02
  4        -9.9816679817e-01
  5        -3.4276403893e-16
  6         1.3390853266e-15
  7        -3.4057993187e-01
  8        -8.4599764807e-16
  9         7.8707716373e-16
 10        -7.1352345853e-01
 11         5.1638512699e-02
 12         1.7227703851e+00
 Sym= A
 Ene=         8.5808704394e-01
 Spin= Beta
 Occup=         0.0000000000e+00
  1        -5.3581276330e-17
  2         4.2516610397e-17
  3         9.6651593720e-16
  4        -3.5281851885e-15
  5         7.5722929911e-01
  6         4.7793379464e-01
  7         4.2508436233e-15
  8        -9.2031056972e-01
  9        -5.8086437404e-01
 10        -8.0865294763e-15
 11         2.6733703180e-15
 12         2.5699192896e-15
 Sym= A
 Ene=         9.1061769784e-01
 Spin= Beta
 Occup=         0.0000000000e+00
  1         3.2594055902e-02
  2         4.8756004848e-02
  3        -1.9758861654e-01
  4        -2.6334764845e-01
  5        -1.1945853138e-14
  6         1.0431596945e-14
  7         7.8958011287e-01
  8         1.2723844376e-14
  9        -9.0290422384e-15
 10        -1.4513597055e+00
 11         3.7438429624e-01
 12         4.7324458885e-01
 Sym= A
 Ene=         9.7238311044e-01
 Spin= Beta
 Occup=         0.0000000000e+00
  1         1.1187388963e-15
  2         4.6174612123e-16
  3        -4.5831113447e-15
  4        -2.8111450427e-15
  5         5.4797252066e-01
  6        -8.6819733697e-01
  7         1.1583688275e-14
  8        -5.2523589020e-01
  9         8.3217384807e-01
 10        -2.1558703280e-14
 11         5.9942985479e-15
 12         6.7257151012e-15
 Sym= A
 Ene=         1.1280154884e+00
 Spin= Beta
 Occup=         0.0000000000e+00
  1         1.0657604270e-02
  2         1.2195967207e-02
  3         2.4689672163e-02
  4        -6.3215270306e-02
  5        -5.3062399062e-16
  6        -4.3384361617e-16
  7        -5.4176060674e-01
  8         5.3796853295e-16
  9         3.2902263898e-16
 10        -1.4780760345e-02
 11         1.3679914777e+00
 12        -9.1993389793e-01
 Sym= A
 Ene=         1.5219564298e+00
 Spin= Beta
 Occup=         0.0000000000e+00
  1         1.4561194543e-01
  2         2.5219491662e-01
  3        -1.8666560164e+00
  4         2.4418107810e+00
  5         8.9129658654e-16
  6         1.1874320477e-15
  7        -1.8885476659e-01
  8        -1.0970182108e-15
  9        -2.0291078716e-15
 10         8.1734068421e-01
 11        -8.9883862537e-02
 12        -1.1558839611e+00
 Sym= A
 Ene=         4.3228969758e+01
 Spin= Beta
 Occup=         0.0000000000e+00
  1         1.7310892369e+00
  2        -1.8733475586e+00
  3         3.6637725893e-01
  4        -2.8701859158e-01
  5         7.4352921454e-17
  6         4.2050556207e-16
  7         1.1473677873e-02
  8        -2.1773216690e-16
  9        -2.0443665514e-16
 10        -6.8835623270e-02
 11        -2.4551712514e-03
 12         1.1641459548e-01
