    -----------------------------------------------------------------------
          PSI4: An Open-Source Ab Initio Electronic Structure Package
                              PSI 4.0.0-beta4+ Driver

               Git: Rev {master} 5939c37112634ce7d587241dbb279ff58d6f273a

    J. M. Turney, A. C. Simmonett, R. M. Parrish, E. G. Hohenstein,
    F. A. Evangelista, J. T. Fermann, B. J. Mintz, L. A. Burns, J. J. Wilke,
    M. L. Abrams, N. J. Russ, M. L. Leininger, C. L. Janssen, E. T. Seidl,
    W. D. Allen, H. F. Schaefer, R. A. King, E. F. Valeev, C. D. Sherrill,
    and T. D. Crawford, WIREs Comput. Mol. Sci., (2011) (doi: 10.1002/wcms.93)

                         Additional Contributions by
    A. E. DePrince, M. Saitow, U. Bozkaya, A. Yu. Sokolov
    -----------------------------------------------------------------------

    Process ID:   9088
    PSI4DATADIR: /theoryfs2/ds/loriab/chem/psi4_trials/c4/psi4/lib

    Using LocalCommunicator (Number of processes = 1)

    Memory level set to 256.000 MB

  ==> Input File <==

--------------------------------------------------------------------------
print '        <<< Literal ZMAT to Cfour >>>'

cfour {
Geometry optimization of H2O at CCSD(T) level
O
H 1 R*
H 1 R* 2 A*

R=0.958
A=104.5

*ACES2(CALC=CCSD(T),BASIS=dzp
ABCDTYPE=AOBASIS,CC_PROG=ECC
GEO_CONV=10
CC_CONV=12
LINEQ_CONV=12
SCF_CONV=12)
}

energy('cfour')

compare_values(9.132052626900, get_variable('NUCLEAR REPULSION ENERGY'), 6, 'NRE')
compare_values(-76.013878694840, get_variable('current reference energy'), 6, 'SCF')
compare_values(-0.217565923762, get_variable('mp2 correlation energy'), 6, 'MP2 corl')
compare_values(-0.227372475715, get_variable("CCSD CORRELATION ENERGY"), 6, 'CCSD corl')
compare_values(-76.241251170555, get_variable("CCSD TOTAL ENERGY"), 6, 'CCSD')
compare_values(-0.003103546371, get_variable('(T) CORRECTION ENERGY'), 6, '(T)')
compare_values(-0.230476022086, get_variable('current correlation energy'), 6, 'CCSD(T) corl')
compare_values(-76.244354716926, get_variable('current energy'), 6, 'CCSD(T)')

clean()
clean_variables()
cfour {}  # clear literal block since running sequentially

print '        <<< Translation of ZMAT to Psi4 format to Cfour >>>'

memory 200 mb

molecule {
O
H 1 R
H 1 R 2 A

R=0.958
A=104.5
}

set {
cfour_CALC_level=CCSD(T)
cfour_BASIS=dzp
cfour_ABCDTYPE=AOBASIS
cfour_CC_PROGram=ECC
cfour_CC_CONV=12
cfour_LINEQ_CONV=12
cfour_SCF_CONV=12
rms_force_g_convergence 6
}

optimize('cfour')

compare_values(9.132052626900, get_variable('NUCLEAR REPULSION ENERGY'), 3, 'NRE')
compare_values(-76.013878694840, get_variable('current reference energy'), 6, 'SCF')
compare_values(-0.217565923762, get_variable('mp2 correlation energy'), 6, 'MP2 corl')
compare_values(-0.227372475715, get_variable("CCSD CORRELATION ENERGY"), 6, 'CCSD corl')
compare_values(-76.241251170555, get_variable("CCSD TOTAL ENERGY"), 6, 'CCSD')
compare_values(-0.003103546371, get_variable('(T) CORRECTION ENERGY'), 6, '(T)')
compare_values(-0.230476022086, get_variable('current correlation energy'), 6, 'CCSD(T) corl')
compare_values(-76.244354716926, get_variable('current energy'), 6, 'CCSD(T)')

--------------------------------------------------------------------------

  GENBAS loaded from /theoryfs2/ds/loriab/bin/GENBAS
  CFOUR to be run from /scratch/loriab//psi.9088..cfour.47799

====== Begin ZMAT input for CFOUR ======

Geometry optimization of H2O at CCSD(T) level
O
H 1 R*
H 1 R* 2 A*

R=0.958
A=104.5

*ACES2(CALC=CCSD(T),BASIS=dzp
ABCDTYPE=AOBASIS,CC_PROG=ECC
GEO_CONV=10
CC_CONV=12
LINEQ_CONV=12
SCF_CONV=12)

======= End ZMAT input for CFOUR =======

 --invoking executable xjoda


   *************************************************************************
         <<<     CCCCCC     CCCCCC   |||     CCCCCC     CCCCCC   >>>
       <<<      CCC        CCC       |||    CCC        CCC         >>>
      <<<      CCC        CCC        |||   CCC        CCC            >>>
    <<<        CCC        CCC        |||   CCC        CCC              >>>
      <<<      CCC        CCC        |||   CCC        CCC            >>>
       <<<      CCC        CCC       |||    CCC        CCC         >>>
         <<<     CCCCCC     CCCCCC   |||     CCCCCC     CCCCCC   >>>
   *************************************************************************

     ****************************************************************
     * CFOUR Coupled-Cluster techniques for Computational Chemistry *
     ****************************************************************
 

   Department of Chemistry                Institut fuer Physikalische Chemie
   University of Texas at Austin          Universitaet Mainz
   Austin, TX  48792, USA                 D-55099 Mainz, Germany
 
                       version 1.2
 
                     john2                                             
                     Fri Aug  2 17:46:14 EDT 2013                      
                     integer*8 version is running
 
    -------------------------------------------------------------------
                    Input from ZMAT file
    -------------------------------------------------------------------
 
                                                                                
 Geometry optimization of H2O at CCSD(T) level                                  
 O                                                                              
 H 1 R*                                                                         
 H 1 R* 2 A*                                                                    
                                                                                
 R=0.958                                                                        
 A=104.5                                                                        
                                                                                
 *ACES2(CALC=CCSD(T),BASIS=dzp                                                  
 ABCDTYPE=AOBASIS,CC_PROG=ECC                                                   
 GEO_CONV=10                                                                    
 CC_CONV=12                                                                     
 LINEQ_CONV=12                                                                  
 SCF_CONV=12)                                                                   
                                                                                
 
    -------------------------------------------------------------------
                    CFOUR Control Parameters 
    -------------------------------------------------------------------
        External           Internal           Value            Units
          Name               Name
    -------------------------------------------------------------------
       PRINT                IPRNT               0               ***   
       CALCLEVEL            ICLLVL           CCSD(T)    [ 22]   ***   
       DERIV_LEV            IDRLVL            FIRST     [  1]   ***   
       CC_CONV              ICCCNV          10D- 12             ***   
       SCF_CONV             ISCFCV          10D- 12             ***   
       XFORM_TOL            IXFTOL          10D- 11             ***   
       CC_MAXCYC            ICCCYC             50              cycles 
       LINDEP_TOL           ILINDP              8               ***   
       RDO                  IRDOFM              ON      [  1]   ***   
  
       SCF_EXTRAPO          IRPP                ON      [  1]   ***   
       REFERENCE            IREFNC             RHF      [  0]   ***   
       CC_EXPORDER          ICCEOR              5               ***   
       TAMP_SUM             IEVERY              5               ***   
       NTOP_TAMP            ITOPT2             15               ***   
       CCORBOPT             ICCORB             OFF      [  0] x 0.01  
       SCF_MAXCYC           ISCFCY            150              cycles 
       OCCUPATION           IOCCU   ESTIMATED BY SCF 
       PROPS                IPROPS             OFF      [  0]   ***   
       RELAX_DENS           IRDENS              ON      [  1]   ***   
  
       SCF_EXPORDE          IRPPOR              6               ***   
       CC_EXTRAPOL          ICCEXT             DIIS     [  1]   ***   
       BRUECKNER            IBRKNR             OFF      [  0]   ***   
       XFIELD               IXEFLD              0             x 10-6  
       YFIELD               IYEFLD              0             x 10-6  
       ZFIELD               IZEFLD              0             x 10-6  
       SAVE_INTS            ISVINT             OFF      [  0]   ***   
       DROPMO               IDRPMO      NONE         
       CHARGE               ICHRGE              0               ***   
       MULTIPLICTY          IMULTP              1               ***   
  
       CPHF_CONVER          ICPHFT          10D- 16             ***   
       CPHF_MAXCYC          ICPHFC             64              cycles 
       INCORE               INCORE             OFF      [  0]   ***   
       MEMORY_SIZE          IMEMSZ         100000000           words  
       FILE_RECSIZ          IFLREC              4096           words  
       NON-HF               INONHF             OFF      [  0]   ***   
       ORBITALS             IORBTP           STANDARD   [  0]   ***   
  
       SCF_EXPSTAR          IRPPLS              8               ***   
       LOCK_ORBOCC          ILOCOC             OFF      [  0]   ***   
       HBAR                 IHBAR              OFF      [  0]   ***   
       CACHE_RECS           ICHREC             10               ***   
       GUESS                IGUESS            MOREAD    [  0]   ***   
       JODA_PRINT           IJPRNT              0               ***   
       GEO_METHOD           INR                NR       [  0]   ***   
       GEO_CONV             ICONTL             10              H/bohr 
       EIGENVECTOR          IVEC                1               ***   
  
       NEGEVAL              IDIE             ABORT      [  0]   ***   
       CURVILINEAR          ICURVY            OFF       [  0]   ***   
       SCALE_ON             ISTCRT              0               ***   
       GEO_MAXSTEP          IMXSTP            300            millibohr
       VIBRATION            IVIB              NO        [  0]   ***   
       EVAL_HESS            IRECAL              0            # of cyc.
       INTEGRALS            INTTYP             VMOL     [  1]   ***   
       FD_STEPSIZE          IDISFD              0            10-4 bohr
       POINTS               IGRDFD              0               ***   
       CONTRACTION          ICNTYP          GENERAL     [  1]   ***   
  
       SYMMETRY             ISYM             ON         [  0]   ***   
       BASIS                IBASIS         dzp          [ 29]   ***   
       SPHERICAL            IDFGHI             ON       [  1]   ***   
       RESET_FLAGS          IRESET             OFF      [  0]   ***   
       PERT_ORB             IPTORB         CANONICAL    [  1]   ***   
       GENBAS_1             IGNBS1              0               ***   
       GENBAS_2             IGNBS2              0               ***   
       GENBAS_3             IGNBS3              0               ***   
       COORDINATES          ICOORD         INTERNAL     [  0]   ***   
       SYM_CHECK            ISYMCK         OVERRIDE     [  1]   ***   
  
       SCF_PRINT            ISCFPR              0               ***   
       ECP                  IECP           OFF          [  0]   ***   
       RESTART_CC           ICCRES         OFF          [  0]   ***   
       TRANS_INV            ITRAIN         USE          [  0]   ***   
       HFSTABILITY          ISTABL         OFF          [  0]   ***   
       ROT_EVEC             ROTVEC              0               ***   
       BRUCK_CONV           IBRTOL          10D-  4             ***   
       UNITS                IUNITS         ANGSTROM     [  0]   ***   
       FD_USEGROUP          IFDGRP         FULL         [  0]   ***   
  
       FD_PROJECT           IFDPRJ         ON           [  0]   ***   
       FD_CALTYPE           IFDCAL         GRADONLY     [  0]   ***   
       VTRAN                IVTRAN         PARTIAL      [  2]   ***   
       HF2_FILE             IHF2Fl         USE          [  1]   ***   
       SUBGROUP             ISUBGP         DEFAULT      [  0]   ***   
       SUBGRPAXIS           ISBXYZ         X            [  0]   ***   
       EXCITE               IEXCIT         NONE         [  0]   ***   
       LINEQ_CONV           IZTACN          10D- 12           cycles  
  
       TREAT_PERT           ITREAT         SIMULTANEOUS [  0]   ***   
       ESTATE_PROP          IEXPRP         OFF          [  0]   ***   
       GEO_MAXCYC           IOPTCY             50               ***   
       ABCDTYPE             IABCDT         AOBASIS      [  2]   ***   
       AO_LADDERS           IAOLAD         SINGLEPASS   [  1]   ***   
       FOCK                 IFOCK          AO           [  1]   ***   
       ESTATE_MAXC          IEXMXC             20               ***   
       ESTATE_CONV          IEXTOL          10D-  5             ***   
       DIRECT               IDIRCT         OFF          [  0]   ***   
  
       GAMMA_ABCD           IGABCD         DIRECT       [  1]   ***   
       LINEQ_TYPE           ILTYPE         DIIS         [  1]   ***   
       LINEQ_MAXCY          ILMAXC             50               ***   
       TRANGRAD             IRESRM         OFF          [  0]   ***   
       PSI                  IPSI           OFF          [  0]   ***   
       GAMMA_ABCI           IGABCI         STORE        [  0]   ***   
       ESTATE_DIAG          IEXDIG         ITERATIVE    [  0]   ***   
       FC_FIELD             IFINFC              0             x 10-6  
       SD_FIELD             IFINSD              0             x 10-6  
       DIFF_TYPE            IDIFTY         RELAXED      [  0]   ***   
  
       LINEQ_EXPOR          ILMAXD              5               ***   
       FINITE_PERT          IFIPER              0             x 10-6  
       ANHARMONIC           IANHAR         OFF          [  0]   ***   
       CC_PROGRAM           ICCPRO         ECC          [  1]   ***   
       OPEN-SHELL           IOPEN          SPIN-ORBITAL [  0]   ***   
       UIJ_THRESHO          IUIJTH             25               ***   
       SCF_DAMPING          IDAMP               0             x 10-3  
       PROP_INTEGR          IINTYP         INTERNAL     [  0]   ***   
       ANH_SYMMETR          IANHSM         ABELIAN      [  0]   ***   
       ANH_ALGORIT          IANALG         STANDARD     [  0]   ***   
  
       EOM_NONIT            EOMNON         OFF          [  0]   ***   
       VIB_ALGORIT          IGEALG         STANDARD     [  0]   ***   
       ANH_DERIVAT          IANDER         SECOND       [  1]   ***   
       SPINROTATIO          ISRCON         OFF          [  0]   ***   
       CIS_CONV             ICISTL              5               ***   
       ANH_STEPSIZ          ICUBST             50000          x 10-6  
       SPIN_FLIP            ISPFLP         OFF          [  0]   ***   
       GRID                 IGRID          OFF          [  0]   ***   
  
       DBOC                 IDBOC          OFF          [  0]   ***   
       EOMFOLLOW            IEOMSR         ENERGY       [  0]   ***   
       T3_EXTRAPOL          IT3EXT         OFF          [  0]   ***   
       ESTATE_LOCK          IESLOC         OFF          [  0]   ***   
       UNOS                 IUNOS          OFF          [  0]   ***   
       FREQ_ALGORI          IVIALG         STANDARD     [  0]   ***   
       RELATIVIST           IRELAT         OFF          [  0]   ***   
       FROZEN_CORE          IFROCO         OFF          [  0]   ***   
       EXCITATION           IEXCIT              0               ***   
       INPUT_MRCC           IMRCC          ON           [  1]   ***   
  
       GIAO                 IGIAO          OFF          [  1]   ***   
       EOM_NSING            IEOMSI          10D-  0             ***   
       EOM_NTRIP            IEOMTR          10D-  0             ***   
       EOM_NSTATES          IMRCCD         DAVIDSON     [  0]   ***   
       DIAG_MRCC            IEOMST          10D-  0             ***   
       NEWNORM              INEWNO         OFF          [  0]   ***   
       TESTSUITE            ITESTS         OFF          [  0]   ***   
       BUFFERSIZE           IBUFFS            600               ***   
       SPINORBIT            ISOCAL         OFF          [  0]   ***   
       DCT                  IDCT           OFF          [  0]   ***   
  
       PARALLEL             IPARAL         ON           [  1]   ***   
       PARA_PRINT           IPPRIN              0               ***   
       COMM_SIZE            IPSIZE            ***               ***   
       PARA_INT             IPINTS         ON           [  1]   ***   
       RAMAN_INT            IRAMIN         OFF          [  0]   ***   
       RAMAN_ORB            IRAMRE         UNRELAXED    [  0]   ***   
       BREIT                IBREIT         OFF          [  0]   ***   
       MEM_UNIT             IMEMU          INTEGERWORDS [  0]   ***   
       SPIN_ORBIT           ISPORB         OFF          [  0]   ***   
       GENBAS_4             IGNBS4              0               ***   
  
       SPIN_SCAL            ISCSMP         OFF          [  0]   ***   
       GRID_ALGO            IGALGO         SERIAL       [  0]   ***   
       VIBPHASE             ISETPH         STANDARD     [  0]   ***   
       SEQUENCE             ISEQUE         OFF          [  0]   ***   
       HESS_TYPE            IHESTP         SCF          [  0]   ***   
       CONTINUUM            ICONTU         NONE         [  0]   ***   
       SCF_NOSTOP           ISCFST         OFF          [  0]   ***   
       CONSTANT             ICONST         OLD          [  1]   ***   
  
       EOM_MRCC             IMRCCE         OLD          [  0]   ***   
       EOM_ORDER            IEXORD         ENERGY       [  0]   ***   
       GIMIC                IGIMIC         OFF          [  0]   ***   
    -------------------------------------------------------------------
   3 entries found in Z-matrix 
   Job Title : Geometry optimization of H2O at CCSD(T) level                                   
   There are  2 unique internal coordinates.
   Of these,  2 will be optimized.
   User supplied Z-matrix: 
--------------------------------------------------------------------------------
       SYMBOL    BOND      LENGTH    ANGLE     ANGLE     DIHED     ANGLE
                  TO      (ANGST)    WRT      (DEG)      WRT      (DEG)
--------------------------------------------------------------------------------
        O    
        H          1         R    
        H          1         R          2        A    
                  *Initial values for internal coordinates* 
                      Name             Value
                        R               0.9580000000
                        A             104.5000000000
--------------------------------------------------------------------------------
  1  O          8    15.99491
  2  H          1     1.00783
  3  H          1     1.00783
   Rotational constants (in cm-1): 
          9.5117577156            14.5760005103            27.3769230540
   Rotational constants (in MHz): 
     285155.3624957671        436977.5632982104        820739.6204653939
********************************************************************************
   The full molecular point group is C2v .
   The largest Abelian subgroup of the full molecular point group is C2v .
   The computational point group is C2v .
********************************************************************************
--------------------------------------------------------------------------------
   Analysis of internal coordinates specified by Z-matrix 
--------------------------------------------------------------------------------
   *The nuclear repulsion energy is    9.18733 a.u.
   *There are   2 degrees of freedom within the tot. symm. molecular subspace.
   *Z-matrix requests optimization of   2 coordinates.
   *The optimization is unconstrained and your Z-matrix is great.
--------------------------------------------------------------------------------
 ----------------------------------------------------------------
 Z-matrix   Atomic            Coordinates (in bohr)
  Symbol    Number           X              Y              Z
 ----------------------------------------------------------------
     O         8         0.00000000     0.00000000     0.12403889
     H         1         0.00000000    -1.43143120    -0.98429357
     H         1         0.00000000     1.43143120    -0.98429357
 ----------------------------------------------------------------
   Interatomic distance matrix (Angstroms) 
 
                 O             H             H    
                [ 1]        [ 2]        [ 3]
  O    [ 1]     0.00000
  H    [ 2]     0.95800     0.00000
  H    [ 3]     0.95800     1.51496     0.00000
   Rotational constants (in cm-1): 
          9.5117577156            27.3769230540            14.5760005103
   Rotational constants (in MHz): 
     285155.3624957672        820739.6204653946        436977.5632982106
  There are   25 basis functions.
                0.12 seconds walltime passed
 --executable xjoda finished with status            0
  flag is                      0
 --invoking executable xvmol
 Serial version of molecule started
 
    -------------------------------------------------------------------
                    Input from MOL file
    -------------------------------------------------------------------
 INTGRL        1    0    1    0    0    0    0    0    0                        
          *** CFOUR Program System (Release V0.1) ***                           
 Geometry optimization of H2O at CCSD(T) level                                  
     2    2 X  Y       0.10E-08              0    0                             
    9999.00      3.00                                                           
           8.00000000    1    3    3    2    1                                  
 O #1      0.000000000000      0.000000000000      0.124038886472               
     5    1                                                                     
    6773.37470000000       1.726600000000000E-003                               
    1016.79700000000       1.324650000000000E-002                               
    231.267380000000       6.602619999999999E-002                               
    65.0084540000000       0.235283600000000                                    
    20.4998080000000       0.549762400000000                                    
     2    2                                                                     
    6.71606640000000        1.00000000000000       0.000000000000000E+000       
    1.14715720000000       0.000000000000000E+000   1.00000000000000            
     1    1                                                                     
   0.334232500000000        1.00000000000000                                    
     3    1                                                                     
    17.6942640000000       4.359020000000000E-002                               
    3.85360270000000       0.231780900000000                                    
    1.04674650000000       0.514559700000000                                    
     1    1                                                                     
   0.275860400000000        1.00000000000000                                    
     1    1                                                                     
    1.20000000000000        1.00000000000000                                    
           1.00000000    1    2    1    1                                       
 H #2      0.000000000000     -1.431431200720     -0.984293568339               
     4    2                                                                     
    13.0107010000000       1.968220000000000E-002  0.000000000000000E+000       
    1.96225720000000       0.137965200000000       0.000000000000000E+000       
   0.444538000000000       0.478319300000000       0.000000000000000E+000       
   0.121949600000000       0.000000000000000E+000   1.00000000000000            
     1    1                                                                     
   0.800000000000000        1.00000000000000                                    
 FINISH                                                                         
 
    -------------------------------------------------------------------
 
 One- and two-electron integrals over symmetry-adapted AOs are calculated.

  Spherical harmonics are used.
  
  Integrals less than  0.10E-13 are neglected.

   Basis function not normalized: 
   Center (as ordered in MOL file):   1
   Angular Momentum type          : s
   Offset within angular momentum :  1
   <chi|chi>                      :    1.2653122098
   Basis function not normalized: 
   Center (as ordered in MOL file):   1
   Angular Momentum type          : p
   Offset within angular momentum :  1
   <chi|chi>                      :    1.4399227038
   Basis function not normalized: 
   Center (as ordered in MOL file):   2
   Angular Momentum type          : s
   Offset within angular momentum :  1
   <chi|chi>                      :    1.7013118403
  Nuclear repulsion energy :    9.1873316533 a.u.
  required memory for a1 array                3001252  words 
  required memory for a2 array                2004428  words 
 basis number:   8    16
 basis number:   1     5
  @MOLECU-I, One electron integrals required         0.00000 seconds.
  @TWOEL-I,       3047 integrals of symmetry type  I I I I
  @TWOEL-I,       5200 integrals of symmetry type  I J I J
  @TWOEL-I,       3309 integrals of symmetry type  I I J J
  @TWOEL-I,       1891 integrals of symmetry type  I J K L
  @TWOEL-I, Total number of 2-e integrals      13447.
  @MOLECU-I, Two electron integrals required         0.03000 seconds.
  @CHECKOUT-I, Total execution time :       0.0300 seconds.
                0.00 seconds walltime passed
 --executable xvmol finished with status            0
 --invoking executable xvmol2ja
  @CHECKOUT-I, Total execution time :       0.0000 seconds.
                0.00 seconds walltime passed
 --executable xvmol2ja finished with status            0
 --invoking executable xvscf
 NSOSCF                     0
  There are   25 functions in the AO basis.

  There are 4 irreducible representations.

       Irrep        # of functions
         1                 12
         2                  4
         3                  7
         4                  2


  Parameters for SCF calculation: 
        SCF reference function:  RHF  
  Maximum number of iterations:  150
     Full symmetry point group: C2v 
     Computational point group: C2v 
        Initial density matrix: MOREAD                 
     SCF convergence tolerance: 10**(-12)
  DIIS convergence acceleration:  ON
          Latest start for DIIS:   8
                     DIIS order:   6

  Memory information:      63965 words required.
  Fock matrices are constructed from AO integral file.
  Initialization and symmetry analysis required      0.000 seconds.

  @INITGES-I, Occupancies from core Hamiltonian:

          Alpha population by irrep:   3    1    1    0
           Beta population by irrep:   3    1    1    0


 total no. of electrons in initial guess :  0.000000000000000E+000
  --------------------------------------------------------------------
  Iteration         Total Energy            Largest Density Difference
  --------------------------------------------------------------------
       0             9.187331653304790              0.0000000000D+00
   current occupation vector 
     3  1  1  0
     3  1  1  0
       1           -67.941088488721746              0.2682163804D+01
   current occupation vector 
     3  1  1  0
     3  1  1  0
       2           -69.764127563515189              0.5466860557D+01
   current occupation vector 
     3  0  2  0
     3  0  2  0
       3           -73.184337561223984              0.5462014337D+01
   current occupation vector 
     3  1  1  0
     3  1  1  0
       4           -73.394699362163578              0.3036997856D+01
   current occupation vector 
     4  0  1  0
     4  0  1  0
       5           -74.653011001580680              0.2924516782D+01
   current occupation vector 
     3  1  1  0
     3  1  1  0
       6           -75.503077859611224              0.1085232715D+01
   current occupation vector 
     3  1  1  0
     3  1  1  0
       7           -75.834313243686594              0.5882062242D+00
   current occupation vector 
     3  1  1  0
     3  1  1  0
       8           -75.952263750591655              0.3703806979D+00
   current occupation vector 
     3  1  1  0
     3  1  1  0
       9           -76.014354341006808              0.1353207779D+00
   current occupation vector 
     3  1  1  0
     3  1  1  0
      10           -76.014363725773592              0.2065784007D-02
   current occupation vector 
     3  1  1  0
     3  1  1  0
      11           -76.014364990532371              0.8649490375D-03
   current occupation vector 
     3  1  1  0
     3  1  1  0
      12           -76.014365018211436              0.1310487039D-03
   current occupation vector 
     3  1  1  0
     3  1  1  0
      13           -76.014365018522980              0.1636789698D-04
   current occupation vector 
     3  1  1  0
     3  1  1  0
      14           -76.014365018531478              0.2760415300D-05
   current occupation vector 
     3  1  1  0
     3  1  1  0
      15           -76.014365018532075              0.4487247567D-06
   current occupation vector 
     3  1  1  0
     3  1  1  0
      16           -76.014365018531862              0.9326218775D-07
   current occupation vector 
     3  1  1  0
     3  1  1  0
      17           -76.014365018531848              0.2571833491D-07
   current occupation vector 
     3  1  1  0
     3  1  1  0
      18           -76.014365018532033              0.2414059952D-08
   current occupation vector 
     3  1  1  0
     3  1  1  0
      19           -76.014365018531819              0.9273027901D-09
   current occupation vector 
     3  1  1  0
     3  1  1  0
      20           -76.014365018531961              0.9544504076D-10
   current occupation vector 
     3  1  1  0
     3  1  1  0
      21           -76.014365018531848              0.2696376455D-10
   current occupation vector 
     3  1  1  0
     3  1  1  0
      22           -76.014365018531905              0.7895573084D-11
   current occupation vector 
     3  1  1  0
     3  1  1  0
      23           -76.014365018531976              0.1604272271D-11
   current occupation vector 
     3  1  1  0
     3  1  1  0

  SCF has converged.

 save density matrix on hard disk
 total electron number:   9.99999999999998     
     E(SCF)=       -76.014365018531805              0.1959543638D-12

  Eigenvector printing suppressed.

 @PUTMOS-I, Writing converged MOs to NEWMOS. 
 @PUTMOS-I, Symmetry   1 Full   3 Partial   0
 @PUTMOS-I, Symmetry   2 Full   1 Partial   0
 @PUTMOS-I, Symmetry   3 Full   1 Partial   3
 @PUTMOS-I, Symmetry   4 Full   0 Partial   2


 
  ORBITAL EIGENVALUES (ALPHA)  (1H = 27.2113838 eV)

       MO #        E(hartree)               E(eV)           FULLSYM    COMPSYM
       ----   --------------------   --------------------   -------   ---------
    1     1         -20.5513895280        -559.2317484718      A1        A1 (1)
    2     2          -1.3329297623         -36.2708633669      A1        A1 (1)
    3    17          -0.6989431876         -19.0192113458      B2        B2 (3)
    4     3          -0.5661341149         -15.4052926939      A1        A1 (1)
    5    13          -0.4932061880         -13.4208228850      B1        B1 (2)
  +++++++++++++++++++++++++++++++++++++++++++++++++++++++++++++++++++++++++++++
    6     4           0.1924113543           5.2357792119      A1        A1 (1)
    7    18           0.2566298204           6.9832525419      B2        B2 (3)
    8    19           0.7960043840          21.6603808151      B2        B2 (3)
    9     5           0.8729259078          23.7535219243      A1        A1 (1)
   10     6           1.1709577471          31.8633806920      A1        A1 (1)
   11    14           1.2030714722          32.7372395918      B1        B1 (2)
   12    20           1.2695391710          34.5459176559      B2        B2 (3)
   13     7           1.5696757581          42.7130495250      A1        A1 (1)
   14    24           1.5993497025          43.5205186171      A2        A2 (4)
   15    15           1.8104556080          49.2650024367      B1        B1 (2)
   16     8           2.0356873335          55.3938693672      A1        A1 (1)
   17    21           2.0611477186          56.0866816805      B2        B2 (3)
   18    22           2.5653691838          69.8072455003      B2        B2 (3)
   19     9           2.6182766592          71.2469311181      A1        A1 (1)
   20    16           3.3312180290          90.6470523740      B1        B1 (2)
   21    25           3.3892859479          92.2271608033      A2        A2 (4)
   22    10           3.5738196274          97.2485775829      A1        A1 (1)
   23    11           3.9603677065         107.7670857294      A1        A1 (1)
   24    23           4.2358606796         115.2636307594      B2        B2 (3)
   25    12          26.0976758209         710.1538735627      A1        A1 (1)


  VSCF finished.

  @CHECKOUT-I, Total execution time :       0.0000 seconds.
                0.12 seconds walltime passed
 --executable xvscf finished with status            0
 --invoking executable xvtran
  Partial RHF integral transformation
  Transformation of IIII integrals :
  1 pass through the AO integral file was required.
        3047 AO integrals were read.
        2255 MO integrals were written to HF2.
  Transformation of IIJJ integrals :
  1 pass through the AO integral file was required.
        3309 AO integrals were read.
        2035 MO integrals were written to HF2.
  Transformation of IJIJ integrals :
  1 pass through the AO integral file was required.
        5200 AO integrals were read.
        3289 MO integrals were written to HF2.
  Transformation of IJKL integrals :
  1 pass through the AO integral file was required.
        1891 AO integrals were read.
        1044 MO integrals were written to HF2.
  Summary of active molecular orbitals: 
------------------------------------------------------------------------
 
  Index      Eigenvalue    Symmetry    Index      Eigenvalue    Symmetry
------------------------------------------------------------------------
     1       -20.5513895        1        14        26.0976758        1
     2        -1.3329298        1        15         1.2030715        2
     3        -0.5661341        1        16         1.8104556        2
     4        -0.4932062        2        17         3.3312180        2
     5        -0.6989432        3        18         0.2566298        3
     6         0.1924114        1        19         0.7960044        3
     7         0.8729259        1        20         1.2695392        3
     8         1.1709577        1        21         2.0611477        3
     9         1.5696758        1        22         2.5653692        3
    10         2.0356873        1        23         4.2358607        3
    11         2.6182767        1        24         1.5993497        4
    12         3.5738196        1        25         3.3892859        4
    13         3.9603677        1
------------------------------------------------------------------------
  @CHECKOUT-I, Total execution time :       0.0000 seconds.
                0.00 seconds walltime passed
 --executable xvtran finished with status            0
 --invoking executable xintprc
  @GMOIAA-I, Processing MO integrals for spin case AA.
  @GMOIAA-I, Generation of integral list completed.
                      TYPE                NUMBER
                      ----               --------
                      PPPP                     0
                      PPPH                  5760
                      PPHH                  1431
                      PHPH                   933
                      PHHH                   450
                      HHHH                    49

                     TOTAL                  8623

  @FORMT2-I, Second-order MP correlation energies:
              ----------------------------------------------
              E(SCF)                =  -76.014365018532 a.u.
              E2(AA)                =   -0.025977682345 a.u.
              E2(AB)                =   -0.165002359558 a.u.
              E2(TOT)               =   -0.216957724249 a.u.
              Total MP2 energy      =  -76.231322742781 a.u.
              ----------------------------------------------
   Largest T2 amplitudes for spin case AB:
       _       _                 _       _                 _       _
   i   j   a   b             i   j   a   b             i   j   a   b
-----------------------------------------------------------------------------
[  4   4  15  15]-0.04705 [  3   3   8   8]-0.03290 [  5   5  19  19]-0.03010
[  4   3  15   8]-0.02960 [  3   4   8  15]-0.02960 [  5   5  18  18]-0.02644
[  5   5   7   7]-0.02370 [  5   4  20  15]-0.02370 [  4   5  15  20]-0.02370
[  5   4  18  15]-0.02294 [  4   5  15  18]-0.02294 [  5   5  20  20]-0.02199
[  3   3  19  19]-0.02188 [  5   3  18   8]-0.01888 [  3   5   8  18]-0.01888
-----------------------------------------------------------------------------
   Norm of T2AB vector (     2762 symmetry allowed elements):  0.1935634882.
-----------------------------------------------------------------------------
  @CHECKOUT-I, Total execution time :       0.0000 seconds.
                0.00 seconds walltime passed
 --executable xintprc finished with status            0
 --invoking executable xecc
 CCSD(T) energy will be calculated.
 AO based algorithm is used. 
 Largest T2 amplitudes for spin case AB:
        _       _                 _       _                 _       _
    i   j   a   b             i   j   a   b             i   j   a   b
 -----------------------------------------------------------------------------
 [  4   4  15  15]-0.04705 [  3   3   8   8]-0.03290 [  5   5  19  19]-0.03010
 [  4   3  15   8]-0.02960 [  3   4   8  15]-0.02960 [  5   5  18  18]-0.02644
 [  5   5   7   7]-0.02370 [  5   4  20  15]-0.02370 [  4   5  15  20]-0.02370
 [  5   4  18  15]-0.02294 [  4   5  15  18]-0.02294 [  5   5  20  20]-0.02199
 [  3   3  19  19]-0.02188 [  5   3  18   8]-0.01888 [  3   5   8  18]-0.01888
 -----------------------------------------------------------------------------
 Norm of T2AB vector (     2762 symmetry allowed elements):  0.1935634882.
 -----------------------------------------------------------------------------
 The total correlation energy is -0.216957724249 a.u.
 Resorts of amplitudes and integrals required   0.0 seconds.
 Starting iterative solution of the CC equations.
 The DIIS procedure is used to accelerate convergence.
 5 expansion vectors are used in the DIIS extrapolation.
 Convergence criterium is 10**(-12).
 Maximum number of iterations is  50.
 Iteration Nr. 1
 Generation of Intermediates required        0.0 seconds.
 Transformation of t(ab,ij) amplitudes required    0.0 seconds.
 Contraction of t(mu nu,ij) with AO integrals required    0.0 seconds.
 Backtransformation of t(mu nu,ij) increments required    0.0 seconds.
 Construction of Hbar(ab,ij) and Hbar(a,i) required   0.0 seconds.
 Amplitude changes are:
 -------------------------------------------------------------------
              Spin      RMS          Max.      Max. change for
  Amplitude   Case     Change       Change       i    j    a    b
 -------------------------------------------------------------------
     T1        AA    0.0003409630 0.0058025302    5        22
     T2        AB    0.0000084056-0.0036595425    5    5   19   19
 -------------------------------------------------------------------
 The total correlation energy is -0.222309158439 a.u.
 Convergence information after     1 iterations: 
 Largest element of residual vector :  0.58025302E-02.
 Largest element of DIIS residual   :  0.58025302E-02.
 CPU: This iteration required        0.0 seconds.
 Iteration Nr. 2
 Generation of Intermediates required        0.0 seconds.
 Transformation of t(ab,ij) amplitudes required    0.0 seconds.
 Contraction of t(mu nu,ij) with AO integrals required    0.0 seconds.
 Backtransformation of t(mu nu,ij) increments required    0.0 seconds.
 Construction of Hbar(ab,ij) and Hbar(a,i) required   0.0 seconds.
 Amplitude changes are:
 -------------------------------------------------------------------
              Spin      RMS          Max.      Max. change for
  Amplitude   Case     Change       Change       i    j    a    b
 -------------------------------------------------------------------
     T1        AA    0.0000655417-0.0009017747    2         6
     T2        AB    0.0000032763-0.0017774135    5    5   18   18
 -------------------------------------------------------------------
 The total correlation energy is -0.225605975047 a.u.
 Convergence information after     2 iterations: 
 Largest element of residual vector : -0.17774135E-02.
 Largest element of DIIS residual   : -0.21151191E-02.
 CPU: This iteration required        0.0 seconds.
 Iteration Nr. 3
 Generation of Intermediates required        0.0 seconds.
 Transformation of t(ab,ij) amplitudes required    0.0 seconds.
 Contraction of t(mu nu,ij) with AO integrals required    0.0 seconds.
 Backtransformation of t(mu nu,ij) increments required    0.0 seconds.
 Construction of Hbar(ab,ij) and Hbar(a,i) required   0.0 seconds.
 Amplitude changes are:
 -------------------------------------------------------------------
              Spin      RMS          Max.      Max. change for
  Amplitude   Case     Change       Change       i    j    a    b
 -------------------------------------------------------------------
     T1        AA    0.0000321168 0.0007974901    3         6
     T2        AB    0.0000007390-0.0003450618    5    5   19   18
 -------------------------------------------------------------------
 The total correlation energy is -0.226496986137 a.u.
 Convergence information after     3 iterations: 
 Largest element of residual vector :  0.79749012E-03.
 Largest element of DIIS residual   :  0.68896741E-03.
 CPU: This iteration required        0.0 seconds.
 Iteration Nr. 4
 Generation of Intermediates required        0.0 seconds.
 Transformation of t(ab,ij) amplitudes required    0.0 seconds.
 Contraction of t(mu nu,ij) with AO integrals required    0.0 seconds.
 Backtransformation of t(mu nu,ij) increments required    0.0 seconds.
 Construction of Hbar(ab,ij) and Hbar(a,i) required   0.0 seconds.
 Amplitude changes are:
 -------------------------------------------------------------------
              Spin      RMS          Max.      Max. change for
  Amplitude   Case     Change       Change       i    j    a    b
 -------------------------------------------------------------------
     T1        AA    0.0000061592 0.0001608843    3         6
     T2        AB    0.0000001756-0.0001275641    5    5   18   18
 -------------------------------------------------------------------
 The total correlation energy is -0.226765558838 a.u.
 Convergence information after     4 iterations: 
 Largest element of residual vector :  0.16088433E-03.
 Largest element of DIIS residual   :  0.93946410E-04.
 CPU: This iteration required        0.0 seconds.
 Iteration Nr. 5
 Generation of Intermediates required        0.0 seconds.
 Transformation of t(ab,ij) amplitudes required    0.0 seconds.
 Contraction of t(mu nu,ij) with AO integrals required    0.0 seconds.
 Backtransformation of t(mu nu,ij) increments required    0.0 seconds.
 Construction of Hbar(ab,ij) and Hbar(a,i) required   0.0 seconds.
 Amplitude changes are:
 -------------------------------------------------------------------
              Spin      RMS          Max.      Max. change for
  Amplitude   Case     Change       Change       i    j    a    b
 -------------------------------------------------------------------
     T1        AA    0.0000033013 0.0001128452    3         6
     T2        AB    0.0000000364 0.0000221830    5    5    6    6
 -------------------------------------------------------------------
 The total correlation energy is -0.226782085108 a.u.
 Convergence information after     5 iterations: 
 Largest element of residual vector :  0.11284521E-03.
 Largest element of DIIS residual   :  0.76217327E-04.
 Largest T1 amplitudes for spin case AA:
    i       a                 i       a                 i       a    
 -----------------------------------------------------------------------------
 [  5      22    ] 0.00703 [  3       6    ] 0.00678 [  5      18    ]-0.00577
 [  5      20    ] 0.00502 [  3      11    ]-0.00467 [  2       8    ]-0.00422
 [  2       6    ]-0.00393 [  3       7    ] 0.00295 [  3       9    ] 0.00292
 [  4      16    ]-0.00291 [  2      11    ] 0.00280 [  4      15    ]-0.00272
 [  2      10    ] 0.00233 [  5      19    ]-0.00185 [  5      21    ] 0.00092
 -----------------------------------------------------------------------------
 Norm of T1AA vector (       36 symmetry allowed elements):  0.0161756076.
 -----------------------------------------------------------------------------
 Largest T2 amplitudes for spin case AB:
        _       _                 _       _                 _       _
    i   j   a   b             i   j   a   b             i   j   a   b
 -----------------------------------------------------------------------------
 [  4   4  15  15]-0.05123 [  5   5  19  19]-0.03604 [  3   3   8   8]-0.03554
 [  5   5  18  18]-0.02958 [  4   3  15   8]-0.02889 [  3   4   8  15]-0.02889
 [  5   5   7   7]-0.02853 [  3   3  19  19]-0.02578 [  5   4  20  15]-0.02317
 [  4   5  15  20]-0.02317 [  5   5  20  20]-0.02263 [  5   4  18  15]-0.02161
 [  4   5  15  18]-0.02161 [  5   3   7  19] 0.02159 [  3   5  19   7] 0.02159
 -----------------------------------------------------------------------------
 Norm of T2AB vector (     2762 symmetry allowed elements):  0.2156078862.
 -----------------------------------------------------------------------------
 CPU: This iteration required        0.0 seconds.
 Iteration Nr. 6
 Generation of Intermediates required        0.0 seconds.
 Transformation of t(ab,ij) amplitudes required    0.0 seconds.
 Contraction of t(mu nu,ij) with AO integrals required    0.0 seconds.
 Backtransformation of t(mu nu,ij) increments required    0.0 seconds.
 Construction of Hbar(ab,ij) and Hbar(a,i) required   0.0 seconds.
 Amplitude changes are:
 -------------------------------------------------------------------
              Spin      RMS          Max.      Max. change for
  Amplitude   Case     Change       Change       i    j    a    b
 -------------------------------------------------------------------
     T1        AA    0.0000011735 0.0000393779    3         6
     T2        AB    0.0000000114 0.0000084204    5    5    6    6
 -------------------------------------------------------------------
 The total correlation energy is -0.226784420001 a.u.
 Convergence information after     6 iterations: 
 Largest element of residual vector :  0.39377862E-04.
 Largest element of DIIS residual   :  0.16638182E-04.
 CPU: This iteration required        0.0 seconds.
 Iteration Nr. 7
 Generation of Intermediates required        0.0 seconds.
 Transformation of t(ab,ij) amplitudes required    0.0 seconds.
 Contraction of t(mu nu,ij) with AO integrals required    0.0 seconds.
 Backtransformation of t(mu nu,ij) increments required    0.0 seconds.
 Construction of Hbar(ab,ij) and Hbar(a,i) required   0.0 seconds.
 Amplitude changes are:
 -------------------------------------------------------------------
              Spin      RMS          Max.      Max. change for
  Amplitude   Case     Change       Change       i    j    a    b
 -------------------------------------------------------------------
     T1        AA    0.0000004253 0.0000146353    3         6
     T2        AB    0.0000000026-0.0000015622    3    3    6    6
 -------------------------------------------------------------------
 The total correlation energy is -0.226783805250 a.u.
 Convergence information after     7 iterations: 
 Largest element of residual vector :  0.14635268E-04.
 Largest element of DIIS residual   :  0.38709983E-05.
 CPU: This iteration required        0.0 seconds.
 Iteration Nr. 8
 Generation of Intermediates required        0.0 seconds.
 Transformation of t(ab,ij) amplitudes required    0.0 seconds.
 Contraction of t(mu nu,ij) with AO integrals required    0.0 seconds.
 Backtransformation of t(mu nu,ij) increments required    0.0 seconds.
 Construction of Hbar(ab,ij) and Hbar(a,i) required   0.0 seconds.
 Amplitude changes are:
 -------------------------------------------------------------------
              Spin      RMS          Max.      Max. change for
  Amplitude   Case     Change       Change       i    j    a    b
 -------------------------------------------------------------------
     T1        AA    0.0000000612 0.0000020680    3         6
     T2        AB    0.0000000011 0.0000010105    5    5   18   18
 -------------------------------------------------------------------
 The total correlation energy is -0.226783975329 a.u.
 Convergence information after     8 iterations: 
 Largest element of residual vector :  0.20680122E-05.
 Largest element of DIIS residual   :  0.68106767E-06.
 CPU: This iteration required        0.0 seconds.
 Iteration Nr. 9
 Generation of Intermediates required        0.0 seconds.
 Transformation of t(ab,ij) amplitudes required    0.0 seconds.
 Contraction of t(mu nu,ij) with AO integrals required    0.0 seconds.
 Backtransformation of t(mu nu,ij) increments required    0.0 seconds.
 Construction of Hbar(ab,ij) and Hbar(a,i) required   0.0 seconds.
 Amplitude changes are:
 -------------------------------------------------------------------
              Spin      RMS          Max.      Max. change for
  Amplitude   Case     Change       Change       i    j    a    b
 -------------------------------------------------------------------
     T1        AA    0.0000000110 0.0000003582    3         6
     T2        AB    0.0000000002-0.0000002402    5    5    6    6
 -------------------------------------------------------------------
 The total correlation energy is -0.226783945849 a.u.
 Convergence information after     9 iterations: 
 Largest element of residual vector :  0.35819896E-06.
 Largest element of DIIS residual   : -0.14900615E-06.
 CPU: This iteration required        0.0 seconds.
 Iteration Nr. 10
 Generation of Intermediates required        0.0 seconds.
 Transformation of t(ab,ij) amplitudes required    0.0 seconds.
 Contraction of t(mu nu,ij) with AO integrals required    0.0 seconds.
 Backtransformation of t(mu nu,ij) increments required    0.0 seconds.
 Construction of Hbar(ab,ij) and Hbar(a,i) required   0.0 seconds.
 Amplitude changes are:
 -------------------------------------------------------------------
              Spin      RMS          Max.      Max. change for
  Amplitude   Case     Change       Change       i    j    a    b
 -------------------------------------------------------------------
     T1        AA    0.0000000022 0.0000000627    3         6
     T2        AB    0.0000000001 0.0000000472    5    5   18   18
 -------------------------------------------------------------------
 The total correlation energy is -0.226783922619 a.u.
 Convergence information after    10 iterations: 
 Largest element of residual vector :  0.62720856E-07.
 Largest element of DIIS residual   : -0.50445643E-07.
 Largest T1 amplitudes for spin case AA:
    i       a                 i       a                 i       a    
 -----------------------------------------------------------------------------
 [  5      22    ] 0.00703 [  3       6    ] 0.00687 [  5      18    ]-0.00575
 [  5      20    ] 0.00502 [  3      11    ]-0.00467 [  2       8    ]-0.00422
 [  2       6    ]-0.00391 [  3       7    ] 0.00297 [  3       9    ] 0.00293
 [  4      16    ]-0.00291 [  2      11    ] 0.00280 [  4      15    ]-0.00271
 [  2      10    ] 0.00233 [  5      19    ]-0.00184 [  5      21    ] 0.00092
 -----------------------------------------------------------------------------
 Norm of T1AA vector (       36 symmetry allowed elements):  0.0162091793.
 -----------------------------------------------------------------------------
 Largest T2 amplitudes for spin case AB:
        _       _                 _       _                 _       _
    i   j   a   b             i   j   a   b             i   j   a   b
 -----------------------------------------------------------------------------
 [  4   4  15  15]-0.05123 [  5   5  19  19]-0.03604 [  3   3   8   8]-0.03554
 [  5   5  18  18]-0.02958 [  4   3  15   8]-0.02889 [  3   4   8  15]-0.02889
 [  5   5   7   7]-0.02852 [  3   3  19  19]-0.02578 [  5   4  20  15]-0.02317
 [  4   5  15  20]-0.02317 [  5   5  20  20]-0.02263 [  5   4  18  15]-0.02161
 [  4   5  15  18]-0.02161 [  5   3   7  19] 0.02159 [  3   5  19   7] 0.02159
 -----------------------------------------------------------------------------
 Norm of T2AB vector (     2762 symmetry allowed elements):  0.2156007537.
 -----------------------------------------------------------------------------
 CPU: This iteration required        0.0 seconds.
 Iteration Nr. 11
 Generation of Intermediates required        0.0 seconds.
 Transformation of t(ab,ij) amplitudes required    0.0 seconds.
 Contraction of t(mu nu,ij) with AO integrals required    0.0 seconds.
 Backtransformation of t(mu nu,ij) increments required    0.0 seconds.
 Construction of Hbar(ab,ij) and Hbar(a,i) required   0.0 seconds.
 Amplitude changes are:
 -------------------------------------------------------------------
              Spin      RMS          Max.      Max. change for
  Amplitude   Case     Change       Change       i    j    a    b
 -------------------------------------------------------------------
     T1        AA    0.0000000004-0.0000000106    3         6
     T2        AB    0.0000000000-0.0000000096    3    3   18   18
 -------------------------------------------------------------------
 The total correlation energy is -0.226783917811 a.u.
 Convergence information after    11 iterations: 
 Largest element of residual vector : -0.10598741E-07.
 Largest element of DIIS residual   : -0.87712131E-08.
 CPU: This iteration required        0.0 seconds.
 Iteration Nr. 12
 Generation of Intermediates required        0.0 seconds.
 Transformation of t(ab,ij) amplitudes required    0.0 seconds.
 Contraction of t(mu nu,ij) with AO integrals required    0.0 seconds.
 Backtransformation of t(mu nu,ij) increments required    0.0 seconds.
 Construction of Hbar(ab,ij) and Hbar(a,i) required   0.0 seconds.
 Amplitude changes are:
 -------------------------------------------------------------------
              Spin      RMS          Max.      Max. change for
  Amplitude   Case     Change       Change       i    j    a    b
 -------------------------------------------------------------------
     T1        AA    0.0000000002 0.0000000034    3         6
     T2        AB    0.0000000000 0.0000000028    3    3    6    6
 -------------------------------------------------------------------
 The total correlation energy is -0.226783917091 a.u.
 Convergence information after    12 iterations: 
 Largest element of residual vector :  0.34022761E-08.
 Largest element of DIIS residual   :  0.22967932E-08.
 CPU: This iteration required        0.0 seconds.
 Iteration Nr. 13
 Generation of Intermediates required        0.0 seconds.
 Transformation of t(ab,ij) amplitudes required    0.0 seconds.
 Contraction of t(mu nu,ij) with AO integrals required    0.0 seconds.
 Backtransformation of t(mu nu,ij) increments required    0.0 seconds.
 Construction of Hbar(ab,ij) and Hbar(a,i) required   0.0 seconds.
 Amplitude changes are:
 -------------------------------------------------------------------
              Spin      RMS          Max.      Max. change for
  Amplitude   Case     Change       Change       i    j    a    b
 -------------------------------------------------------------------
     T1        AA    0.0000000000 0.0000000006    3         6
     T2        AB    0.0000000000-0.0000000006    3    3   18   18
 -------------------------------------------------------------------
 The total correlation energy is -0.226783916975 a.u.
 Convergence information after    13 iterations: 
 Largest element of residual vector :  0.62822708E-09.
 Largest element of DIIS residual   : -0.39716792E-09.
 CPU: This iteration required        0.0 seconds.
 Iteration Nr. 14
 Generation of Intermediates required        0.0 seconds.
 Transformation of t(ab,ij) amplitudes required    0.0 seconds.
 Contraction of t(mu nu,ij) with AO integrals required    0.0 seconds.
 Backtransformation of t(mu nu,ij) increments required    0.0 seconds.
 Construction of Hbar(ab,ij) and Hbar(a,i) required   0.0 seconds.
 Amplitude changes are:
 -------------------------------------------------------------------
              Spin      RMS          Max.      Max. change for
  Amplitude   Case     Change       Change       i    j    a    b
 -------------------------------------------------------------------
     T1        AA    0.0000000000 0.0000000005    3         6
     T2        AB    0.0000000000 0.0000000001    5    5    6    6
 -------------------------------------------------------------------
 The total correlation energy is -0.226783917008 a.u.
 Convergence information after    14 iterations: 
 Largest element of residual vector :  0.53006744E-09.
 Largest element of DIIS residual   :  0.33496854E-09.
 CPU: This iteration required        0.0 seconds.
 Iteration Nr. 15
 Generation of Intermediates required        0.0 seconds.
 Transformation of t(ab,ij) amplitudes required    0.0 seconds.
 Contraction of t(mu nu,ij) with AO integrals required    0.0 seconds.
 Backtransformation of t(mu nu,ij) increments required    0.0 seconds.
 Construction of Hbar(ab,ij) and Hbar(a,i) required   0.0 seconds.
 Amplitude changes are:
 -------------------------------------------------------------------
              Spin      RMS          Max.      Max. change for
  Amplitude   Case     Change       Change       i    j    a    b
 -------------------------------------------------------------------
     T1        AA    0.0000000000 0.0000000001    3         6
     T2        AB    0.0000000000 0.0000000000    3    5   18    6
 -------------------------------------------------------------------
 The total correlation energy is -0.226783917015 a.u.
 Convergence information after    15 iterations: 
 Largest element of residual vector :  0.14969082E-09.
 Largest element of DIIS residual   :  0.47590418E-10.
 Largest T1 amplitudes for spin case AA:
    i       a                 i       a                 i       a    
 -----------------------------------------------------------------------------
 [  5      22    ] 0.00703 [  3       6    ] 0.00687 [  5      18    ]-0.00575
 [  5      20    ] 0.00502 [  3      11    ]-0.00467 [  2       8    ]-0.00422
 [  2       6    ]-0.00391 [  3       7    ] 0.00297 [  3       9    ] 0.00293
 [  4      16    ]-0.00291 [  2      11    ] 0.00280 [  4      15    ]-0.00271
 [  2      10    ] 0.00233 [  5      19    ]-0.00184 [  5      21    ] 0.00092
 -----------------------------------------------------------------------------
 Norm of T1AA vector (       36 symmetry allowed elements):  0.0162091696.
 -----------------------------------------------------------------------------
 Largest T2 amplitudes for spin case AB:
        _       _                 _       _                 _       _
    i   j   a   b             i   j   a   b             i   j   a   b
 -----------------------------------------------------------------------------
 [  4   4  15  15]-0.05123 [  5   5  19  19]-0.03604 [  3   3   8   8]-0.03554
 [  5   5  18  18]-0.02958 [  4   3  15   8]-0.02889 [  3   4   8  15]-0.02889
 [  5   5   7   7]-0.02852 [  3   3  19  19]-0.02578 [  5   4  20  15]-0.02317
 [  4   5  15  20]-0.02317 [  5   5  20  20]-0.02263 [  5   4  18  15]-0.02161
 [  4   5  15  18]-0.02161 [  5   3   7  19] 0.02159 [  3   5  19   7] 0.02159
 -----------------------------------------------------------------------------
 Norm of T2AB vector (     2762 symmetry allowed elements):  0.2156007532.
 -----------------------------------------------------------------------------
 CPU: This iteration required        0.0 seconds.
 Iteration Nr. 16
 Generation of Intermediates required        0.0 seconds.
 Transformation of t(ab,ij) amplitudes required    0.0 seconds.
 Contraction of t(mu nu,ij) with AO integrals required    0.0 seconds.
 Backtransformation of t(mu nu,ij) increments required    0.0 seconds.
 Construction of Hbar(ab,ij) and Hbar(a,i) required   0.0 seconds.
 Amplitude changes are:
 -------------------------------------------------------------------
              Spin      RMS          Max.      Max. change for
  Amplitude   Case     Change       Change       i    j    a    b
 -------------------------------------------------------------------
     T1        AA    0.0000000000 0.0000000000    3         6
     T2        AB    0.0000000000 0.0000000000    5    3    6   18
 -------------------------------------------------------------------
 The total correlation energy is -0.226783917023 a.u.
 Convergence information after    16 iterations: 
 Largest element of residual vector :  0.41681407E-10.
 Largest element of DIIS residual   :  0.14898070E-10.
 CPU: This iteration required        0.0 seconds.
 Iteration Nr. 17
 Generation of Intermediates required        0.0 seconds.
 Transformation of t(ab,ij) amplitudes required    0.0 seconds.
 Contraction of t(mu nu,ij) with AO integrals required    0.0 seconds.
 Backtransformation of t(mu nu,ij) increments required    0.0 seconds.
 Construction of Hbar(ab,ij) and Hbar(a,i) required   0.0 seconds.
 Amplitude changes are:
 -------------------------------------------------------------------
              Spin      RMS          Max.      Max. change for
  Amplitude   Case     Change       Change       i    j    a    b
 -------------------------------------------------------------------
     T1        AA    0.0000000000 0.0000000000    3         6
     T2        AB    0.0000000000 0.0000000000    5    5    6    6
 -------------------------------------------------------------------
 The total correlation energy is -0.226783917024 a.u.
 Convergence information after    17 iterations: 
 Largest element of residual vector :  0.62783615E-11.
 Largest element of DIIS residual   :  0.26497746E-11.
 CPU: This iteration required        0.0 seconds.
 Iteration Nr. 18
 Generation of Intermediates required        0.0 seconds.
 Transformation of t(ab,ij) amplitudes required    0.0 seconds.
 Contraction of t(mu nu,ij) with AO integrals required    0.0 seconds.
 Backtransformation of t(mu nu,ij) increments required    0.0 seconds.
 Construction of Hbar(ab,ij) and Hbar(a,i) required   0.0 seconds.
 Amplitude changes are:
 -------------------------------------------------------------------
              Spin      RMS          Max.      Max. change for
  Amplitude   Case     Change       Change       i    j    a    b
 -------------------------------------------------------------------
     T1        AA    0.0000000000 0.0000000000    5        18
     T2        AB    0.0000000000 0.0000000000    5    5    6    6
 -------------------------------------------------------------------
 The total correlation energy is -0.226783917025 a.u.
 Convergence information after    18 iterations: 
 Largest element of residual vector :  0.13655873E-11.
 Largest element of DIIS residual   : -0.80055643E-12.
 Amplitude equations converged in    18 iterations.
 The total correlation energy is -0.226783917025 a.u.
 Summary of iterative solution of CC equations 
 -----------------------------------------------------------
                 Correlation           Total
  Iteration        Energy              Energy
 -----------------------------------------------------------
      0     -0.2169577242491652   -76.231322742781   DIIS 
      1     -0.2223091584385538   -76.236674176971   DIIS 
      2     -0.2256059750470519   -76.239970993579   DIIS 
      3     -0.2264969861373955   -76.240862004669   DIIS 
      4     -0.2267655588381905   -76.241130577370   DIIS 
      5     -0.2267820851084409   -76.241147103640   DIIS 
      6     -0.2267844200009558   -76.241149438533   DIIS 
      7     -0.2267838052499841   -76.241148823782   DIIS 
      8     -0.2267839753293036   -76.241148993861   DIIS 
      9     -0.2267839458486932   -76.241148964381   DIIS 
     10     -0.2267839226194295   -76.241148941151   DIIS 
     11     -0.2267839178112172   -76.241148936343   DIIS 
     12     -0.2267839170914939   -76.241148935623   DIIS 
     13     -0.2267839169749252   -76.241148935507   DIIS 
     14     -0.2267839170075273   -76.241148935539   DIIS 
     15     -0.2267839170146994   -76.241148935547   DIIS 
     16     -0.2267839170228221   -76.241148935555   DIIS 
     17     -0.2267839170243693   -76.241148935556   DIIS 
     18     -0.2267839170248764   -76.241148935557   DIIS 
 -----------------------------------------------------------
 A miracle come to pass. The CC iterations have converged.
 
 
 
 Non-iterative perturbative treatment of triple
 excitations using the CCSD(T) method:
 
--------------------------------------------------------------------------------
  CCSD energy                              -76.241148935557
--------------------------------------------------------------------------------
  CCSD(T) energy                     -76.244205020359
--------------------------------------------------------------------------------
  @CHECKOUT-I, Total execution time :       0.2000 seconds.
                0.12 seconds walltime passed
 --executable xecc finished with status            0
 --invoking executable xlcc
 Lambda equations are solved for CCSD(T)
 AO based algorithm is used. 
 The total correlation energy is -0.226797839852 a.u.
 Starting iterative solution of the Lambda equations.
 The DIIS procedure is used to accelerate convergence.
 5 expansion vectors are used in the DIIS extrapolation.
 Convergence criterium is 10**(-12).
 Maximum number of iterations is  50.
 The total correlation energy is -0.230093815148 a.u.
 Convergence information after     1 iterations: 
 Largest element of residual vector : -0.25746810E-02.
 Largest element of DIIS residual   : -0.25746810E-02.
 The total correlation energy is -0.229660641870 a.u.
 Convergence information after     2 iterations: 
 Largest element of residual vector : -0.78245776E-03.
 Largest element of DIIS residual   : -0.59102428E-03.
 The total correlation energy is -0.229704690113 a.u.
 Convergence information after     3 iterations: 
 Largest element of residual vector :  0.14669245E-03.
 Largest element of DIIS residual   :  0.97412836E-04.
 The total correlation energy is -0.229706486350 a.u.
 Convergence information after     4 iterations: 
 Largest element of residual vector :  0.74969000E-04.
 Largest element of DIIS residual   :  0.57058276E-04.
 The total correlation energy is -0.229708735299 a.u.
 Convergence information after     5 iterations: 
 Largest element of residual vector :  0.28950027E-04.
 Largest element of DIIS residual   :  0.16972841E-04.
 The total correlation energy is -0.229709504563 a.u.
 Convergence information after     6 iterations: 
 Largest element of residual vector :  0.12133619E-04.
 Largest element of DIIS residual   :  0.54401483E-05.
 The total correlation energy is -0.229709517657 a.u.
 Convergence information after     7 iterations: 
 Largest element of residual vector :  0.25526736E-05.
 Largest element of DIIS residual   :  0.57867587E-06.
 The total correlation energy is -0.229709489746 a.u.
 Convergence information after     8 iterations: 
 Largest element of residual vector :  0.39889179E-06.
 Largest element of DIIS residual   :  0.28723726E-06.
 The total correlation energy is -0.229709479650 a.u.
 Convergence information after     9 iterations: 
 Largest element of residual vector :  0.39130766E-07.
 Largest element of DIIS residual   :  0.33287790E-07.
 The total correlation energy is -0.229709481645 a.u.
 Convergence information after    10 iterations: 
 Largest element of residual vector :  0.22800737E-07.
 Largest element of DIIS residual   :  0.10373598E-07.
 The total correlation energy is -0.229709481582 a.u.
 Convergence information after    11 iterations: 
 Largest element of residual vector :  0.26249966E-08.
 Largest element of DIIS residual   :  0.21032874E-08.
 The total correlation energy is -0.229709481686 a.u.
 Convergence information after    12 iterations: 
 Largest element of residual vector :  0.65741576E-09.
 Largest element of DIIS residual   : -0.38525453E-09.
 The total correlation energy is -0.229709481693 a.u.
 Convergence information after    13 iterations: 
 Largest element of residual vector :  0.30986387E-09.
 Largest element of DIIS residual   :  0.20221578E-09.
 The total correlation energy is -0.229709481693 a.u.
 Convergence information after    14 iterations: 
 Largest element of residual vector :  0.11269887E-09.
 Largest element of DIIS residual   :  0.43326456E-10.
 The total correlation energy is -0.229709481693 a.u.
 Convergence information after    15 iterations: 
 Largest element of residual vector :  0.45336138E-10.
 Largest element of DIIS residual   :  0.14638206E-10.
 The total correlation energy is -0.229709481693 a.u.
 Convergence information after    16 iterations: 
 Largest element of residual vector :  0.11160303E-10.
 Largest element of DIIS residual   :  0.36392524E-11.
 The total correlation energy is -0.229709481693 a.u.
 Convergence information after    17 iterations: 
 Largest element of residual vector :  0.17717971E-11.
 Largest element of DIIS residual   : -0.50605016E-12.
 Amplitude equations converged in    17 iterations.
 The total correlation energy is -0.229709481693 a.u.
 Summary of iterative solution of CC equations 
 -----------------------------------------------------------
                 Correlation           Total
  Iteration        Energy              Energy
 -----------------------------------------------------------
      0     -0.2267978398524456   -76.241162858384   DIIS 
      1     -0.2300938151478557   -76.244458833680   DIIS 
      2     -0.2296606418704237   -76.244025660402   DIIS 
      3     -0.2297046901132407   -76.244069708645   DIIS 
      4     -0.2297064863497644   -76.244071504882   DIIS 
      5     -0.2297087352988864   -76.244073753831   DIIS 
      6     -0.2297095045631721   -76.244074523095   DIIS 
      7     -0.2297095176567186   -76.244074536189   DIIS 
      8     -0.2297094897461892   -76.244074508278   DIIS 
      9     -0.2297094796504640   -76.244074498182   DIIS 
     10     -0.2297094816448120   -76.244074500177   DIIS 
     11     -0.2297094815822207   -76.244074500114   DIIS 
     12     -0.2297094816855898   -76.244074500218   DIIS 
     13     -0.2297094816933931   -76.244074500225   DIIS 
     14     -0.2297094816934293   -76.244074500225   DIIS 
     15     -0.2297094816927868   -76.244074500225   DIIS 
     16     -0.2297094816927794   -76.244074500225   DIIS 
     17     -0.2297094816929536   -76.244074500225   DIIS 
 -----------------------------------------------------------
 A miracle come to pass. The CC iterations have converged.
  @CHECKOUT-I, Total execution time :       0.1500 seconds.
                0.00 seconds walltime passed
 --executable xlcc finished with status            0
 --invoking executable xdens
  CCSD(T) density and intermediates are calculated.
  The perturbed orbitals are chosen canonical.
  Direct algorithm used for all contributions involving G(AB,CD).
  W(abef) AB contribution =  0.0378005479 a.u.
  W(abef) AB contribution =  0.0388138025 a.u.
                     1                     1
                     2                     2
                     3                     3
                     4                     4
 Total CPU time :   0.000000000000000E+000
  processed                   3047  ao basis integrals from 
                     6  buffers.
 Total CPU time :   9.999999776482582E-003
  processed                   5200  ao basis integrals from 
                     9  buffers.
 Total CPU time :   0.000000000000000E+000
  processed                   3309  ao basis integrals from 
                     6  buffers.
 Total CPU time :   0.000000000000000E+000
  processed                   1891  ao basis integrals from 
                     4  buffers.
  The iterative expansion of D(ai) converged after  16 iterations.
  ----------------------------------------------------------------------
                 Natural orbital occupation numbers
  ----------------------------------------------------------------------
  1.99962  1.98398  1.97233  1.96559  1.96254  0.02800  0.02574  0.01737
  0.01189  0.00615  0.00578  0.00518  0.00454  0.00442  0.00128  0.00124
  0.00079  0.00078  0.00074  0.00057  0.00054  0.00051  0.00025  0.00008
  0.00005
  Trace of density matrix :  10.0000000000.
  ----------------------------------------------------------------------
  Density calculation successfully completed.
  @CHECKOUT-I, Total execution time :       0.0200 seconds.
                0.00 seconds walltime passed
 --executable xdens finished with status            0
 --invoking executable xanti
 CCSD(T) MO gammas will be sorted to Mulliken order.
  @CHECKOUT-I, Total execution time :       0.0000 seconds.
                0.00 seconds walltime passed
 --executable xanti finished with status            0
 --invoking executable xbcktrn
  @CHECKOUT-I, Total execution time :       0.0000 seconds.
                0.00 seconds walltime passed
 --executable xbcktrn finished with status            0
 --invoking executable xvdint
 One- and two-electron integral derivatives are calculated
 for RHF-CC/MBPT gradients and dipole moments.
 Spherical gaussians are used.

                     Kinetic energy integral gradient
                     --------------------------------

                         O #1 z    -0.8958732936
                         H #2 y     1.1848878710
                         H #2 z     0.8958732936


 O #1       0.0000000000            0.0000000000           -0.8958732936
 H #2 1     0.0000000000            0.5924439355            0.4479366468
 H #2 2     0.0000000000           -0.5924439355            0.4479366468



                   Nuclear attraction integral gradient
                   ------------------------------------

                         O #1 z     8.4230886571
                         H #2 y   -11.1171861690
                         H #2 z    -8.4230886571


 O #1       0.0000000000            0.0000000000            8.4230886571
 H #2 1     0.0000000000           -5.5585930845           -4.2115443286
 H #2 2     0.0000000000            5.5585930845           -4.2115443286



                      Reorthonormalization gradient
                      -----------------------------

                         O #1 z    -0.4719706092
                         H #2 y     0.5630651826
                         H #2 z     0.4719706092


 O #1       0.0000000000            0.0000000000           -0.4719706092
 H #2 1     0.0000000000            0.2815325913            0.2359853046
 H #2 2     0.0000000000           -0.2815325913            0.2359853046



                Electronic contributions to dipole moment
                -----------------------------------------

                               au             Debye

                    z      0.20227937      0.51414296

  Conversion factor used: 1 a.u. =   2.54174691 Debye 


  Evaluation of 1e integral derivatives required    0.00 seconds.
  Evaluation of 2el integral derivatives

                      Two-electron integral gradient
                      ------------------------------

                         O #1 z    -4.0773990330
                         H #2 y     5.2702687442
                         H #2 z     4.0773990330


 O #1       0.0000000000            0.0000000000           -4.0773990330
 H #2 1     0.0000000000            2.6351343721            2.0386995165
 H #2 2     0.0000000000           -2.6351343721            2.0386995165


  Evaluation of 2e integral derivatives required    0.05 seconds.

                            Molecular gradient
                            ------------------

                         O #1 z    -0.0109527466
                         H #2 y     0.0051443750
                         H #2 z     0.0109527466


 O #1       0.0000000000            0.0000000000           -0.0109527466
 H #2 1     0.0000000000            0.0025721875            0.0054763733
 H #2 2     0.0000000000           -0.0025721875            0.0054763733


  Molecular gradient norm 0.163E-01

                           Total dipole moment
                           -------------------

                               au             Debye

                    z     -0.77399668     -1.96730367

  Conversion factor used: 1 a.u. =   2.54174691 Debye 


  @CHECKOUT-I, Total execution time :       0.0500 seconds.
                0.12 seconds walltime passed
 --executable xvdint finished with status            0
 --invoking executable xjoda
   JODA beginning optimization cycle #  1.
 OriVec is   0.000000000000000E+000  -1.00000000000000     
  3.102413931082717E-016                    -2
   Internal coordinate forces and energy gradients (atomic units): 
           R       dV/dR             R       dV/dR             R       dV/dR
 [R    ]  1.81036 -0.0053865 [R    ]  1.81036 -0.0053865 [A    ]  1.82387  0.0049882
                     0                     0                     0 ****
   Optimization cycle  1.  Updating structure with Newton-Raphson step.
  @EFOL-I, Current internal coordinate Hessian written to FCMINT.
   There are   2 independent internal coordinates which will be optimized.
   Hessian matrix in totally symmetric symmetry coordinates: 
              R         A    
  R          1.000000  0.000000
  A          0.000000  0.250000
   The eigenvectors of the Hessian matrix: 
                   1         2
  R          0.000000  1.000000
  A          1.000000  0.000000
   The eigenvalues of the Hessian matrix: 
     0.25000    1.00000
   Gradients along Hessian eigenvectors: 
     0.00499   -0.00762
   There are  0 negative eigenvalues.
   Summary of Optimization Cycle: 
   The maximum unscaled step is:    0.02067.
   Scale factor set to:  1.00000.
   Forces are in hartree/bohr and hartree/radian.
   Parameter values are in Angstroms and degrees.
--------------------------------------------------------------------------
  Parameter     dV/dR           Step          Rold            Rnew
--------------------------------------------------------------------------
    R      -0.0053865322    0.0028504295    0.9580000000    0.9608504295
    A       0.0049882127   -1.1432141355  104.5000000000  103.3567858645
--------------------------------------------------------------------------
  Minimum force:  0.004988213 / RMS force:  0.005191194
 Updating structure...
[...]
 The total correlation energy is -0.227372475177 a.u.
 Convergence information after    18 iterations: 
 Largest element of residual vector :  0.13795111E-11.
 Largest element of DIIS residual   : -0.84964489E-12.
 Amplitude equations converged in    18 iterations.
 The total correlation energy is -0.227372475177 a.u.
 Summary of iterative solution of CC equations 
 -----------------------------------------------------------
                 Correlation           Total
  Iteration        Energy              Energy
 -----------------------------------------------------------
      0     -0.2175659199699703   -76.231444616282   DIIS 
      1     -0.2228140668157623   -76.236692763128   DIIS 
      2     -0.2261717448590401   -76.240050441171   DIIS 
      3     -0.2270728081346868   -76.240951504447   DIIS 
      4     -0.2273534888632026   -76.241232185175   DIIS 
      5     -0.2273705417045600   -76.241249238017   DIIS 
      6     -0.2273729937265904   -76.241251690039   DIIS 
      7     -0.2273723523923552   -76.241251048704   DIIS 
      8     -0.2273725325204562   -76.241251228833   DIIS 
      9     -0.2273725045358893   -76.241251200848   DIIS 
     10     -0.2273724807849498   -76.241251177097   DIIS 
     11     -0.2273724760068928   -76.241251172319   DIIS 
     12     -0.2273724752572990   -76.241251171569   DIIS 
     13     -0.2273724751291522   -76.241251171441   DIIS 
     14     -0.2273724751594950   -76.241251171472   DIIS 
     15     -0.2273724751653850   -76.241251171477   DIIS 
     16     -0.2273724751740618   -76.241251171486   DIIS 
     17     -0.2273724751758842   -76.241251171488   DIIS 
     18     -0.2273724751765216   -76.241251171489   DIIS 
 -----------------------------------------------------------
 A miracle come to pass. The CC iterations have converged.
 
 
 
 Non-iterative perturbative treatment of triple
 excitations using the CCSD(T) method:
 
--------------------------------------------------------------------------------
  CCSD energy                              -76.241251171489
--------------------------------------------------------------------------------
  CCSD(T) energy                     -76.244354716924
--------------------------------------------------------------------------------
  @CHECKOUT-I, Total execution time :       0.2000 seconds.
                0.12 seconds walltime passed
 --executable xecc finished with status            0
 --invoking executable xlcc
 Lambda equations are solved for CCSD(T)
 AO based algorithm is used. 
 The total correlation energy is -0.227387037076 a.u.
 Starting iterative solution of the Lambda equations.
 The DIIS procedure is used to accelerate convergence.
 5 expansion vectors are used in the DIIS extrapolation.
 Convergence criterium is 10**(-12).
 Maximum number of iterations is  50.
 The total correlation energy is -0.230733235893 a.u.
 Convergence information after     1 iterations: 
 Largest element of residual vector : -0.26530798E-02.
 Largest element of DIIS residual   : -0.26530798E-02.
 The total correlation energy is -0.230285721564 a.u.
 Convergence information after     2 iterations: 
 Largest element of residual vector : -0.79821483E-03.
 Largest element of DIIS residual   : -0.60414155E-03.
 The total correlation energy is -0.230332474558 a.u.
 Convergence information after     3 iterations: 
 Largest element of residual vector :  0.14780614E-03.
 Largest element of DIIS residual   :  0.10072748E-03.
 The total correlation energy is -0.230334596199 a.u.
 Convergence information after     4 iterations: 
 Largest element of residual vector :  0.77555747E-04.
 Largest element of DIIS residual   :  0.58668503E-04.
 The total correlation energy is -0.230337040117 a.u.
 Convergence information after     5 iterations: 
 Largest element of residual vector :  0.29603752E-04.
 Largest element of DIIS residual   :  0.17210698E-04.
 The total correlation energy is -0.230337883472 a.u.
 Convergence information after     6 iterations: 
 Largest element of residual vector :  0.12351142E-04.
 Largest element of DIIS residual   :  0.55251594E-05.
 The total correlation energy is -0.230337901056 a.u.
 Convergence information after     7 iterations: 
 Largest element of residual vector :  0.25799283E-05.
 Largest element of DIIS residual   :  0.61730741E-06.
 The total correlation energy is -0.230337870339 a.u.
 Convergence information after     8 iterations: 
 Largest element of residual vector :  0.41183172E-06.
 Largest element of DIIS residual   :  0.29710552E-06.
 The total correlation energy is -0.230337858921 a.u.
 Convergence information after     9 iterations: 
 Largest element of residual vector :  0.45575171E-07.
 Largest element of DIIS residual   :  0.38386909E-07.
 The total correlation energy is -0.230337860890 a.u.
 Convergence information after    10 iterations: 
 Largest element of residual vector :  0.24078677E-07.
 Largest element of DIIS residual   :  0.11033255E-07.
 The total correlation energy is -0.230337860766 a.u.
 Convergence information after    11 iterations: 
 Largest element of residual vector :  0.29918218E-08.
 Largest element of DIIS residual   :  0.23606464E-08.
 The total correlation energy is -0.230337860862 a.u.
 Convergence information after    12 iterations: 
 Largest element of residual vector :  0.69207310E-09.
 Largest element of DIIS residual   : -0.39164047E-09.
 The total correlation energy is -0.230337860866 a.u.
 Convergence information after    13 iterations: 
 Largest element of residual vector :  0.31261476E-09.
 Largest element of DIIS residual   :  0.20389621E-09.
 The total correlation energy is -0.230337860865 a.u.
 Convergence information after    14 iterations: 
 Largest element of residual vector :  0.11205338E-09.
 Largest element of DIIS residual   :  0.43208137E-10.
 The total correlation energy is -0.230337860863 a.u.
 Convergence information after    15 iterations: 
 Largest element of residual vector :  0.46359510E-10.
 Largest element of DIIS residual   :  0.15024415E-10.
 The total correlation energy is -0.230337860863 a.u.
 Convergence information after    16 iterations: 
 Largest element of residual vector :  0.11606153E-10.
 Largest element of DIIS residual   :  0.39203245E-11.
 The total correlation energy is -0.230337860864 a.u.
 Convergence information after    17 iterations: 
 Largest element of residual vector :  0.19698843E-11.
 Largest element of DIIS residual   : -0.55005690E-12.
 Amplitude equations converged in    17 iterations.
 The total correlation energy is -0.230337860864 a.u.
 Summary of iterative solution of CC equations 
 -----------------------------------------------------------
                 Correlation           Total
  Iteration        Energy              Energy
 -----------------------------------------------------------
      0     -0.2273870370759732   -76.241265733388   DIIS 
      1     -0.2307332358929723   -76.244611932205   DIIS 
      2     -0.2302857215639902   -76.244164417876   DIIS 
      3     -0.2303324745579945   -76.244211170870   DIIS 
      4     -0.2303345961993854   -76.244213292511   DIIS 
      5     -0.2303370401171435   -76.244215736429   DIIS 
      6     -0.2303378834716791   -76.244216579784   DIIS 
      7     -0.2303379010558117   -76.244216597368   DIIS 
      8     -0.2303378703394572   -76.244216566652   DIIS 
      9     -0.2303378589210229   -76.244216555233   DIIS 
     10     -0.2303378608901407   -76.244216557202   DIIS 
     11     -0.2303378607660018   -76.244216557078   DIIS 
     12     -0.2303378608619399   -76.244216557174   DIIS 
     13     -0.2303378608657176   -76.244216557178   DIIS 
     14     -0.2303378608645369   -76.244216557177   DIIS 
     15     -0.2303378608634660   -76.244216557176   DIIS 
     16     -0.2303378608633845   -76.244216557175   DIIS 
     17     -0.2303378608635677   -76.244216557176   DIIS 
 -----------------------------------------------------------
 A miracle come to pass. The CC iterations have converged.
  @CHECKOUT-I, Total execution time :       0.1500 seconds.
                0.12 seconds walltime passed
 --executable xlcc finished with status            0
 --invoking executable xdens
  CCSD(T) density and intermediates are calculated.
  The perturbed orbitals are chosen canonical.
  Direct algorithm used for all contributions involving G(AB,CD).
  W(abef) AB contribution =  0.0381402765 a.u.
  W(abef) AB contribution =  0.0391822616 a.u.
                     1                     1
                     2                     2
                     3                     3
                     4                     4
 Total CPU time :   9.999999776482582E-003
  processed                   3047  ao basis integrals from 
                     6  buffers.
 Total CPU time :   0.000000000000000E+000
  processed                   5200  ao basis integrals from 
                     9  buffers.
 Total CPU time :   0.000000000000000E+000
  processed                   3309  ao basis integrals from 
                     6  buffers.
 Total CPU time :   0.000000000000000E+000
  processed                   1891  ao basis integrals from 
                     4  buffers.
  The iterative expansion of D(ai) converged after  16 iterations.
  ----------------------------------------------------------------------
                 Natural orbital occupation numbers
  ----------------------------------------------------------------------
  1.99962  1.98395  1.97230  1.96509  1.96196  0.02873  0.02619  0.01741
  0.01177  0.00617  0.00573  0.00514  0.00457  0.00444  0.00132  0.00125
  0.00079  0.00078  0.00076  0.00058  0.00053  0.00053  0.00025  0.00008
  0.00005
  Trace of density matrix :  10.0000000000.
  ----------------------------------------------------------------------
  Density calculation successfully completed.
  @CHECKOUT-I, Total execution time :       0.0200 seconds.
                0.00 seconds walltime passed
 --executable xdens finished with status            0
 --invoking executable xanti
 CCSD(T) MO gammas will be sorted to Mulliken order.
  @CHECKOUT-I, Total execution time :       0.0000 seconds.
                0.00 seconds walltime passed
 --executable xanti finished with status            0
 --invoking executable xbcktrn
  @CHECKOUT-I, Total execution time :       0.0000 seconds.
                0.00 seconds walltime passed
 --executable xbcktrn finished with status            0
 --invoking executable xvdint
 One- and two-electron integral derivatives are calculated
 for RHF-CC/MBPT gradients and dipole moments.
 Spherical gaussians are used.

                     Kinetic energy integral gradient
                     --------------------------------

                         O #1 z     0.9100628319
                         H #2 y     1.1485680977
                         H #2 z    -0.9100628319


 O #1       0.0000000000            0.0000000000            0.9100628319
 H #2 1     0.0000000000            0.5742840489           -0.4550314160
 H #2 2     0.0000000000           -0.5742840489           -0.4550314160



                   Nuclear attraction integral gradient
                   ------------------------------------

                         O #1 z    -8.5740808670
                         H #2 y   -10.8210949456
                         H #2 z     8.5740808670


 O #1       0.0000000000            0.0000000000           -8.5740808670
 H #2 1     0.0000000000           -5.4105474728            4.2870404335
 H #2 2     0.0000000000            5.4105474728            4.2870404335



                      Reorthonormalization gradient
                      -----------------------------

                         O #1 z     0.4821831100
                         H #2 y     0.5505677716
                         H #2 z    -0.4821831100


 O #1       0.0000000000            0.0000000000            0.4821831100
 H #2 1     0.0000000000            0.2752838858           -0.2410915550
 H #2 2     0.0000000000           -0.2752838858           -0.2410915550



                Electronic contributions to dipole moment
                -----------------------------------------

                               au             Debye

                    z     -0.21880650     -0.55615074

  Conversion factor used: 1 a.u. =   2.54174691 Debye 


  Evaluation of 1e integral derivatives required    0.00 seconds.
  Evaluation of 2el integral derivatives

                      Two-electron integral gradient
                      ------------------------------

                         O #1 z     4.1669119686
                         H #2 y     5.1159429875
                         H #2 z    -4.1669119686


 O #1       0.0000000000            0.0000000000            4.1669119686
 H #2 1     0.0000000000            2.5579714937           -2.0834559843
 H #2 2     0.0000000000           -2.5579714937           -2.0834559843


  Evaluation of 2e integral derivatives required    0.05 seconds.

                            Molecular gradient
                            ------------------

                         O #1 z     0.0000000546
                         H #2 y    -0.0000013344
                         H #2 z    -0.0000000546


 O #1       0.0000000000            0.0000000000            0.0000000546
 H #2 1     0.0000000000           -0.0000006672           -0.0000000273
 H #2 2     0.0000000000            0.0000006672           -0.0000000273


  Molecular gradient norm 0.134E-05

                           Total dipole moment
                           -------------------

                               au             Debye

                    z      0.78555766      1.99668876

  Conversion factor used: 1 a.u. =   2.54174691 Debye 


  @CHECKOUT-I, Total execution time :       0.0500 seconds.
                0.12 seconds walltime passed
 --executable xvdint finished with status            0
 --invoking executable xjoda
                0.00 seconds walltime passed
 --executable xjoda finished with status            0


  Variable Map:
  ----------------------------------------------------------------------------
  "(T) CORRECTION ENERGY"      =>      -0.003103545435
  "CCSD CORRELATION ENERGY"    =>      -0.227372475177
  "CCSD TOTAL ENERGY"          =>     -76.241251171489
  "CCSD(T) CORRELATION ENERGY" =>      -0.230476020612
  "CCSD(T) TOTAL ENERGY"       =>     -76.244354716924
  "CURRENT CORRELATION ENERGY" =>      -0.230476020612
  "CURRENT ENERGY"             =>     -76.244354716924
  "CURRENT REFERENCE ENERGY"   =>     -76.013878696312
  "MP2 CORRELATION ENERGY"     =>      -0.217565919969
  "MP2 OPPOSITE-SPIN ENERGY"   =>      -0.165494664217
  "MP2 SAME-SPIN ENERGY"       =>      -0.052071255752
  "MP2 TOTAL ENERGY"           =>     -76.231444616282
  "NUCLEAR REPULSION ENERGY"   =>       9.132048676400
  "SCF TOTAL ENERGY"           =>     -76.013878696312


  Irrep: 1 Size: 3 x 3

                 1            2            3

    1    0.0000000    0.0000000    0.0000001
    2    0.0000000   -0.0000007   -0.0000000
    3    0.0000000    0.0000007   -0.0000000




			-----------------------------------------
			 OPTKING 2.0: for geometry optimizations 
			  - R.A. King,  Bethel University        
			-----------------------------------------

	Previous internal coordinate definitions found.
	---Fragment 1 Geometry and Gradient---
	 O           0.0000000000        0.0000000000       -0.1276075417
	 H           0.0000000000       -1.4214556314        1.0126121447
	 H           0.0000000000        1.4214556314        1.0126121447
	             0.0000000000        0.0000000000        0.0000000546
	             0.0000000000       -0.0000006672       -0.0000000273
	             0.0000000000        0.0000006672       -0.0000000273

	---Fragment 1 Intrafragment Coordinates---
	 - Coordinate -           - BOHR/RAD -       - ANG/DEG -
	 R(1,2)           =         1.822262	       0.964299
	 R(1,3)           =         1.822262	       0.964299
	 B(2,1,3)         =         1.789492	     102.530361

	Current energy   :       -76.2443547169

	Energy change for the previous step:
		Projected    :        -0.0000000001
		Actual       :        -0.0000000001

	Performing BFGS update with previous 1 gradient(s).
	Denominators (dg)(dq) or (dq)(dq) are very small.
	 Skipping Hessian update for step 4.
	Going to follow RFO solution 1.
	Projected energy change by RFO approximation:        -0.0000000000

	Back-transformation to cartesian coordinates...
	Successfully converged to displaced geometry.

	---Internal Coordinate Step in ANG or DEG, aJ/ANG or AJ/DEG ---
	 ----------------------------------------------------------------------
	 Coordinate             Previous        Force       Change         New 
	 ----------             --------       ------       ------       ------
	 R(1,2)          =      0.964299    -0.000004    -0.000000     0.964299
	 R(1,3)          =      0.964299    -0.000004    -0.000000     0.964299
	 B(2,1,3)        =    102.530361    -0.000000    -0.000288   102.530073
	 ----------------------------------------------------------------------

  ==> Convergence Check <==

  Measures of convergence in internal coordinates in au.
  Criteria marked as inactive (o), active & met (*), and active & unmet ( ).
  ---------------------------------------------------------------------------------------------
   Step     Total Energy     Delta E     MAX Force     RMS Force      MAX Disp      RMS Disp   
  ---------------------------------------------------------------------------------------------
    Convergence Criteria    1.00e-06 *    3.00e-04 *    1.00e-06 *    1.20e-03 *             o
  ---------------------------------------------------------------------------------------------
      5     -76.24435472   -1.17e-10 *    8.00e-07 *    6.18e-07 *    5.03e-06 *    2.97e-06 o  ~
  ---------------------------------------------------------------------------------------------


  **** Optimization is complete! ****

  ==> Optimization Summary <==

  Measures of convergence in internal coordinates in au.
  --------------------------------------------------------------------------------------------------------------- ~
   Step         Total Energy             Delta E       MAX Force       RMS Force        MAX Disp        RMS Disp  ~
  --------------------------------------------------------------------------------------------------------------- ~
      1     -76.244205020359    -76.244205020359      0.00538653      0.00525711      0.03112594      0.01961563  ~
      2     -76.244351531545     -0.000146511186      0.00111495      0.00093954      0.00304730      0.00259985  ~
      3     -76.244354709503     -0.000003177958      0.00004532      0.00004367      0.00024139      0.00015272  ~
      4     -76.244354716807     -0.000000007304      0.00000603      0.00000462      0.00003793      0.00002236  ~
      5     -76.244354716924     -0.000000000117      0.00000080      0.00000062      0.00000503      0.00000297  ~
  --------------------------------------------------------------------------------------------------------------- ~

	Writing optimization data to binary file.
	Final energy is    -76.2443547169240
	Final (previous) structure:
	Cartesian Geometry (in Angstrom)
	    O     0.0000000000   0.0000000000  -0.0675270079
	    H     0.0000000000  -0.7522019806   0.5358513091
	    H     0.0000000000   0.7522019806   0.5358513091
	Saving final (previous) structure.
			--------------------------
			 OPTKING Finished Execution 
			--------------------------

    Final optimized geometry and variables:
    Molecular point group: c2v
    Full point group: C2v

    Geometry (in Angstrom), charge = 0, multiplicity = 1:

    O       
    H             1           R
    H             1           R      2           A

    A         =  102.5303607443
    R         =    0.9642992642


*** PSI4 exiting successfully. Buy a developer a beer!
