    -----------------------------------------------------------------------
          Psi4: An Open-Source Ab Initio Electronic Structure Package
                              Psi4 0.5 Driver

                          Git: Rev {master} dbe9080

    J. M. Turney, A. C. Simmonett, R. M. Parrish, E. G. Hohenstein,
    F. A. Evangelista, J. T. Fermann, B. J. Mintz, L. A. Burns, J. J. Wilke,
    M. L. Abrams, N. J. Russ, M. L. Leininger, C. L. Janssen, E. T. Seidl,
    W. D. Allen, H. F. Schaefer, R. A. King, E. F. Valeev, C. D. Sherrill,
    and T. D. Crawford, WIREs Comput. Mol. Sci. 2, 556-565 (2012)
    (doi: 10.1002/wcms.93)

                         Additional Contributions by
    A. E. DePrince, M. Saitow, U. Bozkaya, A. Yu. Sokolov
    -----------------------------------------------------------------------


    Psi4 started on: Mon Mar 14 15:31:46 2016

    Process ID:  13632
    PSI4DATADIR: /home/dsmith/Gits/dgas_psi/share
    Memory level set to 256.000 MB

  ==> Input File <==

--------------------------------------------------------------------------
#! ZAPT(n)/6-31G NH2 Energy Point, with n=2-25

memory 250 mb

# The following values are taken from PSI3 #TEST
refnuc   =   7.6466914045240 #TEST
refscf   = -55.5301768881550 #TEST
refci    = -55.6332640345465 #TEST
refcorr  = refci - refscf    #TEST

molecule nh2 {
    0 2
    N
    H 1 1.013
    H 1 1.013 2 103.2
}

set globals {
  reference rohf
  basis 6-31G
  frozen_docc [1, 0, 0, 0]
  # Use the ^2B1 state as the reference for this computation
  docc        [3, 0, 0, 1]
  socc        [0, 0, 1, 0]
}

thisenergy = energy('zapt25')

compare_values(refnuc, nh2.nuclear_repulsion_energy(), 9, "Nuclear repulsion energy") #TEST 
# Seems to be hard to match PSI3 for ROHF energies to more than 7 digits #TEST
compare_values(refscf, get_variable("SCF total energy"),     7, "SCF energy") #TEST
compare_values(refci, thisenergy,                      7, "ZAPT(25) energy") #TEST
compare_values(refcorr, get_variable("CURRENT CORRELATION ENERGY"), 7, "ZAPT(25) correlation energy") #TEST
--------------------------------------------------------------------------

  Memory set to 250.000 MiB by Python script.

*** tstart() called on ds1.sherrill.chemistry.gatech.edu
*** at Mon Mar 14 15:31:46 2016


         ---------------------------------------------------------
                                   SCF
            by Justin Turney, Rob Parrish, and Andy Simmonett
                             ROHF Reference
                        1 Threads,    250 MiB Core
         ---------------------------------------------------------

  ==> Geometry <==

    Molecular point group: c2v
    Full point group: C2v

    Geometry (in Angstrom), charge = 0, multiplicity = 2:

       Center              X                  Y                   Z               Mass       
    ------------   -----------------  -----------------  -----------------  -----------------
           N          0.000000000000     0.000000000000    -0.079175643018    14.003074004780
           H          0.000000000000    -0.793881472271     0.550047058404     1.007825032070
           H          0.000000000000     0.793881472271     0.550047058404     1.007825032070

  Running in c2v symmetry.

  Rotational constants: A =     24.16446  B =     13.26997  C =      8.56596 [cm^-1]
  Rotational constants: A = 724432.34024  B = 397823.76796  C = 256800.92193 [MHz]
  Nuclear repulsion =    7.646691404523985

  Charge       = 0
  Multiplicity = 2
  Electrons    = 9
  Nalpha       = 5
  Nbeta        = 4

  ==> Algorithm <==

  SCF Algorithm Type is PK.
  DIIS enabled.
  MOM disabled.
  Fractional occupation disabled.
  Guess Type is CORE.
  Energy threshold   = 1.00e-08
  Density threshold  = 1.00e-08
  Integral threshold = 0.00e+00

  ==> Primary Basis <==

  Basis Set: 6-31G
    Number of shells: 9
    Number of basis function: 13
    Number of Cartesian functions: 13
    Spherical Harmonics?: false
    Max angular momentum: 1

  ==> Pre-Iterations <==

   -------------------------------------------------------
    Irrep   Nso     Nmo     Nalpha   Nbeta   Ndocc  Nsocc
   -------------------------------------------------------
     A1         7       7       3       3       3       0
     A2         0       0       0       0       0       0
     B1         2       2       1       0       0       1
     B2         4       4       1       1       1       0
   -------------------------------------------------------
    Total      13      13       5       4       4       1
   -------------------------------------------------------

  ==> Integral Setup <==

	Batch   1 pq = [       0,      41] index = [             0,861]
  ==> DiskJK: Disk-Based J/K Matrices <==

    J tasked:                  Yes
    K tasked:                  Yes
    wK tasked:                  No
    Memory (MB):               178
    Schwarz Cutoff:          1E-12

  Minimum eigenvalue in the overlap matrix is 4.8140998283E-02.
  Using Symmetric Orthogonalization.
  SCF Guess: Core (One-Electron) Hamiltonian.

  ==> Iterations <==

                        Total Energy        Delta E     RMS |[F,P]|

   @ROHF iter   1:   -50.90921379051787   -5.09092e+01   1.79884e-01 
   @ROHF iter   2:   -52.92626313921752   -2.01705e+00   1.50091e-01 DIIS
   @ROHF iter   3:   -55.49586344322190   -2.56960e+00   1.91517e-02 DIIS
   @ROHF iter   4:   -55.52728036323231   -3.14169e-02   5.04823e-03 DIIS
   @ROHF iter   5:   -55.53011145643477   -2.83109e-03   5.23988e-04 DIIS
   @ROHF iter   6:   -55.53017089621471   -5.94398e-05   1.46995e-04 DIIS
   @ROHF iter   7:   -55.53017667643860   -5.78022e-06   4.49377e-05 DIIS
   @ROHF iter   8:   -55.53017688190592   -2.05467e-07   8.87947e-06 DIIS
   @ROHF iter   9:   -55.53017688810755   -6.20163e-09   9.16220e-07 DIIS
   @ROHF iter  10:   -55.53017688815408   -4.65263e-11   9.66254e-08 DIIS
   @ROHF iter  11:   -55.53017688815498   -8.95284e-13   1.07397e-08 DIIS
   @ROHF iter  12:   -55.53017688815499   -1.42109e-14   6.75900e-10 DIIS

  ==> Post-Iterations <==

    Orbital Energies (a.u.)
    -----------------------

    Doubly Occupied:                                                      

       1A1   -15.582026     2A1    -1.118806     1B2    -0.638291  
       3A1    -0.469620  

    Singly Occupied:                                                      

       1B1    -0.166077  

    Virtual:                                                              

       4A1     0.222025     2B2     0.308215     3B2     0.916350  
       2B1     0.949263     5A1     0.978394     6A1     1.168600  
       4B2     1.211191     7A1     1.353285  

    Final Occupation by Irrep:
             A1    A2    B1    B2 
    DOCC [     3,    0,    0,    1 ]
    SOCC [     0,    0,    1,    0 ]

  Energy converged.

  @ROHF Final Energy:   -55.53017688815499

   => Energetics <=

    Nuclear Repulsion Energy =              7.6466914045239847
    One-Electron Energy =                 -90.2325847239200840
    Two-Electron Energy =                  27.0557164312411089
    DFT Exchange-Correlation Energy =       0.0000000000000000
    Empirical Dispersion Energy =           0.0000000000000000
    PCM Polarization Energy =               0.0000000000000000
    EFP Energy =                            0.0000000000000000
    Total Energy =                        -55.5301768881549833

    Alert: EFP and PCM quantities not currently incorporated into SCF psivars.

Properties will be evaluated at   0.000000,   0.000000,   0.000000 Bohr
  ==> Properties <==


Properties computed using the SCF density matrix

  Nuclear Dipole Moment: (a.u.)
     X:     0.0000      Y:     0.0000      Z:     1.0315

  Electronic Dipole Moment: (a.u.)
     X:     0.0000      Y:     0.0000      Z:    -0.0585

  Dipole Moment: (a.u.)
     X:     0.0000      Y:     0.0000      Z:     0.9731     Total:     0.9731

  Dipole Moment: (Debye)
     X:     0.0000      Y:     0.0000      Z:     2.4733     Total:     2.4733


  Saving occupied orbitals to File 180.

*** tstop() called on ds1.sherrill.chemistry.gatech.edu at Mon Mar 14 15:31:46 2016
Module time:
	user time   =       0.02 seconds =       0.00 minutes
	system time =       0.01 seconds =       0.00 minutes
	total time  =          0 seconds =       0.00 minutes
Total time:
	user time   =       0.02 seconds =       0.00 minutes
	system time =       0.01 seconds =       0.00 minutes
	total time  =          0 seconds =       0.00 minutes

         ---------------------------------------------------------
                                 D E T C I  

                             C. David Sherrill
                             Matt L. Leininger
                               18 June 1999
         ---------------------------------------------------------

Warning: iopen=0,opentype!=closed. Making iopen=1

DETCI PARAMETERS: 
   EX LEVEL      =        7      H0 BLOCKSIZE =        1
   VAL EX LEVEL  =        0      H0 GUESS SIZE=        1
   H0COUPLINGSIZE=        0      H0 COUPLING  =       no
   MAXITER       =       12      NUM PRINT    =       20
   NUM ROOTS     =        1      ICORE        =        1
   PRINT         =        1      FCI          =      yes
   R CONV        = 1.00e-04      MIXED        =      yes
   E CONV        = 1.00e-06      MIXED4       =      yes
   OEI FILE      =       35      R4S          =       no
   REPL OTF      =       no
   TEI FILE      =       72      DIAG METHOD  =      SEM
   PRECONDITIONER= DAVIDSON      UPDATE       = DAVIDSON
   S             =   0.5000      Ms0          =       no
   MAX NUM VECS  =       13
   RESTART       =       no
   GUESS VECTOR  =     UNIT      OPENTYPE     = HIGHSPIN
   REF SYM       =     auto
   COLLAPSE SIZE =        1      HD AVG       = ORB_ENER
   LSE           =       no      LSE ITER     =        0
   HD OTF        =      yes      NO DFILE     =      yes
   MPN           =      yes      MPN SCHMIDT  =       no
   ZAPTN         =      yes      MPN WIGNER   =      yes
   PERT Z        =   1.0000      FOLLOW ROOT  =        0
   NUM THREADS   =        1
   VECS WRITE    =       no      NUM VECS WRITE =      0
   FILTER GUESS  =       no      SF RESTRICT  =       no
   OPDM          =       no      TRANS DENSITY=       no

   FILES         =  50 51 52 53

   EX ALLOW      =  1  1  1  1  1  1  1 
   STATE AVERAGE =  1(1.00) 

ORBITALS:
   NMO          =       13
   FROZEN CORE  =        1      RESTR CORE   =        0
   FROZEN VIRT  =        0      RESTR VIRT   =        0
   DROPPED CORE =        1      DROPPED VIRT =        0
   EXPLICIT CORE=        0      ORBS IN CI   =       12
   NUM ALP      =        5      NUM BET      =        4
   NUM ALP EXPL =        4      NUM BET EXPL =        3
   IOPEN        =      yes

   DOCC            =   3   0   0   1 
   SOCC            =   0   0   1   0 

   FROZEN DOCC     =   1   0   0   0 
   RESTRICTED DOCC =   0   0   0   0 
   ACTIVE          =   6   0   2   4 
   RESTRICTED UOCC =   0   0   0   0 
   FROZEN UOCC     =   0   0   0   0 
         ---------------------------------------------------------


   ==> Setting up CI strings <==

   There are 495 alpha and 220 beta strings
   The CI space requires 27126 (2.71E+04) determinants and 64 blocks


   ==> Transforming CI integrals <==
	Presorting SO-basis two-electron integrals.
	Sorting File: SO Ints (nn|nn) nbuckets = 1
	Transforming the one-electron integrals and constructing Fock matrices
	Starting first half-transformation.
	Sorting half-transformed integrals.
	First half integral transformation complete.
	Starting second half-transformation.
	Two-electron integral transformation complete.
 orb_energy[0] = -15.582026
   CalcInfo_->escf =       -55.530176888154990
   CalcInfo_->e0   =       -36.121151864627137
   CalcInfo_->enuc =         7.646691404523985
   CalcInfo_->e1   =       -27.055716428051838

   n         Corr. Energy                  E(ZAPTn)             n         Corr. Energy                  E(ZAPTn)

   0          0.000000000000000       -28.474460460103153
   1        -27.055716428051838       -55.530176888154990
   1        -27.055716428051824       -55.530176888154976
   2         -0.086734353270391       -55.616911241425385       2        -0.086734353270391       -55.616911241425385
                                                                3        -0.010596148873749       -55.627507390299137
   3         -0.010596148873749       -55.627507390299137       4        -0.003721979668978       -55.631229369968118
                                                                5        -0.001211239333684       -55.632440609301803
   4         -0.003721979668978       -55.631229369968118       6        -0.000451781068986       -55.632892390370792
                                                                7        -0.000183906487159       -55.633076296857951
   5         -0.001211239333684       -55.632440609301803       8        -0.000086106990291       -55.633162403848239
                                                                9        -0.000042708258048       -55.633205112106289
   6         -0.000451781068986       -55.632892390370792      10        -0.000023287886516       -55.633228399992802
                                                               11        -0.000013345752361       -55.633241745745160
   7         -0.000183906487159       -55.633076296857951      12        -0.000008063431680       -55.633249809176839
                                                               13        -0.000005011086160       -55.633254820262998
   8         -0.000086106990291       -55.633162403848239      14        -0.000003193298492       -55.633258013561488
                                                               15        -0.000002063431454       -55.633260076992940
   9         -0.000042708258048       -55.633205112106289      16        -0.000001349356226       -55.633261426349165
                                                               17        -0.000000889105945       -55.633262315455113
  10         -0.000023287886516       -55.633228399992802      18        -0.000000589818468       -55.633262905273583
                                                               19        -0.000000393312672       -55.633263298586257
  11         -0.000013345752361       -55.633241745745160      20        -0.000000263572488       -55.633263562158746
                                                               21        -0.000000177413269       -55.633263739572016
  12         -0.000008063431680       -55.633249809176839      22        -0.000000119945858       -55.633263859517875
                                                               23        -0.000000081442812       -55.633263940960688
  13         -0.000005011086160       -55.633254820262998      24        -0.000000055541384       -55.633263996502073
                                                               25        -0.000000038044449       -55.633264034546521

ZAPT25 energy saved

EZAPTn = -55.6332640345465

		 "A good bug is a dead bug" 

			 - Starship Troopers

		 "I didn't write FORTRAN.  That's the problem."

			 - Edward Valeev

	Nuclear repulsion energy..........................................PASSED
	SCF energy........................................................PASSED
	ZAPT(25) energy...................................................PASSED
	ZAPT(25) correlation energy.......................................PASSED

*** PSI4 exiting successfully. Buy a developer a beer!
