
    -----------------------------------------------------------------------
          Psi4: An Open-Source Ab Initio Electronic Structure Package
                               Psi4 undefined 

                         Git: Rev {sto-ng} 7a76e79 


    D. G. A. Smith, L. A. Burns, A. C. Simmonett, R. M. Parrish,
    M. C. Schieber, R. Galvelis, P. Kraus, H. Kruse, R. Di Remigio,
    A. Alenaizan, A. M. James, S. Lehtola, J. P. Misiewicz, M. Scheurer,
    R. A. Shaw, J. B. Schriber, Y. Xie, Z. L. Glick, D. A. Sirianni,
    J. S. O'Brien, J. M. Waldrop, A. Kumar, E. G. Hohenstein,
    B. P. Pritchard, B. R. Brooks, H. F. Schaefer III, A. Yu. Sokolov,
    K. Patkowski, A. E. DePrince III, U. Bozkaya, R. A. King,
    F. A. Evangelista, J. M. Turney, T. D. Crawford, C. D. Sherrill,
    J. Chem. Phys. 152(18) 184108 (2020). https://doi.org/10.1063/5.0006002

                            Additional Code Authors
    E. T. Seidl, C. L. Janssen, E. F. Valeev, M. L. Leininger,
    J. F. Gonthier, R. M. Richard, H. R. McAlexander, M. Saitow, X. Wang,
    P. Verma, and M. H. Lechner

             Previous Authors, Complete List of Code Contributors,
                       and Citations for Specific Modules
    https://github.com/psi4/psi4/blob/master/codemeta.json
    https://github.com/psi4/psi4/graphs/contributors
    http://psicode.org/psi4manual/master/introduction.html#citing-psifour

    -----------------------------------------------------------------------


    Psi4 started on: Saturday, 03 July 2021 12:48AM

    Process ID: 116729
    Host:       thinkpad
    PSIDATADIR: /home/work/psi4/install/share/psi4
    Memory:     500.0 MiB
    Threads:    4
    
  ==> Input File <==

--------------------------------------------------------------------------
#! A test of the basis specification.  A benzene atom is defined using a ZMatrix containing dummy atoms
#! and various basis sets are assigned to different atoms.  The symmetry of the molecule is automatically
#! lowered to account for the different basis sets.

refnuc =  204.01995818061    #TEST
refscf = -228.95763005664    #TEST

molecule bz {
    X
    X   1  RXX
    X   2  RXX  1  90.0
    C   3  RCC  2  90.0  1   0.0
    C   3  RCC  2  90.0  1  60.0
    C1  3  RCC  2  90.0  1 120.0
    C   3  RCC  2  90.0  1 180.0
    C1  3  RCC  2  90.0  1 240.0
    C   3  RCC  2  90.0  1 300.0
    H1  3  RCH  2  90.0  1   0.0
    H   3  RCH  2  90.0  1  60.0
    H   3  RCH  2  90.0  1 120.0
    H1  3  RCH  2  90.0  1 180.0
    H   3  RCH  2  90.0  1 240.0
    H   3  RCH  2  90.0  1 300.0

    RCC  = 1.3915
    RCH  = 2.4715
    RXX  = 1.00
}

# Here we specify some of the basis sets manually.  They could be written to one or more external
# files and included by adding the directory to environment variable PSIPATH
#
# The format of these external files follows the same format as those below, where there's a [name]
# tag before the standard G94 basis set specification:

# [DZ]
# spherical
# ****
# H     0 
# S   3   1.00
#      19.2406000              0.0328280        
#       2.8992000              0.2312080        
#       0.6534000              0.8172380        
# S   1   1.00
#       0.1776000              1.0000000        
# ****
# C     0
# definition of carbon atom DZ basis...
# ****
# Any more atoms needed...
# ****

# The keywords cartesian or spherical are optional and provide default behavior if the
# puream keyword is not set. In basis strings, like below, multiple basis sets can appear, as long
# as there is a [name] tag above the definition of each basis set. The basis sets specified
# using either basis <opt_name> {...} are utilized first (in the order specified
# in the input file). Any remaining basis sets required are extracted from the built-in library,
# if they exist, or an error message is printed.
basis  {
#
# We start by assigning basis sets to atoms.  These commands can go anywhere in the basis block
#
   # First, assign DZ to all atoms
   assign DZ
   # Now, assign 3-21G to all carbon atoms
   assign C my3-21G
   # The two atoms labelled H1 get a STO-3G basis two
   assign H1 sto-3g
   # Carbons 3 and 5 get a STO-3G basis, too
   assign C1 sto-3g
   # With all these in place, the symmetry is lowered to C2v automatically
   # The commands are applied in order i.e., adding a line like
   # assign cc-pvtz
   # here would override all of the above and assign cc-pvtz to all atoms

#
# Now we define the basis sets.  N.B. Indentation does not matter; it just looks prettier.
#
    [my3-21G] #This is really the standard 3-21G basis, but with a different name
    cartesian
    ****
    H     0
    S   2   1.00
          5.4471780              0.1562850
          0.8245470              0.9046910
    S   1   1.00
          0.1831920              1.0000000
    ****
    C     0
    S   3   1.00
        172.2560000              0.0617669
         25.9109000              0.3587940
          5.5333500              0.7007130
    SP   2   1.00
          3.6649800             -0.3958970              0.2364600
          0.7705450              1.2158400              0.8606190
    SP   1   1.00
          0.1958570              1.0000000              1.0000000
    ****
    [DZ]
    spherical
    ****
    H     0 
    S   3   1.00
         19.2406000              0.0328280        
          2.8992000              0.2312080        
          0.6534000              0.8172380        
    S   1   1.00
          0.1776000              1.0000000        
    ****
}

 
set d_convergence 11
set e_convergence 11
set scf_type pk
 
scfenergy = energy('scf')

compare_strings("c2v", bz.schoenflies_symbol(), "Point group")                        #TEST
compare_values(refnuc, bz.nuclear_repulsion_energy(), 10, "Nuclear repulsion energy") #TEST
compare_values(refscf, scfenergy, 9, "SCF Energy")                                   #TEST
--------------------------------------------------------------------------

Scratch directory: /home/work/scratch/

*** tstart() called on thinkpad
*** at Sat Jul  3 00:48:31 2021

   => Loading Basis Set <=

    Name: ANONYMOUSAA55E4EF
    Role: ORBITAL
    Keyword: BASIS
    atoms 1-2, 4, 6  entry C          line    12 inputblock my3-21g 
    atoms 3, 5       entry C          line    59 file /home/work/psi4/install/share/psi4/basis/sto-3g.gbs 
    atoms 7, 10      entry H          line    17 file /home/work/psi4/install/share/psi4/basis/sto-3g.gbs 
    atoms 8-9, 11-12 entry H          line     5 inputblock dz 


         ---------------------------------------------------------
                                   SCF
               by Justin Turney, Rob Parrish, Andy Simmonett
                          and Daniel G. A. Smith
                              RHF Reference
                        4 Threads,    500 MiB Core
         ---------------------------------------------------------

  ==> Geometry <==

    Molecular point group: c2v
    Full point group: D6h

    Geometry (in Angstrom), charge = 0, multiplicity = 1:

       Center              X                  Y                   Z               Mass       
    ------------   -----------------  -----------------  -----------------  -----------------
         C            0.000000000000     0.000000000000    -1.391500000000    12.000000000000
         C            1.205074349366     0.000000000000    -0.695750000000    12.000000000000
         C            1.205074349366     0.000000000000     0.695750000000    12.000000000000
         C            0.000000000000    -0.000000000000     1.391500000000    12.000000000000
         C           -1.205074349366    -0.000000000000     0.695750000000    12.000000000000
         C           -1.205074349366    -0.000000000000    -0.695750000000    12.000000000000
         H           -0.000000000000     0.000000000000    -2.471500000000     1.007825032230
         H            2.140381785453     0.000000000000    -1.235750000000     1.007825032230
         H            2.140381785453     0.000000000000     1.235750000000     1.007825032230
         H            0.000000000000     0.000000000000     2.471500000000     1.007825032230
         H           -2.140381785453    -0.000000000000     1.235750000000     1.007825032230
         H           -2.140381785453    -0.000000000000    -1.235750000000     1.007825032230

  Running in c2v symmetry.

  Rotational constants: A =      0.19119  B =      0.19119  C =      0.09559 [cm^-1]
  Rotational constants: A =   5731.60181  B =   5731.60181  C =   2865.80091 [MHz]
  Nuclear repulsion =  204.019958180606807

  Charge       = 0
  Multiplicity = 1
  Electrons    = 42
  Nalpha       = 21
  Nbeta        = 21

  ==> Algorithm <==

  SCF Algorithm Type is PK.
  DIIS enabled.
  MOM disabled.
  Fractional occupation disabled.
  Guess Type is SAD.
  Energy threshold   = 1.00e-11
  Density threshold  = 1.00e-11
  Integral threshold = 1.00e-12

  ==> Primary Basis <==

  Basis Set: ANONYMOUSAA55E4EF
    Blend: DZ + MY3-21G + STO-3G
    Number of shells: 36
    Number of basis functions: 56
    Number of Cartesian functions: 56
    Spherical Harmonics?: true
    Max angular momentum: 1

  ==> Integral Setup <==

  Using in-core PK algorithm.
   Calculation information:
      Number of atoms:                  12
      Number of AO shells:              36
      Number of primitives:             76
      Number of atomic orbitals:        56
      Number of basis functions:        56

      Integral cutoff                 1.00e-12
      Number of threads:                 4

  Performing in-core PK
  Using 2548812 doubles for integral storage.
  We computed 216755 shell quartets total.
  Whereas there are 222111 unique shell quartets.

  ==> DiskJK: Disk-Based J/K Matrices <==

    J tasked:                  Yes
    K tasked:                  Yes
    wK tasked:                  No
    Memory [MiB]:              375
    Schwarz Cutoff:          1E-12

    OpenMP threads:              4

  Minimum eigenvalue in the overlap matrix is 8.4628143509E-03.
  Reciprocal condition number of the overlap matrix is 2.1723296341E-03.
    Using symmetric orthogonalization.

  ==> Pre-Iterations <==

  SCF Guess: Superposition of Atomic Densities via on-the-fly atomic UHF (no occupation information).

   -------------------------
    Irrep   Nso     Nmo    
   -------------------------
     A1        27      27 
     A2         3       3 
     B1        19      19 
     B2         7       7 
   -------------------------
    Total      56      56
   -------------------------

  ==> Iterations <==

                        Total Energy        Delta E     RMS |[F,P]|

   @RHF iter SAD:  -227.07700569072060   -2.27077e+02   0.00000e+00 
   @RHF iter   1:  -228.85064914350966   -1.77364e+00   1.23612e-02 DIIS
   @RHF iter   2:  -228.93176216773884   -8.11130e-02   6.48225e-03 DIIS
   @RHF iter   3:  -228.95695890598063   -2.51967e-02   8.58972e-04 DIIS
   @RHF iter   4:  -228.95755047000031   -5.91564e-04   3.33519e-04 DIIS
   @RHF iter   5:  -228.95762540828119   -7.49383e-05   4.81701e-05 DIIS
   @RHF iter   6:  -228.95762902593819   -3.61766e-06   1.95334e-05 DIIS
   @RHF iter   7:  -228.95762980236594   -7.76428e-07   9.55915e-06 DIIS
   @RHF iter   8:  -228.95763003901536   -2.36649e-07   2.81189e-06 DIIS
   @RHF iter   9:  -228.95763005502459   -1.60092e-08   9.05013e-07 DIIS
   @RHF iter  10:  -228.95763005649678   -1.47219e-09   2.76343e-07 DIIS
   @RHF iter  11:  -228.95763005663412   -1.37334e-10   3.08287e-08 DIIS
   @RHF iter  12:  -228.95763005663559   -1.47793e-12   6.13490e-09 DIIS
   @RHF iter  13:  -228.95763005663534    2.55795e-13   9.27302e-10 DIIS
   @RHF iter  14:  -228.95763005663520    1.42109e-13   2.16847e-10 DIIS
   @RHF iter  15:  -228.95763005663534   -1.42109e-13   6.92110e-11 DIIS
   @RHF iter  16:  -228.95763005663531    2.84217e-14   1.10872e-11 DIIS
   @RHF iter  17:  -228.95763005663497    3.41061e-13   2.81293e-12 DIIS
  Energy and wave function converged.


  ==> Post-Iterations <==

    Orbital Energies [Eh]
    ---------------------

    Doubly Occupied:                                                      

       1A1   -11.177241     2A1   -11.168840     1B1   -11.162775  
       3A1   -11.162535     4A1   -11.103895     2B1   -11.103869  
       5A1    -1.147257     3B1    -1.008852     6A1    -1.006576  
       4B1    -0.818283     7A1    -0.815338     8A1    -0.709077  
       9A1    -0.632936     5B1    -0.614329    10A1    -0.583773  
       6B1    -0.583683     1B2    -0.501267    11A1    -0.483426  
       7B1    -0.483356     2B2    -0.335289     1A2    -0.327204  

    Virtual:                                                              

       3B2     0.162832     2A2     0.213416    12A1     0.292494  
       8B1     0.332635    13A1     0.413957     9B1     0.421371  
       4B2     0.434998    14A1     0.494222    10B1     0.561474  
      15A1     0.640665    11B1     0.641147    16A1     0.719329  
      17A1     0.778387    12B1     0.817494    18A1     0.926250  
       5B2     0.975220    19A1     0.980068    13B1     0.984153  
      20A1     1.047356    14B1     1.049231     6B2     1.062251  
       3A2     1.075311    15B1     1.109496     7B2     1.126047  
      21A1     1.132726    22A1     1.218990    16B1     1.359622  
      17B1     1.439471    23A1     1.448646    24A1     1.595716  
      18B1     1.623930    25A1     1.736683    26A1     1.815438  
      19B1     1.870964    27A1     2.205791  

    Final Occupation by Irrep:
             A1    A2    B1    B2 
    DOCC [    11,    1,    7,    2 ]

  @RHF Final Energy:  -228.95763005663497

   => Energetics <=

    Nuclear Repulsion Energy =            204.0199581806068068
    One-Electron Energy =                -712.0955747105474529
    Two-Electron Energy =                 279.1179864733056775
    Total Energy =                       -228.9576300566349687

Computation Completed


Properties will be evaluated at   0.000000,   0.000000,   0.000000 [a0]

Properties computed using the SCF density matrix

  Nuclear Dipole Moment: [e a0]
     X:     0.0000      Y:     0.0000      Z:     0.0000

  Electronic Dipole Moment: [e a0]
     X:     0.0000      Y:     0.0000      Z:     0.2124

  Dipole Moment: [e a0]
     X:     0.0000      Y:     0.0000      Z:     0.2124     Total:     0.2124

  Dipole Moment: [D]
     X:     0.0000      Y:     0.0000      Z:     0.5400     Total:     0.5400


*** tstop() called on thinkpad at Sat Jul  3 00:48:31 2021
Module time:
	user time   =       2.18 seconds =       0.04 minutes
	system time =       0.04 seconds =       0.00 minutes
	total time  =          0 seconds =       0.00 minutes
Total time:
	user time   =       2.18 seconds =       0.04 minutes
	system time =       0.04 seconds =       0.00 minutes
	total time  =          0 seconds =       0.00 minutes
    Point group...........................................................................PASSED
    Nuclear repulsion energy..............................................................PASSED
    SCF Energy............................................................................PASSED

    Psi4 stopped on: Saturday, 03 July 2021 12:48AM
    Psi4 wall time for execution: 0:00:00.63

*** Psi4 exiting successfully. Buy a developer a beer!
