    -----------------------------------------------------------------------
          Psi4: An Open-Source Ab Initio Electronic Structure Package
                              Psi4 0.5 Driver

                          Git: Rev {master} dbe9080

    J. M. Turney, A. C. Simmonett, R. M. Parrish, E. G. Hohenstein,
    F. A. Evangelista, J. T. Fermann, B. J. Mintz, L. A. Burns, J. J. Wilke,
    M. L. Abrams, N. J. Russ, M. L. Leininger, C. L. Janssen, E. T. Seidl,
    W. D. Allen, H. F. Schaefer, R. A. King, E. F. Valeev, C. D. Sherrill,
    and T. D. Crawford, WIREs Comput. Mol. Sci. 2, 556-565 (2012)
    (doi: 10.1002/wcms.93)

                         Additional Contributions by
    A. E. DePrince, M. Saitow, U. Bozkaya, A. Yu. Sokolov
    -----------------------------------------------------------------------


    Psi4 started on: Mon Mar 14 15:12:21 2016

    Process ID:   7228
    PSI4DATADIR: /home/dsmith/Gits/dgas_psi/share
    Memory level set to 256.000 MB

  ==> Input File <==

--------------------------------------------------------------------------
#! OMP2 cc-pVDZ energy for the H2O molecule.

refnuc      =  9.18738642147759 #TEST
refscf      = -76.02671607958911 #TEST
refomp2     = -76.22932075806726 #TEST

memory 256 mb

molecule h2o {
0 1
o
h 1 0.958
h 1 0.958 2 104.4776 
}

set {
  basis cc-pvdz
  guess sad
  freeze_core true
  scf_type cd
  mp2_type cd
}
energy('omp2')

compare_values(refnuc, get_variable("NUCLEAR REPULSION ENERGY"), 6, "Nuclear Repulsion Energy (a.u.)");  #TEST
compare_values(refscf, get_variable("SCF TOTAL ENERGY"), 6, "CD-HF Energy (a.u.)");                        #TEST
compare_values(refomp2, get_variable("OMP2 TOTAL ENERGY"), 6, "CD-OMP2 Total Energy (a.u.)");               #TEST


--------------------------------------------------------------------------

  Memory set to 256.000 MiB by Python script.
  A requested method does not make use of molecular symmetry: further calculations in C1 point group.

*** tstart() called on ds1.sherrill.chemistry.gatech.edu
*** at Mon Mar 14 15:12:21 2016


         ---------------------------------------------------------
                                   SCF
            by Justin Turney, Rob Parrish, and Andy Simmonett
                              RHF Reference
                        1 Threads,    256 MiB Core
         ---------------------------------------------------------

  ==> Geometry <==

    Molecular point group: c1
    Full point group: C2v

    Geometry (in Angstrom), charge = 0, multiplicity = 1:

       Center              X                  Y                   Z               Mass       
    ------------   -----------------  -----------------  -----------------  -----------------
           O          0.000000000000     0.000000000000    -0.065655108074    15.994914619560
           H          0.000000000000    -0.757365949175     0.520997104936     1.007825032070
           H          0.000000000000     0.757365949175     0.520997104936     1.007825032070

  Running in c1 symmetry.

  Rotational constants: A =     27.36310  B =     14.58041  C =      9.51197 [cm^-1]
  Rotational constants: A = 820325.16776  B = 437109.76453  C = 285161.58706 [MHz]
  Nuclear repulsion =    9.187386421477591

  Charge       = 0
  Multiplicity = 1
  Electrons    = 10
  Nalpha       = 5
  Nbeta        = 5

  ==> Algorithm <==

  SCF Algorithm Type is CD.
  DIIS enabled.
  MOM disabled.
  Fractional occupation disabled.
  Guess Type is SAD.
  Energy threshold   = 1.00e-08
  Density threshold  = 1.00e-08
  Integral threshold = 0.00e+00

  ==> Primary Basis <==

  Basis Set: CC-PVDZ
    Number of shells: 12
    Number of basis function: 24
    Number of Cartesian functions: 25
    Spherical Harmonics?: true
    Max angular momentum: 2

  ==> Pre-Iterations <==

   -------------------------------------------------------
    Irrep   Nso     Nmo     Nalpha   Nbeta   Ndocc  Nsocc
   -------------------------------------------------------
     A         24      24       0       0       0       0
   -------------------------------------------------------
    Total      24      24       5       5       5       0
   -------------------------------------------------------

  ==> Integral Setup <==

  ==> CDJK: Cholesky-decomposed J/K Matrices <==

    J tasked:                     Yes
    K tasked:                     Yes
    wK tasked:                     No
    OpenMP threads:                 1
    Integrals threads:              1
    Memory (MB):                  183
    Algorithm:                   Core
    Integral Cache:              SAVE
    Schwarz Cutoff:             1E-12
    Cholesky tolerance:      1.00E-04
    No. Cholesky vectors:         121

  Minimum eigenvalue in the overlap matrix is 3.4230868664E-02.
  Using Symmetric Orthogonalization.
  SCF Guess: Superposition of Atomic Densities via on-the-fly atomic UHF.

  ==> Iterations <==

                        Total Energy        Delta E     RMS |[F,P]|

   @RHF iter   0:   -75.96964334058612   -7.59696e+01   7.01148e-02 
   @RHF iter   1:   -75.99762055670411   -2.79772e-02   1.08146e-02 
   @RHF iter   2:   -76.02041430243438   -2.27937e-02   5.24319e-03 DIIS
   @RHF iter   3:   -76.02618018554082   -5.76588e-03   9.36639e-04 DIIS
   @RHF iter   4:   -76.02663425792758   -4.54072e-04   2.89874e-04 DIIS
   @RHF iter   5:   -76.02670902325860   -7.47653e-05   7.71532e-05 DIIS
   @RHF iter   6:   -76.02671592692400   -6.90367e-06   1.18993e-05 DIIS
   @RHF iter   7:   -76.02671607743829   -1.50514e-07   1.52667e-06 DIIS
   @RHF iter   8:   -76.02671607947829   -2.04000e-09   3.53212e-07 DIIS
   @RHF iter   9:   -76.02671607958555   -1.07264e-10   6.46087e-08 DIIS
   @RHF iter  10:   -76.02671607958879   -3.24007e-12   1.54769e-08 DIIS
   @RHF iter  11:   -76.02671607958902   -2.27374e-13   2.39130e-09 DIIS

  ==> Post-Iterations <==

    Orbital Energies (a.u.)
    -----------------------

    Doubly Occupied:                                                      

       1A    -20.550545     2A     -1.336327     3A     -0.698818  
       4A     -0.566526     5A     -0.493098  

    Virtual:                                                              

       6A      0.185476     7A      0.256186     8A      0.788758  
       9A      0.853844    10A      1.163816    11A      1.200378  
      12A      1.253470    13A      1.444403    14A      1.476194  
      15A      1.674346    16A      1.867781    17A      1.934382  
      18A      2.451140    19A      2.488687    20A      3.285197  
      21A      3.338070    22A      3.509830    23A      3.865112  
      24A      4.147187  

    Final Occupation by Irrep:
              A 
    DOCC [     5 ]

  Energy converged.

  @RHF Final Energy:   -76.02671607958902

   => Energetics <=

    Nuclear Repulsion Energy =              9.1873864214775907
    One-Electron Energy =                -123.1375762655963229
    Two-Electron Energy =                  37.9234737645297173
    DFT Exchange-Correlation Energy =       0.0000000000000000
    Empirical Dispersion Energy =           0.0000000000000000
    PCM Polarization Energy =               0.0000000000000000
    EFP Energy =                            0.0000000000000000
    Total Energy =                        -76.0267160795890220

    Alert: EFP and PCM quantities not currently incorporated into SCF psivars.

Properties will be evaluated at   0.000000,   0.000000,   0.000000 Bohr
  ==> Properties <==


Properties computed using the SCF density matrix

  Nuclear Dipole Moment: (a.u.)
     X:     0.0000      Y:     0.0000      Z:     0.9765

  Electronic Dipole Moment: (a.u.)
     X:     0.0000      Y:    -0.0000      Z:    -0.1670

  Dipole Moment: (a.u.)
     X:     0.0000      Y:    -0.0000      Z:     0.8095     Total:     0.8095

  Dipole Moment: (Debye)
     X:     0.0000      Y:    -0.0000      Z:     2.0576     Total:     2.0576


  Saving occupied orbitals to File 180.

*** tstop() called on ds1.sherrill.chemistry.gatech.edu at Mon Mar 14 15:12:22 2016
Module time:
	user time   =       0.23 seconds =       0.00 minutes
	system time =       0.01 seconds =       0.00 minutes
	total time  =          1 seconds =       0.02 minutes
Total time:
	user time   =       0.23 seconds =       0.00 minutes
	system time =       0.01 seconds =       0.00 minutes
	total time  =          1 seconds =       0.02 minutes

*** tstart() called on ds1.sherrill.chemistry.gatech.edu
*** at Mon Mar 14 15:12:22 2016



  Options:
  ----------------------------------------------------------------------------
  ACTIVE                      => [  ]             
  BENCH                       => 0                
  CC_DIIS_MAX_VECS            => 6                
  CC_DIIS_MIN_VECS            => 2                
  CC_LAMBDA                   => FALSE            
  CC_MAXITER                  => 50               
  CC_TYPE                     => CONV             
  CHOLESKY                    => TRUE            !
  CHOLESKY_TOLERANCE          => 0.0001           
  CI_TYPE                     => CONV             
  COMPUT_S2                   => FALSE            
  CUBEPROP_BASIS_FUNCTIONS    => [  ]             
  CUBEPROP_FILEPATH           => .                
  CUBEPROP_ORBITALS           => [  ]             
  CUBEPROP_TASKS              => [  ]             
  CUBIC_BASIS_TOLERANCE       => 1e-12            
  CUBIC_BLOCK_MAX_POINTS      => 1000             
  CUBIC_GRID_OVERAGE          => [  ]             
  CUBIC_GRID_SPACING          => [  ]             
  CUTOFF                      => 8                
  DEBUG                       => 0                
  DERTYPE                     => NONE             
  DF_BASIS_CC                 => (empty)          
  DIE_IF_NOT_CONVERGED        => TRUE             
  DKH_ORDER                   => 2                
  DOCC                        => [  ]             
  DO_DIIS                     => TRUE             
  DO_LEVEL_SHIFT              => TRUE             
  DO_SCS                      => FALSE           !
  DO_SOS                      => FALSE           !
  E3_SCALE                    => 0.25             
  EKT_IP                      => FALSE            
  EXTERNAL_POTENTIAL_SYMMETRY => FALSE            
  E_CONVERGENCE               => 1e-06           !
  FREEZE_CORE                 => TRUE            !
  FROZEN_DOCC                 => [  ]             
  FROZEN_UOCC                 => [  ]             
  HESS_TYPE                   => HF               
  INTEGRAL_CUTOFF             => 9                
  INTEGRAL_PACKAGE            => ERD              
  LEVEL_SHIFT                 => 0.02             
  LINEQ_SOLVER                => CDGESV           
  LITERAL_CFOUR               => (empty)          
  MAT_NUM_COLUMN_PRINT        => 5                
  MAX_MOGRAD_CONVERGENCE      => 0.001            
  MOLDEN_WRITE                => FALSE            
  MO_DIIS_NUM_VECS            => 6                
  MO_MAXITER                  => 50               
  MO_STEP_MAX                 => 0.5              
  MP2_AMP_TYPE                => DIRECT           
  MP2_OS_SCALE                => 1.2              
  MP2_SOS_SCALE               => 1.3              
  MP2_SOS_SCALE2              => 1.2              
  MP2_SS_SCALE                => 0.333333         
  MP2_TYPE                    => CD              !
  MP_TYPE                     => CONV             
  NAT_ORBS                    => FALSE            
  NUM_FROZEN_DOCC             => 0                
  NUM_FROZEN_UOCC             => 0                
  OCC_ORBS_PRINT              => FALSE            
  OEPROP                      => FALSE            
  OO_SCALE                    => 0.01             
  OPT_METHOD                  => QNR              
  ORB_OPT                     => TRUE            !
  ORB_RESP_SOLVER             => PCG              
  ORTH_TYPE                   => MGS              
  PCG_BETA_TYPE               => FLETCHER_REEVES  
  PCG_CONVERGENCE             => 1e-06            
  PCG_MAXITER                 => 50               
  PCM                         => FALSE            
  PCM_SCF_TYPE                => TOTAL            
  PRINT                       => 1                
  PRINT_NOONS                 => 3                
  PROPERTIES                  => [  ]             
  PROPERTIES_ORIGIN           => [  ]             
  PUREAM                      => TRUE             
  QCHF                        => FALSE            
  QC_MODULE                   => (empty)          
  RAS1                        => [  ]             
  RAS2                        => [  ]             
  RAS3                        => [  ]             
  RAS4                        => [  ]             
  READ_SCF_3INDEX             => TRUE             
  REGULARIZATION              => FALSE            
  REG_PARAM                   => 0.4              
  RELATIVISTIC                => NO               
  REL_BASIS                   => (empty)          
  RESTRICTED_DOCC             => [  ]             
  RESTRICTED_UOCC             => [  ]             
  RMS_MOGRAD_CONVERGENCE      => 1e-06            
  RUN_CCTRANSORT              => TRUE             
  R_CONVERGENCE               => 1e-05            
  SCS_TYPE                    => SCS              
  SOCC                        => [  ]             
  SOS_TYPE                    => SOS              
  TRIPLES_IABC_TYPE           => DISK             
  UNITS                       => ANGSTROMS        
  WABEF_TYPE                  => AUTO             
  WFN                         => SCF              
  WFN_TYPE                    => DF-OMP2         !
  WRITER_FILE_LABEL           => (empty)          


 ============================================================================== 
 ============================================================================== 
 ============================================================================== 

                      CD-OMP2 (CD-OO-MP2)   
              Program Written by Ugur Bozkaya
              Latest Revision February 19, 2016

 ============================================================================== 
 ============================================================================== 
 ============================================================================== 

	RMS orbital gradient is changed to :     1.00e-04
	MAX orbital gradient is changed to :     1.00e-03
	MO spaces... 

	 FC   OCC   VIR   FV 
	----------------------
	  1    4    19    0
	Reading Cholesky vectors from disk ...
	Cholesky decomposition threshold: 1.00e-04
	Number of Cholesky vectors:     121

	Computing CD-MP2 energy using SCF MOs (Canonical CD-MP2)... 
	======================================================================= 
	Nuclear Repulsion Energy (a.u.)    :     9.18738642147759
	CD-HF Energy (a.u.)                :   -76.02671607958902
	REF Energy (a.u.)                  :   -76.02671607958902
	CD-MP2 Correlation Energy (a.u.)   :    -0.20167115924923
	CD-MP2 Total Energy (a.u.)         :   -76.22838723883825
	======================================================================= 

	Number of independent-pairs:  99

 ============================================================================== 
 ================ Performing CD-OMP2 iterations... ============================ 
 ============================================================================== 
	            Minimizing CD-MP2-L Functional 
	            ------------------------------ 
 Iter       E_total           DE           RMS MO Grad      MAX MO Grad      RMS T2    
 ----    ---------------    ----------     -----------      -----------     ---------- 
   1     -76.2292843594     -8.97e-04       9.73e-04         5.19e-03        3.42e-05 
   2     -76.2293142008     -2.98e-05       2.47e-04         1.41e-03        6.60e-06 
   3     -76.2293187980     -4.60e-06       1.40e-04         1.07e-03        2.31e-06 
   4     -76.2293206776     -1.88e-06       9.18e-05         8.06e-04        9.02e-07 

 ============================================================================== 
 ======================== DF-OMP2 ITERATIONS ARE CONVERGED ==================== 
 ============================================================================== 

	Orbitals are optimized now.
	Switching to the standard CD-MP2 computation after semicanonicalization of the MOs... 

	Computing MP2 energy using optimized MOs... 
	======================================================================= 
	Nuclear Repulsion Energy (a.u.)    :     9.18738642147759
	CD-HF Energy (a.u.)                :   -76.02671607958902
	REF Energy (a.u.)                  :   -76.02580429043533
	CD-MP2 Correlation Energy (a.u.)   :    -0.20260459804712
	CD-MP2 Total Energy (a.u.)         :   -76.22932067763614
	======================================================================= 

	======================================================================= 
	================ CD-OMP2 FINAL RESULTS ================================ 
	======================================================================= 
	Nuclear Repulsion Energy (a.u.)    :     9.18738642147759
	CD-HF Energy (a.u.)                :   -76.02671607958902
	REF Energy (a.u.)                  :   -76.02580429043533
	CD-OMP2 Correlation Energy (a.u.)  :    -0.20260459804712
	Ecdomp2 - Eref (a.u.)              :    -0.20351638720081
	CD-OMP2 Total Energy (a.u.)        :   -76.22932067763614
	======================================================================= 


*** tstop() called on ds1.sherrill.chemistry.gatech.edu at Mon Mar 14 15:12:22 2016
Module time:
	user time   =       0.05 seconds =       0.00 minutes
	system time =       0.08 seconds =       0.00 minutes
	total time  =          0 seconds =       0.00 minutes
Total time:
	user time   =       0.28 seconds =       0.00 minutes
	system time =       0.09 seconds =       0.00 minutes
	total time  =          1 seconds =       0.02 minutes
	Nuclear Repulsion Energy (a.u.)...................................PASSED
	CD-HF Energy (a.u.)...............................................PASSED
	CD-OMP2 Total Energy (a.u.).......................................PASSED

*** PSI4 exiting successfully. Buy a developer a beer!
