    -----------------------------------------------------------------------
          Psi4: An Open-Source Ab Initio Electronic Structure Package
                              Psi4 0.5 Driver

                          Git: Rev {master} dbe9080

    J. M. Turney, A. C. Simmonett, R. M. Parrish, E. G. Hohenstein,
    F. A. Evangelista, J. T. Fermann, B. J. Mintz, L. A. Burns, J. J. Wilke,
    M. L. Abrams, N. J. Russ, M. L. Leininger, C. L. Janssen, E. T. Seidl,
    W. D. Allen, H. F. Schaefer, R. A. King, E. F. Valeev, C. D. Sherrill,
    and T. D. Crawford, WIREs Comput. Mol. Sci. 2, 556-565 (2012)
    (doi: 10.1002/wcms.93)

                         Additional Contributions by
    A. E. DePrince, M. Saitow, U. Bozkaya, A. Yu. Sokolov
    -----------------------------------------------------------------------


    Psi4 started on: Mon Mar 14 15:15:35 2016

    Process ID:   9305
    PSI4DATADIR: /home/dsmith/Gits/dgas_psi/share
    Memory level set to 256.000 MB

  ==> Input File <==

--------------------------------------------------------------------------
#! Sample UHF/cc-pVDZ H2O computation on a doublet cation, using 
#! RHF/cc-pVDZ orbitals for the closed-shell neutral as a guess

memory 250 mb

molecule h2o {
  O 
  H 1 0.96
  H 1 0.96 2 104.5
}

# keep the MO orbitals file around even after the clean() function below
psi4_io.set_specific_retention(PSIF_SCF_MOS,True)
set scf d_convergence 6

set basis cc-pVDZ
energy('scf')

compare_values(-76.02663273485877, get_variable('SCF TOTAL ENERGY'), 6, 'SCF energy')  #TEST

clean()

h2o.set_multiplicity(2)
h2o.set_molecular_charge(1)
set scf reference uhf
set scf guess read
energy('scf')

compare_values(-75.63211086688469, get_variable('SCF TOTAL ENERGY'), 6, 'SCF energy')  #TEST
--------------------------------------------------------------------------

  Memory set to 250.000 MiB by Python script.
    There are an even number of electrons - assuming singlet.
    Specify the multiplicity in the molecule input block.


*** tstart() called on ds1.sherrill.chemistry.gatech.edu
*** at Mon Mar 14 15:15:35 2016


         ---------------------------------------------------------
                                   SCF
            by Justin Turney, Rob Parrish, and Andy Simmonett
                              RHF Reference
                        1 Threads,    250 MiB Core
         ---------------------------------------------------------

  ==> Geometry <==

    Molecular point group: c2v
    Full point group: C2v

    Geometry (in Angstrom), charge = 0, multiplicity = 1:

       Center              X                  Y                   Z               Mass       
    ------------   -----------------  -----------------  -----------------  -----------------
           O          0.000000000000     0.000000000000    -0.065775570538    15.994914619560
           H          0.000000000000    -0.759061990794     0.521953018295     1.007825032070
           H          0.000000000000     0.759061990794     0.521953018295     1.007825032070

  Running in c2v symmetry.

  Rotational constants: A =     27.26297  B =     14.51533  C =      9.47217 [cm^-1]
  Rotational constants: A = 817323.20514  B = 435158.59817  C = 283968.37324 [MHz]
  Nuclear repulsion =    9.168193260387572

  Charge       = 0
  Multiplicity = 1
  Electrons    = 10
  Nalpha       = 5
  Nbeta        = 5

  ==> Algorithm <==

  SCF Algorithm Type is DF.
  DIIS enabled.
  MOM disabled.
  Fractional occupation disabled.
  Guess Type is CORE.
  Energy threshold   = 1.00e-06
  Density threshold  = 1.00e-06
  Integral threshold = 0.00e+00

  ==> Primary Basis <==

  Basis Set: CC-PVDZ
    Number of shells: 12
    Number of basis function: 24
    Number of Cartesian functions: 25
    Spherical Harmonics?: true
    Max angular momentum: 2

  ==> Pre-Iterations <==

   -------------------------------------------------------
    Irrep   Nso     Nmo     Nalpha   Nbeta   Ndocc  Nsocc
   -------------------------------------------------------
     A1        11      11       0       0       0       0
     A2         2       2       0       0       0       0
     B1         4       4       0       0       0       0
     B2         7       7       0       0       0       0
   -------------------------------------------------------
    Total      24      24       5       5       5       0
   -------------------------------------------------------

  ==> Integral Setup <==

  ==> DFJK: Density-Fitted J/K Matrices <==

    J tasked:                  Yes
    K tasked:                  Yes
    wK tasked:                  No
    OpenMP threads:              1
    Integrals threads:           1
    Memory (MB):               178
    Algorithm:                Core
    Integral Cache:           NONE
    Schwarz Cutoff:          1E-12
    Fitting Condition:       1E-12

   => Auxiliary Basis Set <=

  Basis Set: 
    Number of shells: 42
    Number of basis function: 116
    Number of Cartesian functions: 131
    Spherical Harmonics?: true
    Max angular momentum: 3

  Minimum eigenvalue in the overlap matrix is 3.4377086883E-02.
  Using Symmetric Orthogonalization.
  SCF Guess: Core (One-Electron) Hamiltonian.

  ==> Iterations <==

                           Total Energy        Delta E     RMS |[F,P]|

    Occupation by irrep:
             A1    A2    B1    B2 
    DOCC [     3,    0,    0,    2 ]

   @DF-RHF iter   1:   -68.87679589143508   -6.88768e+01   2.24865e-01 
    Occupation by irrep:
             A1    A2    B1    B2 
    DOCC [     3,    0,    1,    1 ]

   @DF-RHF iter   2:   -69.94739928772678   -1.07060e+00   1.83983e-01 DIIS
   @DF-RHF iter   3:   -75.73846363254631   -5.79106e+00   6.30960e-02 DIIS
   @DF-RHF iter   4:   -76.00166118148643   -2.63198e-01   1.71040e-02 DIIS
   @DF-RHF iter   5:   -76.02634573488037   -2.46846e-02   1.53954e-03 DIIS
   @DF-RHF iter   6:   -76.02659024803164   -2.44513e-04   6.83100e-04 DIIS
   @DF-RHF iter   7:   -76.02663102295007   -4.07749e-05   9.57609e-05 DIIS
   @DF-RHF iter   8:   -76.02663264436282   -1.62141e-06   3.21842e-05 DIIS
   @DF-RHF iter   9:   -76.02663273410616   -8.97433e-08   1.86418e-06 DIIS
   @DF-RHF iter  10:   -76.02663273485712   -7.50958e-10   6.68973e-07 DIIS

  ==> Post-Iterations <==

    Orbital Energies (a.u.)
    -----------------------

    Doubly Occupied:                                                      

       1A1   -20.550926     2A1    -1.335311     1B2    -0.697803  
       3A1    -0.566087     1B1    -0.492948  

    Virtual:                                                              

       4A1     0.185107     2B2     0.255846     3B2     0.787336  
       5A1     0.851825     6A1     1.163855     2B1     1.200424  
       4B2     1.253573     7A1     1.445290     1A2     1.476011  
       3B1     1.674661     8A1     1.868110     5B2     1.932579  
       6B2     2.446529     9A1     2.483816     4B1     3.283957  
       2A2     3.336669    10A1     3.507634    11A1     3.863420  
       7B2     4.144759  

    Final Occupation by Irrep:
             A1    A2    B1    B2 
    DOCC [     3,    0,    1,    1 ]

  Energy converged.

  @DF-RHF Final Energy:   -76.02663273485712

   => Energetics <=

    Nuclear Repulsion Energy =              9.1681932603875715
    One-Electron Energy =                -123.1034719815359466
    Two-Electron Energy =                  37.9086459862912477
    DFT Exchange-Correlation Energy =       0.0000000000000000
    Empirical Dispersion Energy =           0.0000000000000000
    PCM Polarization Energy =               0.0000000000000000
    EFP Energy =                            0.0000000000000000
    Total Energy =                        -76.0266327348571309

    Alert: EFP and PCM quantities not currently incorporated into SCF psivars.

Properties will be evaluated at   0.000000,   0.000000,   0.000000 Bohr
  ==> Properties <==


Properties computed using the SCF density matrix

  Nuclear Dipole Moment: (a.u.)
     X:     0.0000      Y:     0.0000      Z:     0.9783

  Electronic Dipole Moment: (a.u.)
     X:     0.0000      Y:     0.0000      Z:    -0.1680

  Dipole Moment: (a.u.)
     X:     0.0000      Y:     0.0000      Z:     0.8103     Total:     0.8103

  Dipole Moment: (Debye)
     X:     0.0000      Y:     0.0000      Z:     2.0595     Total:     2.0595


  Saving occupied orbitals to File 180.

*** tstop() called on ds1.sherrill.chemistry.gatech.edu at Mon Mar 14 15:15:35 2016
Module time:
	user time   =       0.08 seconds =       0.00 minutes
	system time =       0.00 seconds =       0.00 minutes
	total time  =          0 seconds =       0.00 minutes
Total time:
	user time   =       0.08 seconds =       0.00 minutes
	system time =       0.00 seconds =       0.00 minutes
	total time  =          0 seconds =       0.00 minutes
	SCF energy........................................................PASSED

*** tstart() called on ds1.sherrill.chemistry.gatech.edu
*** at Mon Mar 14 15:15:35 2016


         ---------------------------------------------------------
                                   SCF
            by Justin Turney, Rob Parrish, and Andy Simmonett
                              UHF Reference
                        1 Threads,    250 MiB Core
         ---------------------------------------------------------

  ==> Geometry <==

    Molecular point group: c2v
    Full point group: C2v

    Geometry (in Angstrom), charge = 1, multiplicity = 2:

       Center              X                  Y                   Z               Mass       
    ------------   -----------------  -----------------  -----------------  -----------------
           O          0.000000000000     0.000000000000    -0.065775570538    15.994914619560
           H          0.000000000000    -0.759061990794     0.521953018295     1.007825032070
           H          0.000000000000     0.759061990794     0.521953018295     1.007825032070

  Running in c2v symmetry.

  Rotational constants: A =     27.26297  B =     14.51533  C =      9.47217 [cm^-1]
  Rotational constants: A = 817323.20514  B = 435158.59817  C = 283968.37324 [MHz]
  Nuclear repulsion =    9.168193260387573

  Charge       = 1
  Multiplicity = 2
  Electrons    = 9
  Nalpha       = 5
  Nbeta        = 4

  ==> Algorithm <==

  SCF Algorithm Type is DF.
  DIIS enabled.
  MOM disabled.
  Fractional occupation disabled.
  Guess Type is READ.
  Energy threshold   = 1.00e-06
  Density threshold  = 1.00e-06
  Integral threshold = 0.00e+00

  ==> Primary Basis <==

  Basis Set: CC-PVDZ
    Number of shells: 12
    Number of basis function: 24
    Number of Cartesian functions: 25
    Spherical Harmonics?: true
    Max angular momentum: 2

  ==> Pre-Iterations <==

   -------------------------------------------------------
    Irrep   Nso     Nmo     Nalpha   Nbeta   Ndocc  Nsocc
   -------------------------------------------------------
     A1        11      11       0       0       0       0
     A2         2       2       0       0       0       0
     B1         4       4       0       0       0       0
     B2         7       7       0       0       0       0
   -------------------------------------------------------
    Total      24      24       5       4       4       1
   -------------------------------------------------------

  ==> Integral Setup <==

  ==> DFJK: Density-Fitted J/K Matrices <==

    J tasked:                  Yes
    K tasked:                  Yes
    wK tasked:                  No
    OpenMP threads:              1
    Integrals threads:           1
    Memory (MB):               178
    Algorithm:                Core
    Integral Cache:           NONE
    Schwarz Cutoff:          1E-12
    Fitting Condition:       1E-12

   => Auxiliary Basis Set <=

  Basis Set: 
    Number of shells: 42
    Number of basis function: 116
    Number of Cartesian functions: 131
    Spherical Harmonics?: true
    Max angular momentum: 3

  Minimum eigenvalue in the overlap matrix is 3.4377086883E-02.
  Using Symmetric Orthogonalization.
  SCF Guess: Reading in previously saved MOs, projecting if necessary.

  Using orbitals from previous SCF, no projection.
  Recomputing DOCC and SOCC from number of alpha and beta electrons from previous calculation.
             A1    A2    B1    B2 
    DOCC [     3,    0,    1,    1 ]
    SOCC [     0,    0,    0,    0 ]

  ==> Iterations <==

                           Total Energy        Delta E     RMS |[F,P]|

   @DF-UHF iter   0:   -76.02663273490614   -7.60266e+01   1.19941e-07 
   @DF-UHF iter   1:   -75.53368454692335    4.92948e-01   3.45580e-02 
   @DF-UHF iter   2:   -75.61695802675581   -8.32735e-02   1.52206e-02 DIIS
   @DF-UHF iter   3:   -75.63165059892049   -1.46926e-02   1.59717e-03 DIIS
   @DF-UHF iter   4:   -75.63202177130674   -3.71172e-04   5.66074e-04 DIIS
   @DF-UHF iter   5:   -75.63209410353076   -7.23322e-05   2.28048e-04 DIIS
   @DF-UHF iter   6:   -75.63210991235297   -1.58088e-05   5.37721e-05 DIIS
   @DF-UHF iter   7:   -75.63211084382026   -9.31467e-07   9.49074e-06 DIIS
   @DF-UHF iter   8:   -75.63211086688332   -2.30631e-08   2.16586e-06 DIIS
   @DF-UHF iter   9:   -75.63211086776271   -8.79382e-10   2.95066e-07 DIIS

  ==> Post-Iterations <==

   @Spin Contamination Metric:   6.124451113E-03
   @S^2 Expected:                7.500000000E-01
   @S^2 Observed:                7.561244511E-01
   @S   Expected:                5.000000000E-01
   @S   Observed:                5.000000000E-01

    Orbital Energies (a.u.)
    -----------------------

    Alpha Occupied:                                                       

       1A1   -21.139894     2A1    -1.912529     1B2    -1.216885  
       1B1    -1.129619     3A1    -1.096968  

    Alpha Virtual:                                                        

       4A1    -0.142181     2B2    -0.058850     3B2     0.391904  
       5A1     0.445603     2B1     0.672787     6A1     0.715175  
       4B2     0.827435     7A1     1.025818     1A2     1.039941  
       3B1     1.239489     8A1     1.386040     5B2     1.530209  
       6B2     1.991588     9A1     1.999750     4B1     2.721569  
       2A2     2.772311    10A1     2.998627    11A1     3.324769  
       7B2     3.650905  

    Beta Occupied:                                                        

       1A1   -21.094798     2A1    -1.756311     1B2    -1.178639  
       3A1    -1.045111  

    Beta Virtual:                                                         

       1B1    -0.313084     4A1    -0.128081     2B2    -0.050617  
       3B2     0.390654     5A1     0.461939     6A1     0.736461  
       4B2     0.844839     2B1     0.870386     7A1     1.036515  
       1A2     1.070104     3B1     1.269227     8A1     1.438587  
       5B2     1.526667     6B2     2.003045     9A1     2.055218  
       4B1     2.825462     2A2     2.876922    10A1     3.030409  
      11A1     3.403472     7B2     3.668557  

    Final Occupation by Irrep:
             A1    A2    B1    B2 
    DOCC [     3,    0,    0,    1 ]
    SOCC [     0,    0,    1,    0 ]

  Energy converged.

  @DF-UHF Final Energy:   -75.63211086776271

   => Energetics <=

    Nuclear Repulsion Energy =              9.1681932603875733
    One-Electron Energy =                -118.0298521200231932
    Two-Electron Energy =                  33.2295479918729058
    DFT Exchange-Correlation Energy =       0.0000000000000000
    Empirical Dispersion Energy =           0.0000000000000000
    PCM Polarization Energy =               0.0000000000000000
    EFP Energy =                            0.0000000000000000
    Total Energy =                        -75.6321108677627194

    Alert: EFP and PCM quantities not currently incorporated into SCF psivars.

Properties will be evaluated at   0.000000,   0.000000,   0.000000 Bohr
  ==> Properties <==


Properties computed using the SCF density matrix

  Nuclear Dipole Moment: (a.u.)
     X:     0.0000      Y:     0.0000      Z:     0.9783

  Electronic Dipole Moment: (a.u.)
     X:     0.0000      Y:     0.0000      Z:     0.0137

  Dipole Moment: (a.u.)
     X:     0.0000      Y:     0.0000      Z:     0.9920     Total:     0.9920

  Dipole Moment: (Debye)
     X:     0.0000      Y:     0.0000      Z:     2.5215     Total:     2.5215


  Saving occupied orbitals to File 180.

  UHF NO Occupations:
  HONO-2 :    1 B2 1.9991748
  HONO-1 :    3 A1 1.9980654
  HONO-0 :    1 B1 1.0000000
  LUNO+0 :    4 A1 0.0019346
  LUNO+1 :    2 B2 0.0008252
  LUNO+2 :    5 A1 0.0003044
  LUNO+3 :    6 A1 0.0000003


*** tstop() called on ds1.sherrill.chemistry.gatech.edu at Mon Mar 14 15:15:35 2016
Module time:
	user time   =       0.10 seconds =       0.00 minutes
	system time =       0.00 seconds =       0.00 minutes
	total time  =          0 seconds =       0.00 minutes
Total time:
	user time   =       0.21 seconds =       0.00 minutes
	system time =       0.00 seconds =       0.00 minutes
	total time  =          0 seconds =       0.00 minutes
	SCF energy........................................................PASSED

*** PSI4 exiting successfully. Buy a developer a beer!
