    -----------------------------------------------------------------------
          Psi4: An Open-Source Ab Initio Electronic Structure Package
                              Psi4 0.2.151 Driver

                          Git: Rev {master} b8b2673 

    J. M. Turney, A. C. Simmonett, R. M. Parrish, E. G. Hohenstein,
    F. A. Evangelista, J. T. Fermann, B. J. Mintz, L. A. Burns, J. J. Wilke,
    M. L. Abrams, N. J. Russ, M. L. Leininger, C. L. Janssen, E. T. Seidl,
    W. D. Allen, H. F. Schaefer, R. A. King, E. F. Valeev, C. D. Sherrill,
    and T. D. Crawford, WIREs Comput. Mol. Sci. 2, 556-565 (2012)
    (doi: 10.1002/wcms.93)

                         Additional Contributions by
    A. E. DePrince, M. Saitow, U. Bozkaya, A. Yu. Sokolov
    -----------------------------------------------------------------------


    Psi4 started on: Fri Jul 17 16:26:03 2015

    Process ID:   8417
    PSI4DATADIR: /theoryfs2/ds/sherrill/psi4public/lib
    Memory level set to 256.000 MB

  ==> Input File <==

--------------------------------------------------------------------------
#! Frequencies for H2O HF/cc-pVDZ at optimized geometry

memory 250 mb

molecule h2o {
  O
  H 1 0.9463
  H 1 0.9463 2 104.575
}

set basis cc-pVDZ
frequencies('scf')

ref_freqs = psi4.Vector(3) #TEST
ref_freqs.set(0, 0, 1776.71) #TEST
ref_freqs.set(0, 1, 4113.62) #TEST
ref_freqs.set(0, 2, 4211.66) #TEST

fd_freqs = psi4.wavefunction().frequencies() #TEST
compare_vectors(ref_freqs, fd_freqs, 1, "Reference vs computed frequencies to 0.1 cm^-1") #TEST

--------------------------------------------------------------------------

  Memory set to 250.000 MiB by Python script.

-------------------------------------------------------------

  Using finite-differences of gradients to determine vibrational frequencies and 
  normal modes.  Resulting frequencies are only valid at stationary points.
	Generating geometries for use with 3-point formula.
	Displacement size will be 5.00e-03.
	Number of atoms is 3.
	Number of irreps is 4.
	Number of SALCS is 3.
	Index of salcs per irrep:
	 1 :  0  1 
	 2 : 
	 3 : 
	 4 :  2 
	Number of SALC's per irrep:
		 Irrep 1: 2
		 Irrep 2: 0
		 Irrep 3: 0
		 Irrep 4: 1
	Number of geometries (including reference) is 6.
	Number of displacements per irrep:
	  Irrep 1: 4
	  Irrep 2: 0
	  Irrep 3: 0
	  Irrep 4: 1

-------------------------------------------------------------

  //>>>>>>>>>>>>>>>>>>>>>>>>>>>>>>>>>>>//
  //    Loading displacement 1 of 6    //
  //<<<<<<<<<<<<<<<<<<<<<<<<<<<<<<<<<<<//

*** tstart() called on ds9.sherrill.chemistry.gatech.edu
*** at Fri Jul 17 16:26:03 2015

    There are an even number of electrons - assuming singlet.
    Specify the multiplicity with the MULTP option in the
    input if this is incorrect


         ---------------------------------------------------------
                                   SCF
            by Justin Turney, Rob Parrish, and Andy Simmonett
                              RHF Reference
                        1 Threads,    250 MiB Core
         ---------------------------------------------------------

  ==> Geometry <==

    Molecular point group: c2v
    Full point group: C2v

    Geometry (in Angstrom), charge = 0, multiplicity = 1:

       Center              X                  Y                   Z       
    ------------   -----------------  -----------------  -----------------
           O          0.000000000000     0.000000000000    -0.065003399788
           H          0.000000000000    -0.748608561284     0.515825563219
           H          0.000000000000     0.748608561284     0.515825563219

  Running in c2v symmetry.

  Rotational constants: A =     27.91452  B =     14.92354  C =      9.72461 [cm^-1]
  Rotational constants: A = 836856.38488  B = 447396.39495  C = 291536.47597 [MHz]
  Nuclear repulsion =    9.289310920137744

  Charge       = 0
  Multiplicity = 1
  Electrons    = 10
  Nalpha       = 5
  Nbeta        = 5

  ==> Algorithm <==

  SCF Algorithm Type is DF.
  DIIS enabled.
  MOM disabled.
  Fractional occupation disabled.
  Guess Type is CORE.
  Energy threshold   = 1.00e-08
  Density threshold  = 1.00e-08
  Integral threshold = 0.00e+00

  ==> Primary Basis <==

  Basis Set: CC-PVDZ
    Number of shells: 12
    Number of basis function: 24
    Number of Cartesian functions: 25
    Spherical Harmonics?: true
    Max angular momentum: 2

  ==> Pre-Iterations <==

   -------------------------------------------------------
    Irrep   Nso     Nmo     Nalpha   Nbeta   Ndocc  Nsocc
   -------------------------------------------------------
     A1        11      11       0       0       0       0
     A2         2       2       0       0       0       0
     B1         4       4       0       0       0       0
     B2         7       7       0       0       0       0
   -------------------------------------------------------
    Total      24      24       5       5       5       0
   -------------------------------------------------------

 OEINTS: Overlap, kinetic, potential, dipole, and quadrupole integrals
         stored in file 35.

  ==> Integral Setup <==

  ==> DFJK: Density-Fitted J/K Matrices <==

    J tasked:                  Yes
    K tasked:                  Yes
    wK tasked:                  No
    OpenMP threads:              1
    Integrals threads:           1
    Memory (MB):               178
    Algorithm:                Core
    Integral Cache:           NONE
    Schwarz Cutoff:          1E-12
    Fitting Condition:       1E-12

   => Auxiliary Basis Set <=

  Basis Set: 
    Number of shells: 42
    Number of basis function: 116
    Number of Cartesian functions: 131
    Spherical Harmonics?: true
    Max angular momentum: 3

  Minimum eigenvalue in the overlap matrix is 3.3479637580E-02.
  Using Symmetric Orthogonalization.
  SCF Guess: Core (One-Electron) Hamiltonian.

  ==> Iterations <==

                           Total Energy        Delta E     RMS |[F,P]|

    Occupation by irrep:
             A1    A2    B1    B2 
    DOCC [     3,    0,    0,    2 ]

   @DF-RHF iter   1:   -68.85923089797819   -6.88592e+01   2.27470e-01 
    Occupation by irrep:
             A1    A2    B1    B2 
    DOCC [     3,    0,    1,    1 ]

   @DF-RHF iter   2:   -69.96423483550862   -1.10500e+00   1.83655e-01 DIIS
   @DF-RHF iter   3:   -75.72816169809161   -5.76393e+00   6.44423e-02 DIIS
   @DF-RHF iter   4:   -76.00115457929209   -2.72993e-01   1.75188e-02 DIIS
   @DF-RHF iter   5:   -76.02674983543216   -2.55953e-02   1.55930e-03 DIIS
   @DF-RHF iter   6:   -76.02698848304078   -2.38648e-04   6.66122e-04 DIIS
   @DF-RHF iter   7:   -76.02702689543034   -3.84124e-05   9.42262e-05 DIIS
   @DF-RHF iter   8:   -76.02702842357635   -1.52815e-06   3.12369e-05 DIIS
   @DF-RHF iter   9:   -76.02702850867067   -8.50943e-08   1.75548e-06 DIIS
   @DF-RHF iter  10:   -76.02702850932462   -6.53955e-10   6.22205e-07 DIIS
   @DF-RHF iter  11:   -76.02702850936586   -4.12399e-11   1.08700e-07 DIIS
   @DF-RHF iter  12:   -76.02702850936700   -1.13687e-12   7.80152e-09 DIIS

  ==> Post-Iterations <==

    Orbital Energies (a.u.)
    -----------------------

    Doubly Occupied:                                                      

       1A1   -20.548777     2A1    -1.341821     1B2    -0.704318  
       3A1    -0.568640     1B1    -0.493907  

    Virtual:                                                              

       4A1     0.187166     2B2     0.257667     3B2     0.796001  
       5A1     0.864278     6A1     1.163054     2B1     1.200426  
       4B2     1.252988     7A1     1.442346     1A2     1.479698  
       3B1     1.676519     8A1     1.865257     5B2     1.947200  
       6B2     2.475916     9A1     2.515757     4B1     3.295693  
       2A2     3.348587    10A1     3.524740    11A1     3.876220  
       7B2     4.159727  

    Final Occupation by Irrep:
             A1    A2    B1    B2 
    DOCC [     3,    0,    1,    1 ]

  Energy converged.

  @DF-RHF Final Energy:   -76.02702850936700

   => Energetics <=

    Nuclear Repulsion Energy =              9.2893109201377442
    One-Electron Energy =                -123.3177541698192243
    Two-Electron Energy =                  38.0014147403144520
    DFT Exchange-Correlation Energy =       0.0000000000000000
    Empirical Dispersion Energy =           0.0000000000000000
    PCM Polarization Energy =               0.0000000000000000
    EFP Energy =                            0.0000000000000000
    Total Energy =                        -76.0270285093670282

    Alert: EFP and PCM quantities not currently incorporated into SCF psivars.

Properties will be evaluated at   0.000000,   0.000000,   0.000000 Bohr
  ==> Properties <==


Properties computed using the SCF density matrix

  Nuclear Dipole Moment: (a.u.)
     X:     0.0000      Y:     0.0000      Z:     0.9668

  Electronic Dipole Moment: (a.u.)
     X:     0.0000      Y:     0.0000      Z:    -0.1606

  Dipole Moment: (a.u.)
     X:     0.0000      Y:     0.0000      Z:     0.8062     Total:     0.8062

  Dipole Moment: (Debye)
     X:     0.0000      Y:     0.0000      Z:     2.0492     Total:     2.0492


  Saving occupied orbitals to File 180.

*** tstop() called on ds9.sherrill.chemistry.gatech.edu at Fri Jul 17 16:26:03 2015
Module time:
	user time   =       0.21 seconds =       0.00 minutes
	system time =       0.00 seconds =       0.00 minutes
	total time  =          0 seconds =       0.00 minutes
Total time:
	user time   =       0.21 seconds =       0.00 minutes
	system time =       0.00 seconds =       0.00 minutes
	total time  =          0 seconds =       0.00 minutes

*** tstart() called on ds9.sherrill.chemistry.gatech.edu
*** at Fri Jul 17 16:26:03 2015


         ------------------------------------------------------------
                                   SCF GRAD                          
                          Rob Parrish, Justin Turney,                
                       Andy Simmonett, and Alex Sokolov              
         ------------------------------------------------------------

  ==> Geometry <==

    Molecular point group: c2v
    Full point group: C2v

    Geometry (in Angstrom), charge = 0, multiplicity = 1:

       Center              X                  Y                   Z       
    ------------   -----------------  -----------------  -----------------
           O          0.000000000000     0.000000000000    -0.065003399788
           H          0.000000000000    -0.748608561284     0.515825563219
           H          0.000000000000     0.748608561284     0.515825563219

  Nuclear repulsion =    9.289310920137744

  ==> Basis Set <==

  Basis Set: CC-PVDZ
    Number of shells: 12
    Number of basis function: 24
    Number of Cartesian functions: 25
    Spherical Harmonics?: true
    Max angular momentum: 2

  ==> DFJKGrad: Density-Fitted SCF Gradients <==

    Gradient:                    1
    J tasked:                  Yes
    K tasked:                  Yes
    wK tasked:                  No
    OpenMP threads:              1
    Integrals threads:           1
    Memory (MB):               178
    Schwarz Cutoff:          0E+00
    Fitting Condition:       1E-12

   => Auxiliary Basis Set <=

  Basis Set: 
    Number of shells: 42
    Number of basis function: 116
    Number of Cartesian functions: 131
    Spherical Harmonics?: true
    Max angular momentum: 3


  -Total Gradient:
     Atom            X                  Y                   Z
    ------   -----------------  -----------------  -----------------
       1       -0.000000000000    -0.000000000004    -0.002134724073
       2        0.000000000000    -0.000828948334     0.001067362035
       3        0.000000000000     0.000828948338     0.001067362038


*** tstop() called on ds9.sherrill.chemistry.gatech.edu at Fri Jul 17 16:26:03 2015
Module time:
	user time   =       0.24 seconds =       0.00 minutes
	system time =       0.01 seconds =       0.00 minutes
	total time  =          0 seconds =       0.00 minutes
Total time:
	user time   =       0.45 seconds =       0.01 minutes
	system time =       0.01 seconds =       0.00 minutes
	total time  =          0 seconds =       0.00 minutes

  //>>>>>>>>>>>>>>>>>>>>>>>>>>>>>>>>>>>//
  //    Loading displacement 2 of 6    //
  //<<<<<<<<<<<<<<<<<<<<<<<<<<<<<<<<<<<//

*** tstart() called on ds9.sherrill.chemistry.gatech.edu
*** at Fri Jul 17 16:26:03 2015

    There are an even number of electrons - assuming singlet.
    Specify the multiplicity with the MULTP option in the
    input if this is incorrect


         ---------------------------------------------------------
                                   SCF
            by Justin Turney, Rob Parrish, and Andy Simmonett
                              RHF Reference
                        1 Threads,    250 MiB Core
         ---------------------------------------------------------

  ==> Geometry <==

    Molecular point group: c2v
    Full point group: C2v

    Geometry (in Angstrom), charge = 0, multiplicity = 1:

       Center              X                  Y                   Z       
    ------------   -----------------  -----------------  -----------------
           O          0.000000000000     0.000000000000    -0.064560756308
           H          0.000000000000    -0.748608561284     0.512313026595
           H          0.000000000000     0.748608561284     0.512313026595

  Running in c2v symmetry.

  Rotational constants: A =     28.29861  B =     14.92354  C =      9.77081 [cm^-1]
  Rotational constants: A = 848371.08568  B = 447396.39495  C = 292921.50867 [MHz]
  Nuclear repulsion =    9.312186223104735

  Charge       = 0
  Multiplicity = 1
  Electrons    = 10
  Nalpha       = 5
  Nbeta        = 5

  ==> Algorithm <==

  SCF Algorithm Type is DF.
  DIIS enabled.
  MOM disabled.
  Fractional occupation disabled.
  Guess Type is CORE.
  Energy threshold   = 1.00e-08
  Density threshold  = 1.00e-08
  Integral threshold = 0.00e+00

  ==> Primary Basis <==

  Basis Set: CC-PVDZ
    Number of shells: 12
    Number of basis function: 24
    Number of Cartesian functions: 25
    Spherical Harmonics?: true
    Max angular momentum: 2

  ==> Pre-Iterations <==

   -------------------------------------------------------
    Irrep   Nso     Nmo     Nalpha   Nbeta   Ndocc  Nsocc
   -------------------------------------------------------
     A1        11      11       0       0       0       0
     A2         2       2       0       0       0       0
     B1         4       4       0       0       0       0
     B2         7       7       0       0       0       0
   -------------------------------------------------------
    Total      24      24       5       5       5       0
   -------------------------------------------------------

 OEINTS: Overlap, kinetic, potential, dipole, and quadrupole integrals
         stored in file 35.

  ==> Integral Setup <==

  ==> DFJK: Density-Fitted J/K Matrices <==

    J tasked:                  Yes
    K tasked:                  Yes
    wK tasked:                  No
    OpenMP threads:              1
    Integrals threads:           1
    Memory (MB):               178
    Algorithm:                Core
    Integral Cache:           NONE
    Schwarz Cutoff:          1E-12
    Fitting Condition:       1E-12

   => Auxiliary Basis Set <=

  Basis Set: 
    Number of shells: 42
    Number of basis function: 116
    Number of Cartesian functions: 131
    Spherical Harmonics?: true
    Max angular momentum: 3

  Minimum eigenvalue in the overlap matrix is 3.3361524132E-02.
  Using Symmetric Orthogonalization.
  SCF Guess: Core (One-Electron) Hamiltonian.

  ==> Iterations <==

                           Total Energy        Delta E     RMS |[F,P]|

    Occupation by irrep:
             A1    A2    B1    B2 
    DOCC [     3,    0,    0,    2 ]

   @DF-RHF iter   1:   -68.85671624308748   -6.88567e+01   2.27967e-01 
    Occupation by irrep:
             A1    A2    B1    B2 
    DOCC [     3,    0,    1,    1 ]

   @DF-RHF iter   2:   -69.97418730185836   -1.11747e+00   1.83480e-01 DIIS
   @DF-RHF iter   3:   -75.72615421388269   -5.75197e+00   6.46982e-02 DIIS
   @DF-RHF iter   4:   -76.00098041160284   -2.74826e-01   1.76032e-02 DIIS
   @DF-RHF iter   5:   -76.02675284035658   -2.57724e-02   1.56511e-03 DIIS
   @DF-RHF iter   6:   -76.02698995112024   -2.37111e-04   6.61965e-04 DIIS
   @DF-RHF iter   7:   -76.02702782543929   -3.78743e-05   9.38479e-05 DIIS
   @DF-RHF iter   8:   -76.02702933581112   -1.51037e-06   3.10021e-05 DIIS
   @DF-RHF iter   9:   -76.02702941993702   -8.41259e-08   1.74973e-06 DIIS
   @DF-RHF iter  10:   -76.02702942058946   -6.52435e-10   6.19217e-07 DIIS
   @DF-RHF iter  11:   -76.02702942063036   -4.08988e-11   1.07960e-07 DIIS
   @DF-RHF iter  12:   -76.02702942063142   -1.06581e-12   7.64309e-09 DIIS

  ==> Post-Iterations <==

    Orbital Energies (a.u.)
    -----------------------

    Doubly Occupied:                                                      

       1A1   -20.548141     2A1    -1.342779     1B2    -0.706375  
       3A1    -0.568308     1B1    -0.493956  

    Virtual:                                                              

       4A1     0.187647     2B2     0.257953     3B2     0.799123  
       5A1     0.864868     6A1     1.162566     2B1     1.200495  
       4B2     1.252483     7A1     1.445454     1A2     1.479093  
       3B1     1.679204     8A1     1.865630     5B2     1.947659  
       6B2     2.482868     9A1     2.521248     4B1     3.295792  
       2A2     3.352487    10A1     3.526145    11A1     3.882138  
       7B2     4.160227  

    Final Occupation by Irrep:
             A1    A2    B1    B2 
    DOCC [     3,    0,    1,    1 ]

  Energy converged.

  @DF-RHF Final Energy:   -76.02702942063142

   => Energetics <=

    Nuclear Repulsion Energy =              9.3121862231047352
    One-Electron Energy =                -123.3593128015192946
    Two-Electron Energy =                  38.0200971577831339
    DFT Exchange-Correlation Energy =       0.0000000000000000
    Empirical Dispersion Energy =           0.0000000000000000
    PCM Polarization Energy =               0.0000000000000000
    EFP Energy =                            0.0000000000000000
    Total Energy =                        -76.0270294206314361

    Alert: EFP and PCM quantities not currently incorporated into SCF psivars.

Properties will be evaluated at   0.000000,   0.000000,   0.000000 Bohr
  ==> Properties <==


Properties computed using the SCF density matrix

  Nuclear Dipole Moment: (a.u.)
     X:     0.0000      Y:     0.0000      Z:     0.9602

  Electronic Dipole Moment: (a.u.)
     X:     0.0000      Y:     0.0000      Z:    -0.1572

  Dipole Moment: (a.u.)
     X:     0.0000      Y:     0.0000      Z:     0.8030     Total:     0.8030

  Dipole Moment: (Debye)
     X:     0.0000      Y:     0.0000      Z:     2.0411     Total:     2.0411


  Saving occupied orbitals to File 180.

*** tstop() called on ds9.sherrill.chemistry.gatech.edu at Fri Jul 17 16:26:04 2015
Module time:
	user time   =       0.20 seconds =       0.00 minutes
	system time =       0.00 seconds =       0.00 minutes
	total time  =          1 seconds =       0.02 minutes
Total time:
	user time   =       0.67 seconds =       0.01 minutes
	system time =       0.01 seconds =       0.00 minutes
	total time  =          1 seconds =       0.02 minutes

*** tstart() called on ds9.sherrill.chemistry.gatech.edu
*** at Fri Jul 17 16:26:04 2015


         ------------------------------------------------------------
                                   SCF GRAD                          
                          Rob Parrish, Justin Turney,                
                       Andy Simmonett, and Alex Sokolov              
         ------------------------------------------------------------

  ==> Geometry <==

    Molecular point group: c2v
    Full point group: C2v

    Geometry (in Angstrom), charge = 0, multiplicity = 1:

       Center              X                  Y                   Z       
    ------------   -----------------  -----------------  -----------------
           O          0.000000000000     0.000000000000    -0.064560756308
           H          0.000000000000    -0.748608561284     0.512313026595
           H          0.000000000000     0.748608561284     0.512313026595

  Nuclear repulsion =    9.312186223104735

  ==> Basis Set <==

  Basis Set: CC-PVDZ
    Number of shells: 12
    Number of basis function: 24
    Number of Cartesian functions: 25
    Spherical Harmonics?: true
    Max angular momentum: 2

  ==> DFJKGrad: Density-Fitted SCF Gradients <==

    Gradient:                    1
    J tasked:                  Yes
    K tasked:                  Yes
    wK tasked:                  No
    OpenMP threads:              1
    Integrals threads:           1
    Memory (MB):               178
    Schwarz Cutoff:          0E+00
    Fitting Condition:       1E-12

   => Auxiliary Basis Set <=

  Basis Set: 
    Number of shells: 42
    Number of basis function: 116
    Number of Cartesian functions: 131
    Spherical Harmonics?: true
    Max angular momentum: 3


  -Total Gradient:
     Atom            X                  Y                   Z
    ------   -----------------  -----------------  -----------------
       1        0.000000000000     0.000000000000     0.001894679971
       2       -0.000000000000     0.000933404977    -0.000947339985
       3       -0.000000000000    -0.000933404977    -0.000947339986


*** tstop() called on ds9.sherrill.chemistry.gatech.edu at Fri Jul 17 16:26:04 2015
Module time:
	user time   =       0.24 seconds =       0.00 minutes
	system time =       0.00 seconds =       0.00 minutes
	total time  =          0 seconds =       0.00 minutes
Total time:
	user time   =       0.91 seconds =       0.02 minutes
	system time =       0.01 seconds =       0.00 minutes
	total time  =          1 seconds =       0.02 minutes

  //>>>>>>>>>>>>>>>>>>>>>>>>>>>>>>>>>>>//
  //    Loading displacement 3 of 6    //
  //<<<<<<<<<<<<<<<<<<<<<<<<<<<<<<<<<<<//

*** tstart() called on ds9.sherrill.chemistry.gatech.edu
*** at Fri Jul 17 16:26:04 2015

    There are an even number of electrons - assuming singlet.
    Specify the multiplicity with the MULTP option in the
    input if this is incorrect


         ---------------------------------------------------------
                                   SCF
            by Justin Turney, Rob Parrish, and Andy Simmonett
                              RHF Reference
                        1 Threads,    250 MiB Core
         ---------------------------------------------------------

  ==> Geometry <==

    Molecular point group: c2v
    Full point group: C2v

    Geometry (in Angstrom), charge = 0, multiplicity = 1:

       Center              X                  Y                   Z       
    ------------   -----------------  -----------------  -----------------
           O          0.000000000000     0.000000000000    -0.064782078048
           H          0.000000000000    -0.750472207909     0.514069294907
           H          0.000000000000     0.750472207909     0.514069294907

  Running in c2v symmetry.

  Rotational constants: A =     28.10558  B =     14.84951  C =      9.71606 [cm^-1]
  Rotational constants: A = 842584.23125  B = 445177.11621  C = 291280.07217 [MHz]
  Nuclear repulsion =    9.285944016385777

  Charge       = 0
  Multiplicity = 1
  Electrons    = 10
  Nalpha       = 5
  Nbeta        = 5

  ==> Algorithm <==

  SCF Algorithm Type is DF.
  DIIS enabled.
  MOM disabled.
  Fractional occupation disabled.
  Guess Type is CORE.
  Energy threshold   = 1.00e-08
  Density threshold  = 1.00e-08
  Integral threshold = 0.00e+00

  ==> Primary Basis <==

  Basis Set: CC-PVDZ
    Number of shells: 12
    Number of basis function: 24
    Number of Cartesian functions: 25
    Spherical Harmonics?: true
    Max angular momentum: 2

  ==> Pre-Iterations <==

   -------------------------------------------------------
    Irrep   Nso     Nmo     Nalpha   Nbeta   Ndocc  Nsocc
   -------------------------------------------------------
     A1        11      11       0       0       0       0
     A2         2       2       0       0       0       0
     B1         4       4       0       0       0       0
     B2         7       7       0       0       0       0
   -------------------------------------------------------
    Total      24      24       5       5       5       0
   -------------------------------------------------------

 OEINTS: Overlap, kinetic, potential, dipole, and quadrupole integrals
         stored in file 35.

  ==> Integral Setup <==

  ==> DFJK: Density-Fitted J/K Matrices <==

    J tasked:                  Yes
    K tasked:                  Yes
    wK tasked:                  No
    OpenMP threads:              1
    Integrals threads:           1
    Memory (MB):               178
    Algorithm:                Core
    Integral Cache:           NONE
    Schwarz Cutoff:          1E-12
    Fitting Condition:       1E-12

   => Auxiliary Basis Set <=

  Basis Set: 
    Number of shells: 42
    Number of basis function: 116
    Number of Cartesian functions: 131
    Spherical Harmonics?: true
    Max angular momentum: 3

  Minimum eigenvalue in the overlap matrix is 3.3541688270E-02.
  Using Symmetric Orthogonalization.
  SCF Guess: Core (One-Electron) Hamiltonian.

  ==> Iterations <==

                           Total Energy        Delta E     RMS |[F,P]|

    Occupation by irrep:
             A1    A2    B1    B2 
    DOCC [     3,    0,    0,    2 ]

   @DF-RHF iter   1:   -68.86045046247438   -6.88605e+01   2.27398e-01 
    Occupation by irrep:
             A1    A2    B1    B2 
    DOCC [     3,    0,    1,    1 ]

   @DF-RHF iter   2:   -69.96944694814954   -1.10900e+00   1.83573e-01 DIIS
   @DF-RHF iter   3:   -75.72847043483637   -5.75902e+00   6.44083e-02 DIIS
   @DF-RHF iter   4:   -76.00117588913164   -2.72705e-01   1.75126e-02 DIIS
   @DF-RHF iter   5:   -76.02674899707969   -2.55731e-02   1.56018e-03 DIIS
   @DF-RHF iter   6:   -76.02698734646313   -2.38349e-04   6.65697e-04 DIIS
   @DF-RHF iter   7:   -76.02702573076104   -3.83843e-05   9.42118e-05 DIIS
   @DF-RHF iter   8:   -76.02702726140652   -1.53065e-06   3.12135e-05 DIIS
   @DF-RHF iter   9:   -76.02702734653425   -8.51277e-08   1.77022e-06 DIIS
   @DF-RHF iter  10:   -76.02702734720339   -6.69132e-10   6.27860e-07 DIIS
   @DF-RHF iter  11:   -76.02702734724571   -4.23199e-11   1.10040e-07 DIIS
   @DF-RHF iter  12:   -76.02702734724684   -1.13687e-12   7.79520e-09 DIIS

  ==> Post-Iterations <==

    Orbital Energies (a.u.)
    -----------------------

    Doubly Occupied:                                                      

       1A1   -20.548646     2A1    -1.341416     1B2    -0.704808  
       3A1    -0.567917     1B1    -0.493770  

    Virtual:                                                              

       4A1     0.187194     2B2     0.257584     3B2     0.796953  
       5A1     0.862505     6A1     1.162809     2B1     1.200510  
       4B2     1.252669     7A1     1.445363     1A2     1.478538  
       3B1     1.678322     8A1     1.866043     5B2     1.944939  
       6B2     2.476246     9A1     2.514428     4B1     3.293679  
       2A2     3.349600    10A1     3.522847    11A1     3.878660  
       7B2     4.157469  

    Final Occupation by Irrep:
             A1    A2    B1    B2 
    DOCC [     3,    0,    1,    1 ]

  Energy converged.

  @DF-RHF Final Energy:   -76.02702734724684

   => Energetics <=

    Nuclear Repulsion Energy =              9.2859440163857769
    One-Electron Energy =                -123.3128284253442217
    Two-Electron Energy =                  37.9998570617116016
    DFT Exchange-Correlation Energy =       0.0000000000000000
    Empirical Dispersion Energy =           0.0000000000000000
    PCM Polarization Energy =               0.0000000000000000
    EFP Energy =                            0.0000000000000000
    Total Energy =                        -76.0270273472468432

    Alert: EFP and PCM quantities not currently incorporated into SCF psivars.

Properties will be evaluated at   0.000000,   0.000000,   0.000000 Bohr
  ==> Properties <==


Properties computed using the SCF density matrix

  Nuclear Dipole Moment: (a.u.)
     X:     0.0000      Y:     0.0000      Z:     0.9635

  Electronic Dipole Moment: (a.u.)
     X:     0.0000      Y:     0.0000      Z:    -0.1592

  Dipole Moment: (a.u.)
     X:     0.0000      Y:     0.0000      Z:     0.8044     Total:     0.8044

  Dipole Moment: (Debye)
     X:     0.0000      Y:     0.0000      Z:     2.0445     Total:     2.0445


  Saving occupied orbitals to File 180.

*** tstop() called on ds9.sherrill.chemistry.gatech.edu at Fri Jul 17 16:26:05 2015
Module time:
	user time   =       0.22 seconds =       0.00 minutes
	system time =       0.01 seconds =       0.00 minutes
	total time  =          1 seconds =       0.02 minutes
Total time:
	user time   =       1.14 seconds =       0.02 minutes
	system time =       0.02 seconds =       0.00 minutes
	total time  =          2 seconds =       0.03 minutes

*** tstart() called on ds9.sherrill.chemistry.gatech.edu
*** at Fri Jul 17 16:26:05 2015


         ------------------------------------------------------------
                                   SCF GRAD                          
                          Rob Parrish, Justin Turney,                
                       Andy Simmonett, and Alex Sokolov              
         ------------------------------------------------------------

  ==> Geometry <==

    Molecular point group: c2v
    Full point group: C2v

    Geometry (in Angstrom), charge = 0, multiplicity = 1:

       Center              X                  Y                   Z       
    ------------   -----------------  -----------------  -----------------
           O          0.000000000000     0.000000000000    -0.064782078048
           H          0.000000000000    -0.750472207909     0.514069294907
           H          0.000000000000     0.750472207909     0.514069294907

  Nuclear repulsion =    9.285944016385777

  ==> Basis Set <==

  Basis Set: CC-PVDZ
    Number of shells: 12
    Number of basis function: 24
    Number of Cartesian functions: 25
    Spherical Harmonics?: true
    Max angular momentum: 2

  ==> DFJKGrad: Density-Fitted SCF Gradients <==

    Gradient:                    1
    J tasked:                  Yes
    K tasked:                  Yes
    wK tasked:                  No
    OpenMP threads:              1
    Integrals threads:           1
    Memory (MB):               178
    Schwarz Cutoff:          0E+00
    Fitting Condition:       1E-12

   => Auxiliary Basis Set <=

  Basis Set: 
    Number of shells: 42
    Number of basis function: 116
    Number of Cartesian functions: 131
    Spherical Harmonics?: true
    Max angular momentum: 3


  -Total Gradient:
     Atom            X                  Y                   Z
    ------   -----------------  -----------------  -----------------
       1        0.000000000000     0.000000000004    -0.001772036693
       2       -0.000000000000    -0.001573650633     0.000886018348
       3       -0.000000000000     0.001573650629     0.000886018345


*** tstop() called on ds9.sherrill.chemistry.gatech.edu at Fri Jul 17 16:26:05 2015
Module time:
	user time   =       0.26 seconds =       0.00 minutes
	system time =       0.00 seconds =       0.00 minutes
	total time  =          0 seconds =       0.00 minutes
Total time:
	user time   =       1.41 seconds =       0.02 minutes
	system time =       0.02 seconds =       0.00 minutes
	total time  =          2 seconds =       0.03 minutes

  //>>>>>>>>>>>>>>>>>>>>>>>>>>>>>>>>>>>//
  //    Loading displacement 4 of 6    //
  //<<<<<<<<<<<<<<<<<<<<<<<<<<<<<<<<<<<//

*** tstart() called on ds9.sherrill.chemistry.gatech.edu
*** at Fri Jul 17 16:26:05 2015

    There are an even number of electrons - assuming singlet.
    Specify the multiplicity with the MULTP option in the
    input if this is incorrect


         ---------------------------------------------------------
                                   SCF
            by Justin Turney, Rob Parrish, and Andy Simmonett
                              RHF Reference
                        1 Threads,    250 MiB Core
         ---------------------------------------------------------

  ==> Geometry <==

    Molecular point group: c2v
    Full point group: C2v

    Geometry (in Angstrom), charge = 0, multiplicity = 1:

       Center              X                  Y                   Z       
    ------------   -----------------  -----------------  -----------------
           O          0.000000000000     0.000000000000    -0.064782078048
           H          0.000000000000    -0.746744914660     0.514069294907
           H          0.000000000000     0.746744914660     0.514069294907

  Running in c2v symmetry.

  Rotational constants: A =     28.10558  B =     14.99812  C =      9.77946 [cm^-1]
  Rotational constants: A = 842584.23125  B = 449632.31034  C = 293180.81170 [MHz]
  Nuclear repulsion =    9.315583170429569

  Charge       = 0
  Multiplicity = 1
  Electrons    = 10
  Nalpha       = 5
  Nbeta        = 5

  ==> Algorithm <==

  SCF Algorithm Type is DF.
  DIIS enabled.
  MOM disabled.
  Fractional occupation disabled.
  Guess Type is CORE.
  Energy threshold   = 1.00e-08
  Density threshold  = 1.00e-08
  Integral threshold = 0.00e+00

  ==> Primary Basis <==

  Basis Set: CC-PVDZ
    Number of shells: 12
    Number of basis function: 24
    Number of Cartesian functions: 25
    Spherical Harmonics?: true
    Max angular momentum: 2

  ==> Pre-Iterations <==

   -------------------------------------------------------
    Irrep   Nso     Nmo     Nalpha   Nbeta   Ndocc  Nsocc
   -------------------------------------------------------
     A1        11      11       0       0       0       0
     A2         2       2       0       0       0       0
     B1         4       4       0       0       0       0
     B2         7       7       0       0       0       0
   -------------------------------------------------------
    Total      24      24       5       5       5       0
   -------------------------------------------------------

 OEINTS: Overlap, kinetic, potential, dipole, and quadrupole integrals
         stored in file 35.

  ==> Integral Setup <==

  ==> DFJK: Density-Fitted J/K Matrices <==

    J tasked:                  Yes
    K tasked:                  Yes
    wK tasked:                  No
    OpenMP threads:              1
    Integrals threads:           1
    Memory (MB):               178
    Algorithm:                Core
    Integral Cache:           NONE
    Schwarz Cutoff:          1E-12
    Fitting Condition:       1E-12

   => Auxiliary Basis Set <=

  Basis Set: 
    Number of shells: 42
    Number of basis function: 116
    Number of Cartesian functions: 131
    Spherical Harmonics?: true
    Max angular momentum: 3

  Minimum eigenvalue in the overlap matrix is 3.3300136891E-02.
  Using Symmetric Orthogonalization.
  SCF Guess: Core (One-Electron) Hamiltonian.

  ==> Iterations <==

                           Total Energy        Delta E     RMS |[F,P]|

    Occupation by irrep:
             A1    A2    B1    B2 
    DOCC [     3,    0,    0,    2 ]

   @DF-RHF iter   1:   -68.85548340133124   -6.88555e+01   2.28040e-01 
    Occupation by irrep:
             A1    A2    B1    B2 
    DOCC [     3,    0,    1,    1 ]

   @DF-RHF iter   2:   -69.96898392958596   -1.11350e+00   1.83562e-01 DIIS
   @DF-RHF iter   3:   -75.72583841231224   -5.75685e+00   6.47325e-02 DIIS
   @DF-RHF iter   4:   -76.00095464997938   -2.75116e-01   1.76096e-02 DIIS
   @DF-RHF iter   5:   -76.02674974949537   -2.57951e-02   1.56420e-03 DIIS
   @DF-RHF iter   6:   -76.02698714978578   -2.37400e-04   6.62386e-04 DIIS
   @DF-RHF iter   7:   -76.02702505234529   -3.79026e-05   9.38645e-05 DIIS
   @DF-RHF iter   8:   -76.02702656030186   -1.50796e-06   3.10254e-05 DIIS
   @DF-RHF iter   9:   -76.02702664439337   -8.40915e-08   1.73524e-06 DIIS
   @DF-RHF iter  10:   -76.02702664503093   -6.37556e-10   6.13632e-07 DIIS
   @DF-RHF iter  11:   -76.02702664507092   -3.99893e-11   1.06632e-07 DIIS
   @DF-RHF iter  12:   -76.02702664507203   -1.10845e-12   7.64876e-09 DIIS

  ==> Post-Iterations <==

    Orbital Energies (a.u.)
    -----------------------

    Doubly Occupied:                                                      

       1A1   -20.548271     2A1    -1.343188     1B2    -0.705881  
       3A1    -0.569034     1B1    -0.494093  

    Virtual:                                                              

       4A1     0.187617     2B2     0.258037     3B2     0.798165  
       5A1     0.866655     6A1     1.162813     2B1     1.200410  
       4B2     1.252802     7A1     1.442435     1A2     1.480260  
       3B1     1.677389     8A1     1.864841     5B2     1.949937  
       6B2     2.482524     9A1     2.522594     4B1     3.297827  
       2A2     3.351467    10A1     3.528069    11A1     3.879657  
       7B2     4.162509  

    Final Occupation by Irrep:
             A1    A2    B1    B2 
    DOCC [     3,    0,    1,    1 ]

  Energy converged.

  @DF-RHF Final Energy:   -76.02702664507203

   => Energetics <=

    Nuclear Repulsion Energy =              9.3155831704295693
    One-Electron Energy =                -123.3642861121794283
    Two-Electron Energy =                  38.0216762966778390
    DFT Exchange-Correlation Energy =       0.0000000000000000
    Empirical Dispersion Energy =           0.0000000000000000
    PCM Polarization Energy =               0.0000000000000000
    EFP Energy =                            0.0000000000000000
    Total Energy =                        -76.0270266450720271

    Alert: EFP and PCM quantities not currently incorporated into SCF psivars.

Properties will be evaluated at   0.000000,   0.000000,   0.000000 Bohr
  ==> Properties <==


Properties computed using the SCF density matrix

  Nuclear Dipole Moment: (a.u.)
     X:     0.0000      Y:     0.0000      Z:     0.9635

  Electronic Dipole Moment: (a.u.)
     X:     0.0000      Y:     0.0000      Z:    -0.1587

  Dipole Moment: (a.u.)
     X:     0.0000      Y:     0.0000      Z:     0.8049     Total:     0.8049

  Dipole Moment: (Debye)
     X:     0.0000      Y:     0.0000      Z:     2.0458     Total:     2.0458


  Saving occupied orbitals to File 180.

*** tstop() called on ds9.sherrill.chemistry.gatech.edu at Fri Jul 17 16:26:05 2015
Module time:
	user time   =       0.20 seconds =       0.00 minutes
	system time =       0.01 seconds =       0.00 minutes
	total time  =          0 seconds =       0.00 minutes
Total time:
	user time   =       1.63 seconds =       0.03 minutes
	system time =       0.03 seconds =       0.00 minutes
	total time  =          2 seconds =       0.03 minutes

*** tstart() called on ds9.sherrill.chemistry.gatech.edu
*** at Fri Jul 17 16:26:05 2015


         ------------------------------------------------------------
                                   SCF GRAD                          
                          Rob Parrish, Justin Turney,                
                       Andy Simmonett, and Alex Sokolov              
         ------------------------------------------------------------

  ==> Geometry <==

    Molecular point group: c2v
    Full point group: C2v

    Geometry (in Angstrom), charge = 0, multiplicity = 1:

       Center              X                  Y                   Z       
    ------------   -----------------  -----------------  -----------------
           O          0.000000000000     0.000000000000    -0.064782078048
           H          0.000000000000    -0.746744914660     0.514069294907
           H          0.000000000000     0.746744914660     0.514069294907

  Nuclear repulsion =    9.315583170429569

  ==> Basis Set <==

  Basis Set: CC-PVDZ
    Number of shells: 12
    Number of basis function: 24
    Number of Cartesian functions: 25
    Spherical Harmonics?: true
    Max angular momentum: 2

  ==> DFJKGrad: Density-Fitted SCF Gradients <==

    Gradient:                    1
    J tasked:                  Yes
    K tasked:                  Yes
    wK tasked:                  No
    OpenMP threads:              1
    Integrals threads:           1
    Memory (MB):               178
    Schwarz Cutoff:          0E+00
    Fitting Condition:       1E-12

   => Auxiliary Basis Set <=

  Basis Set: 
    Number of shells: 42
    Number of basis function: 116
    Number of Cartesian functions: 131
    Spherical Harmonics?: true
    Max angular momentum: 3


  -Total Gradient:
     Atom            X                  Y                   Z
    ------   -----------------  -----------------  -----------------
       1        0.000000000000     0.000000000005     0.001549636485
       2       -0.000000000000     0.001682342124    -0.000774818240
       3       -0.000000000000    -0.001682342129    -0.000774818245


*** tstop() called on ds9.sherrill.chemistry.gatech.edu at Fri Jul 17 16:26:06 2015
Module time:
	user time   =       0.23 seconds =       0.00 minutes
	system time =       0.00 seconds =       0.00 minutes
	total time  =          1 seconds =       0.02 minutes
Total time:
	user time   =       1.87 seconds =       0.03 minutes
	system time =       0.03 seconds =       0.00 minutes
	total time  =          3 seconds =       0.05 minutes

  //>>>>>>>>>>>>>>>>>>>>>>>>>>>>>>>>>>>//
  //    Loading displacement 5 of 6    //
  //<<<<<<<<<<<<<<<<<<<<<<<<<<<<<<<<<<<//

*** tstart() called on ds9.sherrill.chemistry.gatech.edu
*** at Fri Jul 17 16:26:06 2015

    There are an even number of electrons - assuming singlet.
    Specify the multiplicity with the MULTP option in the
    input if this is incorrect


         ---------------------------------------------------------
                                   SCF
            by Justin Turney, Rob Parrish, and Andy Simmonett
                              RHF Reference
                        1 Threads,    250 MiB Core
         ---------------------------------------------------------

  ==> Geometry <==

    Molecular point group: cs
    Full point group: Cs

    Geometry (in Angstrom), charge = 0, multiplicity = 1:

       Center              X                  Y                   Z       
    ------------   -----------------  -----------------  -----------------
           O          0.000000000000    -0.000178870675    -0.064782078048
           H          0.000000000000    -0.747189157578     0.512971760325
           H          0.000000000000     0.750027964991     0.515166829489

  Running in cs symmetry.

  Rotational constants: A =     28.10644  B =     14.92320  C =      9.74766 [cm^-1]
  Rotational constants: A = 842609.90907  B = 447386.38302  C = 292227.35121 [MHz]
  Nuclear repulsion =    9.300783177627558

  Charge       = 0
  Multiplicity = 1
  Electrons    = 10
  Nalpha       = 5
  Nbeta        = 5

  ==> Algorithm <==

  SCF Algorithm Type is DF.
  DIIS enabled.
  MOM disabled.
  Fractional occupation disabled.
  Guess Type is CORE.
  Energy threshold   = 1.00e-08
  Density threshold  = 1.00e-08
  Integral threshold = 0.00e+00

  ==> Primary Basis <==

  Basis Set: CC-PVDZ
    Number of shells: 12
    Number of basis function: 24
    Number of Cartesian functions: 25
    Spherical Harmonics?: true
    Max angular momentum: 2

  ==> Pre-Iterations <==

   -------------------------------------------------------
    Irrep   Nso     Nmo     Nalpha   Nbeta   Ndocc  Nsocc
   -------------------------------------------------------
     A'        18      18       0       0       0       0
     A"         6       6       0       0       0       0
   -------------------------------------------------------
    Total      24      24       5       5       5       0
   -------------------------------------------------------

 OEINTS: Overlap, kinetic, potential, dipole, and quadrupole integrals
         stored in file 35.

  ==> Integral Setup <==

  ==> DFJK: Density-Fitted J/K Matrices <==

    J tasked:                  Yes
    K tasked:                  Yes
    wK tasked:                  No
    OpenMP threads:              1
    Integrals threads:           1
    Memory (MB):               178
    Algorithm:                Core
    Integral Cache:           NONE
    Schwarz Cutoff:          1E-12
    Fitting Condition:       1E-12

   => Auxiliary Basis Set <=

  Basis Set: 
    Number of shells: 42
    Number of basis function: 116
    Number of Cartesian functions: 131
    Spherical Harmonics?: true
    Max angular momentum: 3

  Minimum eigenvalue in the overlap matrix is 3.3419583870E-02.
  Using Symmetric Orthogonalization.
  SCF Guess: Core (One-Electron) Hamiltonian.

  ==> Iterations <==

                           Total Energy        Delta E     RMS |[F,P]|

    Occupation by irrep:
             Ap   App 
    DOCC [     5,    0 ]

   @DF-RHF iter   1:   -68.85796411148374   -6.88580e+01   1.65434e-01 
    Occupation by irrep:
             Ap   App 
    DOCC [     4,    1 ]

   @DF-RHF iter   2:   -69.96917802489187   -1.11121e+00   1.33359e-01 DIIS
   @DF-RHF iter   3:   -75.72713858230270   -5.75796e+00   4.69103e-02 DIIS
   @DF-RHF iter   4:   -76.00106106529236   -2.73922e-01   1.27582e-02 DIIS
   @DF-RHF iter   5:   -76.02674665963701   -2.56856e-02   1.13500e-03 DIIS
   @DF-RHF iter   6:   -76.02698458080761   -2.37921e-04   4.82444e-04 DIIS
   @DF-RHF iter   7:   -76.02702273329615   -3.81525e-05   6.83338e-05 DIIS
   @DF-RHF iter   8:   -76.02702425345902   -1.52016e-06   2.26098e-05 DIIS
   @DF-RHF iter   9:   -76.02702433810245   -8.46434e-08   1.27475e-06 DIIS
   @DF-RHF iter  10:   -76.02702433875717   -6.54722e-10   4.51325e-07 DIIS
   @DF-RHF iter  11:   -76.02702433879844   -4.12683e-11   7.85021e-08 DIIS
   @DF-RHF iter  12:   -76.02702433879949   -1.05160e-12   5.73437e-09 DIIS

  ==> Post-Iterations <==

    Orbital Energies (a.u.)
    -----------------------

    Doubly Occupied:                                                      

       1Ap   -20.548458     2Ap    -1.342304     3Ap    -0.705347  
       4Ap    -0.568474     1App   -0.493932  

    Virtual:                                                              

       5Ap     0.187404     6Ap     0.257812     7Ap     0.797515  
       8Ap     0.864627     9Ap     1.162803     2App    1.200458  
      10Ap     1.252743    11Ap     1.443903     3App    1.479401  
       4App    1.677860    12Ap     1.865440    13Ap     1.947432  
      14Ap     2.478804    15Ap     2.519103     5App    3.295677  
       6App    3.350612    16Ap     3.525472    17Ap     3.879137  
      18Ap     4.160012  

    Final Occupation by Irrep:
             Ap   App 
    DOCC [     4,    1 ]

  Energy converged.

  @DF-RHF Final Energy:   -76.02702433879949

   => Energetics <=

    Nuclear Repulsion Energy =              9.3007831776275580
    One-Electron Energy =                -123.3385857258262490
    Two-Electron Energy =                  38.0107782093992057
    DFT Exchange-Correlation Energy =       0.0000000000000000
    Empirical Dispersion Energy =           0.0000000000000000
    PCM Polarization Energy =               0.0000000000000000
    EFP Energy =                            0.0000000000000000
    Total Energy =                        -76.0270243387994924

    Alert: EFP and PCM quantities not currently incorporated into SCF psivars.

Properties will be evaluated at   0.000000,   0.000000,   0.000000 Bohr
  ==> Properties <==


Properties computed using the SCF density matrix

  Nuclear Dipole Moment: (a.u.)
     X:     0.0000      Y:     0.0027      Z:     0.9635

  Electronic Dipole Moment: (a.u.)
     X:     0.0000      Y:    -0.0014      Z:    -0.1589

  Dipole Moment: (a.u.)
     X:     0.0000      Y:     0.0012      Z:     0.8046     Total:     0.8046

  Dipole Moment: (Debye)
     X:     0.0000      Y:     0.0032      Z:     2.0452     Total:     2.0452


  Saving occupied orbitals to File 180.

*** tstop() called on ds9.sherrill.chemistry.gatech.edu at Fri Jul 17 16:26:06 2015
Module time:
	user time   =       0.21 seconds =       0.00 minutes
	system time =       0.00 seconds =       0.00 minutes
	total time  =          0 seconds =       0.00 minutes
Total time:
	user time   =       2.10 seconds =       0.04 minutes
	system time =       0.03 seconds =       0.00 minutes
	total time  =          3 seconds =       0.05 minutes

*** tstart() called on ds9.sherrill.chemistry.gatech.edu
*** at Fri Jul 17 16:26:06 2015


         ------------------------------------------------------------
                                   SCF GRAD                          
                          Rob Parrish, Justin Turney,                
                       Andy Simmonett, and Alex Sokolov              
         ------------------------------------------------------------

  ==> Geometry <==

    Molecular point group: cs
    Full point group: Cs

    Geometry (in Angstrom), charge = 0, multiplicity = 1:

       Center              X                  Y                   Z       
    ------------   -----------------  -----------------  -----------------
           O          0.000000000000    -0.000178870675    -0.064782078048
           H          0.000000000000    -0.747189157578     0.512971760325
           H          0.000000000000     0.750027964991     0.515166829489

  Nuclear repulsion =    9.300783177627558

  ==> Basis Set <==

  Basis Set: CC-PVDZ
    Number of shells: 12
    Number of basis function: 24
    Number of Cartesian functions: 25
    Spherical Harmonics?: true
    Max angular momentum: 2

  ==> DFJKGrad: Density-Fitted SCF Gradients <==

    Gradient:                    1
    J tasked:                  Yes
    K tasked:                  Yes
    wK tasked:                  No
    OpenMP threads:              1
    Integrals threads:           1
    Memory (MB):               178
    Schwarz Cutoff:          0E+00
    Fitting Condition:       1E-12

   => Auxiliary Basis Set <=

  Basis Set: 
    Number of shells: 42
    Number of basis function: 116
    Number of Cartesian functions: 131
    Spherical Harmonics?: true
    Max angular momentum: 3


  -Total Gradient:
     Atom            X                  Y                   Z
    ------   -----------------  -----------------  -----------------
       1        0.000000000000    -0.003629443207    -0.000103775654
       2       -0.000000000000     0.001873890713    -0.001351123501
       3        0.000000000000     0.001755552494     0.001454899155


*** tstop() called on ds9.sherrill.chemistry.gatech.edu at Fri Jul 17 16:26:06 2015
Module time:
	user time   =       0.25 seconds =       0.00 minutes
	system time =       0.01 seconds =       0.00 minutes
	total time  =          0 seconds =       0.00 minutes
Total time:
	user time   =       2.35 seconds =       0.04 minutes
	system time =       0.04 seconds =       0.00 minutes
	total time  =          3 seconds =       0.05 minutes

  //>>>>>>>>>>>>>>>>>>>>>>>>>>>>>>>>>>>//
  //    Loading displacement 6 of 6    //
  //<<<<<<<<<<<<<<<<<<<<<<<<<<<<<<<<<<<//

*** tstart() called on ds9.sherrill.chemistry.gatech.edu
*** at Fri Jul 17 16:26:06 2015

    There are an even number of electrons - assuming singlet.
    Specify the multiplicity with the MULTP option in the
    input if this is incorrect


         ---------------------------------------------------------
                                   SCF
            by Justin Turney, Rob Parrish, and Andy Simmonett
                              RHF Reference
                        1 Threads,    250 MiB Core
         ---------------------------------------------------------

  ==> Geometry <==

    Molecular point group: c2v
    Full point group: C2v

    Geometry (in Angstrom), charge = 0, multiplicity = 1:

       Center              X                  Y                   Z       
    ------------   -----------------  -----------------  -----------------
           O          0.000000000000     0.000000000000    -0.064782078048
           H          0.000000000000    -0.748608561284     0.514069294907
           H          0.000000000000     0.748608561284     0.514069294907

  Running in c2v symmetry.

  Rotational constants: A =     28.10558  B =     14.92354  C =      9.74769 [cm^-1]
  Rotational constants: A = 842584.23125  B = 447396.39495  C = 292228.53417 [MHz]
  Nuclear repulsion =    9.300746177729851

  Charge       = 0
  Multiplicity = 1
  Electrons    = 10
  Nalpha       = 5
  Nbeta        = 5

  ==> Algorithm <==

  SCF Algorithm Type is DF.
  DIIS enabled.
  MOM disabled.
  Fractional occupation disabled.
  Guess Type is CORE.
  Energy threshold   = 1.00e-08
  Density threshold  = 1.00e-08
  Integral threshold = 0.00e+00

  ==> Primary Basis <==

  Basis Set: CC-PVDZ
    Number of shells: 12
    Number of basis function: 24
    Number of Cartesian functions: 25
    Spherical Harmonics?: true
    Max angular momentum: 2

  ==> Pre-Iterations <==

   -------------------------------------------------------
    Irrep   Nso     Nmo     Nalpha   Nbeta   Ndocc  Nsocc
   -------------------------------------------------------
     A1        11      11       0       0       0       0
     A2         2       2       0       0       0       0
     B1         4       4       0       0       0       0
     B2         7       7       0       0       0       0
   -------------------------------------------------------
    Total      24      24       5       5       5       0
   -------------------------------------------------------

 OEINTS: Overlap, kinetic, potential, dipole, and quadrupole integrals
         stored in file 35.

  ==> Integral Setup <==

  ==> DFJK: Density-Fitted J/K Matrices <==

    J tasked:                  Yes
    K tasked:                  Yes
    wK tasked:                  No
    OpenMP threads:              1
    Integrals threads:           1
    Memory (MB):               178
    Algorithm:                Core
    Integral Cache:           NONE
    Schwarz Cutoff:          1E-12
    Fitting Condition:       1E-12

   => Auxiliary Basis Set <=

  Basis Set: 
    Number of shells: 42
    Number of basis function: 116
    Number of Cartesian functions: 131
    Spherical Harmonics?: true
    Max angular momentum: 3

  Minimum eigenvalue in the overlap matrix is 3.3420439372E-02.
  Using Symmetric Orthogonalization.
  SCF Guess: Core (One-Electron) Hamiltonian.

  ==> Iterations <==

                           Total Energy        Delta E     RMS |[F,P]|

    Occupation by irrep:
             A1    A2    B1    B2 
    DOCC [     3,    0,    0,    2 ]

   @DF-RHF iter   1:   -68.85797549452337   -6.88580e+01   2.27718e-01 
    Occupation by irrep:
             A1    A2    B1    B2 
    DOCC [     3,    0,    1,    1 ]

   @DF-RHF iter   2:   -69.96922724416223   -1.11125e+00   1.83567e-01 DIIS
   @DF-RHF iter   3:   -75.72716164414955   -5.75793e+00   6.45704e-02 DIIS
   @DF-RHF iter   4:   -76.00107120998035   -2.73910e-01   1.75611e-02 DIIS
   @DF-RHF iter   5:   -76.02675511201335   -2.56839e-02   1.56218e-03 DIIS
   @DF-RHF iter   6:   -76.02699298260004   -2.37871e-04   6.64036e-04 DIIS
   @DF-RHF iter   7:   -76.02703112500507   -3.81424e-05   9.40387e-05 DIIS
   @DF-RHF iter   8:   -76.02703264428723   -1.51928e-06   3.11193e-05 DIIS
   @DF-RHF iter   9:   -76.02703272889549   -8.46083e-08   1.75260e-06 DIIS
   @DF-RHF iter  10:   -76.02703272954864   -6.53145e-10   6.20706e-07 DIIS
   @DF-RHF iter  11:   -76.02703272958979   -4.11546e-11   1.08334e-07 DIIS
   @DF-RHF iter  12:   -76.02703272959091   -1.12266e-12   7.72190e-09 DIIS

  ==> Post-Iterations <==

    Orbital Energies (a.u.)
    -----------------------

    Doubly Occupied:                                                      

       1A1   -20.548459     2A1    -1.342300     1B2    -0.705346  
       3A1    -0.568475     1B1    -0.493931  

    Virtual:                                                              

       4A1     0.187407     2B2     0.257811     3B2     0.797558  
       5A1     0.864576     6A1     1.162809     2B1     1.200462  
       4B2     1.252735     7A1     1.443901     1A2     1.479395  
       3B1     1.677858     8A1     1.865440     5B2     1.947432  
       6B2     2.479384     9A1     2.518503     4B1     3.295749  
       2A2     3.350535    10A1     3.525467    11A1     3.879156  
       7B2     4.159986  

    Final Occupation by Irrep:
             A1    A2    B1    B2 
    DOCC [     3,    0,    1,    1 ]

  Energy converged.

  @DF-RHF Final Energy:   -76.02703272959091

   => Energetics <=

    Nuclear Repulsion Energy =              9.3007461777298506
    One-Electron Energy =                -123.3385364721673199
    Two-Electron Energy =                  38.0107575648465428
    DFT Exchange-Correlation Energy =       0.0000000000000000
    Empirical Dispersion Energy =           0.0000000000000000
    PCM Polarization Energy =               0.0000000000000000
    EFP Energy =                            0.0000000000000000
    Total Energy =                        -76.0270327295909283

    Alert: EFP and PCM quantities not currently incorporated into SCF psivars.

Properties will be evaluated at   0.000000,   0.000000,   0.000000 Bohr
  ==> Properties <==


Properties computed using the SCF density matrix

  Nuclear Dipole Moment: (a.u.)
     X:     0.0000      Y:     0.0000      Z:     0.9635

  Electronic Dipole Moment: (a.u.)
     X:     0.0000      Y:     0.0000      Z:    -0.1589

  Dipole Moment: (a.u.)
     X:     0.0000      Y:     0.0000      Z:     0.8046     Total:     0.8046

  Dipole Moment: (Debye)
     X:     0.0000      Y:     0.0000      Z:     2.0452     Total:     2.0452


  Saving occupied orbitals to File 180.

*** tstop() called on ds9.sherrill.chemistry.gatech.edu at Fri Jul 17 16:26:07 2015
Module time:
	user time   =       0.20 seconds =       0.00 minutes
	system time =       0.01 seconds =       0.00 minutes
	total time  =          1 seconds =       0.02 minutes
Total time:
	user time   =       2.57 seconds =       0.04 minutes
	system time =       0.05 seconds =       0.00 minutes
	total time  =          4 seconds =       0.07 minutes

*** tstart() called on ds9.sherrill.chemistry.gatech.edu
*** at Fri Jul 17 16:26:07 2015


         ------------------------------------------------------------
                                   SCF GRAD                          
                          Rob Parrish, Justin Turney,                
                       Andy Simmonett, and Alex Sokolov              
         ------------------------------------------------------------

  ==> Geometry <==

    Molecular point group: c2v
    Full point group: C2v

    Geometry (in Angstrom), charge = 0, multiplicity = 1:

       Center              X                  Y                   Z       
    ------------   -----------------  -----------------  -----------------
           O          0.000000000000     0.000000000000    -0.064782078048
           H          0.000000000000    -0.748608561284     0.514069294907
           H          0.000000000000     0.748608561284     0.514069294907

  Nuclear repulsion =    9.300746177729851

  ==> Basis Set <==

  Basis Set: CC-PVDZ
    Number of shells: 12
    Number of basis function: 24
    Number of Cartesian functions: 25
    Spherical Harmonics?: true
    Max angular momentum: 2

  ==> DFJKGrad: Density-Fitted SCF Gradients <==

    Gradient:                    1
    J tasked:                  Yes
    K tasked:                  Yes
    wK tasked:                  No
    OpenMP threads:              1
    Integrals threads:           1
    Memory (MB):               178
    Schwarz Cutoff:          0E+00
    Fitting Condition:       1E-12

   => Auxiliary Basis Set <=

  Basis Set: 
    Number of shells: 42
    Number of basis function: 116
    Number of Cartesian functions: 131
    Spherical Harmonics?: true
    Max angular momentum: 3


  -Total Gradient:
     Atom            X                  Y                   Z
    ------   -----------------  -----------------  -----------------
       1        0.000000000000     0.000000000001    -0.000122878243
       2       -0.000000000000     0.000047593209     0.000061439122
       3       -0.000000000000    -0.000047593210     0.000061439121


*** tstop() called on ds9.sherrill.chemistry.gatech.edu at Fri Jul 17 16:26:07 2015
Module time:
	user time   =       0.24 seconds =       0.00 minutes
	system time =       0.01 seconds =       0.00 minutes
	total time  =          0 seconds =       0.00 minutes
Total time:
	user time   =       2.81 seconds =       0.05 minutes
	system time =       0.06 seconds =       0.00 minutes
	total time  =          4 seconds =       0.07 minutes

-------------------------------------------------------------

  Computing second-derivative from gradients using projected, 
  symmetry-adapted, cartesian coordinates (fd_freq_1).

  6 gradients passed in, including the reference geometry.
  Generating complete list of displacements from unique ones.

	Operation 2 takes plus displacements of irrep B2 to minus ones.

	  Irrep      Harmonic Frequency   
	                  (cm-1)          
	-----------------------------------------------
	     A1         1776.7086  
	     A1         4113.6152  
	     B2         4211.6640  
	-----------------------------------------------

	Normal Modes (mass-weighted).
	Molecular mass is   18.01056 amu.
	Frequencies in cm^-1; force constants in au.

   Frequency:       1776.71
   Force constant:   0.1195
	     X       Y       Z           mass	
  O 	   0.000   0.000  -0.270      15.994915
  H 	   0.000   0.418   0.538       1.007825
  H 	   0.000  -0.418   0.538       1.007825

   Frequency:       4113.62
   Force constant:   0.6404
	     X       Y       Z           mass	
  O 	   0.000   0.000   0.198      15.994915
  H 	   0.000   0.571  -0.394       1.007825
  H 	   0.000  -0.571  -0.394       1.007825

   Frequency:       4211.66
   Force constant:   0.6713
	     X       Y       Z           mass	
  O 	   0.000   0.270   0.000      15.994915
  H 	   0.000  -0.539   0.416       1.007825
  H 	   0.000  -0.539  -0.416       1.007825

-------------------------------------------------------------

            *********************************************
            * Thermodynamic Analysis by R.A. King, 2012 *
            *********************************************

    Full point group: Cnv (C2v)

    Data used to determine thermochemical information:
    Temperature (K):          298.15
    Pressure (Pa)  :       101325.00
    Multiplicity   :               1
    Rotor type     :  ASYMMETRIC_TOP
    Rotational symmetry number :   2

    Rotational constants:
           wavenumbers          GHz
        A:   28.105585    842.58423
        B:   14.923537    447.39639
        C:    9.747695    292.22853

    Nuclear masses:
         15.994915  1.007825  1.007825

    No.    Vib. Freq. (cm^-1)      Vib. Temp. (K)
      1              1776.709            2556.284
      2              4113.615            5918.567
      3              4211.664            6059.638

    Component        Thermal Energy             Cv              S
                           kcal/mol    cal/(mol K)    cal/(mol K) 
    Electronic                0.000          0.000          0.000
    Translational             0.889          2.981         34.608
    Rotational                0.889          2.981         10.377
    Vibrational              14.442          0.028          0.004
    Total                    16.220          5.989         44.989

                               cm^(-1)              au        kcal/mol
    Zero-point energy        5050.9939      0.02301402         14.4415

    Energies in Hartree/particle:   Correction            Total
    Energy (0 K)                    0.02301402     -76.00401871
    Internal energy                 0.02584811     -76.00118462
    Enthalpy                        0.02679229     -76.00024044
    Gibbs Free Energy               0.00541656     -76.02161617

*** PSI4 exiting successfully. Buy a developer a beer!
