
    -----------------------------------------------------------------------
          Psi4: An Open-Source Ab Initio Electronic Structure Package
                               Psi4 1.1rc3.dev5 

                         Git: Rev {master} 3fbd859 


    R. M. Parrish, L. A. Burns, D. G. A. Smith, A. C. Simmonett,
    A. E. DePrince III, E. G. Hohenstein, U. Bozkaya, A. Yu. Sokolov,
    R. Di Remigio, R. M. Richard, J. F. Gonthier, A. M. James,
    H. R. McAlexander, A. Kumar, M. Saitow, X. Wang, B. P. Pritchard,
    P. Verma, H. F. Schaefer III, K. Patkowski, R. A. King, E. F. Valeev,
    F. A. Evangelista, J. M. Turney, T. D. Crawford, and C. D. Sherrill,
    J. Chem. Theory Comput. in press (2017).
    (doi: 10.1021/acs.jctc.7b00174)

    -----------------------------------------------------------------------


    Psi4 started on: Monday, 15 May 2017 03:34PM

    Process ID:  12978
    PSIDATADIR: /home/psilocaluser/gits/hrw-direct/objdir4/stage/usr/local/psi4/share/psi4
    Memory:     500.0 MiB
    Threads:    1
    
  ==> Input File <==

--------------------------------------------------------------------------
#! RHF-CCSD(T) cc-pVQZ frozen-core energy of the BH molecule, with Cartesian input.
#! This version tests the FROZEN_DOCC option explicitly

refnuc   =   2.64588604295000 #TEST
refscf   = -25.10354689697916 #TEST
refccsd  =  -0.10026580394658 #TEST
ref_t    =  -0.00209093345229 #TEST
reftotal = -25.20590363437792 #TEST

molecule bh {
    b      0.0000        0.0000        0.0000
    h      0.0000        0.0000        1.0000
}

set {
   docc [3, 0, 0, 0]
   frozen_docc [1, 0, 0, 0]
   basis cc-pvqz
   r_convergence 10
   e_convergence 10
   d_convergence 10
}

energy('ccsd(t)')

compare_values(refnuc,   bh.nuclear_repulsion_energy(),           9, "Nuclear repulsion energy") #TEST
compare_values(refscf,   get_variable("SCF total energy"),        9, "SCF energy")               #TEST
compare_values(refccsd,  get_variable("CCSD correlation energy"), 9, "CCSD contribution")        #TEST
compare_values(ref_t,    get_variable("(T) correction energy"),   9, "(T) contribution")         #TEST
compare_values(reftotal, get_variable("Current energy"),          9, "Total energy")             #TEST
--------------------------------------------------------------------------

*** tstart() called on psinet
*** at Mon May 15 15:34:49 2017

   => Loading Basis Set <=

    Name: CC-PVQZ
    Role: ORBITAL
    Keyword: BASIS
    atoms 1 entry B          line   169 file /home/psilocaluser/gits/hrw-direct/objdir4/stage/usr/local/psi4/share/psi4/basis/cc-pvqz.gbs 
    atoms 2 entry H          line    20 file /home/psilocaluser/gits/hrw-direct/objdir4/stage/usr/local/psi4/share/psi4/basis/cc-pvqz.gbs 

    There are an even number of electrons - assuming singlet.
    Specify the multiplicity in the molecule input block.


         ---------------------------------------------------------
                                   SCF
            by Justin Turney, Rob Parrish, and Andy Simmonett
                              RHF Reference
                        1 Threads,    500 MiB Core
         ---------------------------------------------------------

  ==> Geometry <==

    Molecular point group: c2v
    Full point group: C_inf_v

    Geometry (in Angstrom), charge = 0, multiplicity = 1:

       Center              X                  Y                   Z               Mass       
    ------------   -----------------  -----------------  -----------------  -----------------
           B          0.000000000000     0.000000000000    -0.083865697994    11.009305406000
           H          0.000000000000     0.000000000000     0.916134302006     1.007825032070

  Running in c2v symmetry.

  Rotational constants: A = ************  B =     18.25796  C =     18.25796 [cm^-1]
  Rotational constants: A = ************  B = 547359.81574  C = 547359.81574 [MHz]
  Nuclear repulsion =    2.645886042950000

  Charge       = 0
  Multiplicity = 1
  Electrons    = 6
  Nalpha       = 3
  Nbeta        = 3

  ==> Algorithm <==

  SCF Algorithm Type is PK.
  DIIS enabled.
  MOM disabled.
  Fractional occupation disabled.
  Guess Type is SAD.
  Energy threshold   = 1.00e-10
  Density threshold  = 1.00e-10
  Integral threshold = 0.00e+00

  ==> Primary Basis <==

  Basis Set: CC-PVQZ
    Blend: CC-PVQZ
    Number of shells: 25
    Number of basis function: 85
    Number of Cartesian functions: 105
    Spherical Harmonics?: true
    Max angular momentum: 4

  ==> Pre-Iterations <==

   -------------------------------------------------------
    Irrep   Nso     Nmo     Nalpha   Nbeta   Ndocc  Nsocc
   -------------------------------------------------------
     A1        35      35       3       3       3       0
     A2        10      10       0       0       0       0
     B1        20      20       0       0       0       0
     B2        20      20       0       0       0       0
   -------------------------------------------------------
    Total      85      85       3       3       3       0
   -------------------------------------------------------

  ==> Integral Setup <==

  Using in-core PK algorithm.
   Calculation information:
      Number of atoms:                   2
      Number of AO shells:              25
      Number of primitives:             45
      Number of atomic orbitals:       105
      Number of basis functions:        85

      Integral cutoff                 1.00e-12
      Number of threads:                 1

  Performing in-core PK
  Using 13362680 doubles for integral storage.
  We computed 52975 shell quartets total.
  Whereas there are 52975 unique shell quartets.
  ==> DiskJK: Disk-Based J/K Matrices <==

    J tasked:                  Yes
    K tasked:                  Yes
    wK tasked:                  No
    Memory (MB):               375
    Schwarz Cutoff:          1E-12

    OpenMP threads:              1
  Minimum eigenvalue in the overlap matrix is 2.2491309807E-04.
  Using Symmetric Orthogonalization.

  SCF Guess: Superposition of Atomic Densities via on-the-fly atomic UHF.

  ==> Iterations <==

                        Total Energy        Delta E     RMS |[F,P]|

   @RHF iter   0:   -25.02916226677917   -2.50292e+01   1.62483e-02 
   @RHF iter   1:   -25.08418044433338   -5.50182e-02   2.97654e-03 
   @RHF iter   2:   -25.10218712815698   -1.80067e-02   7.06949e-04 DIIS
   @RHF iter   3:   -25.10342876682225   -1.24164e-03   1.71673e-04 DIIS
   @RHF iter   4:   -25.10354127898315   -1.12512e-04   3.11692e-05 DIIS
   @RHF iter   5:   -25.10354672905039   -5.45007e-06   5.46775e-06 DIIS
   @RHF iter   6:   -25.10354689598174   -1.66931e-07   5.59284e-07 DIIS
   @RHF iter   7:   -25.10354689696674   -9.84997e-10   6.57504e-08 DIIS
   @RHF iter   8:   -25.10354689697925   -1.25091e-11   3.89633e-09 DIIS
   @RHF iter   9:   -25.10354689697928   -2.84217e-14   2.93866e-10 DIIS
   @RHF iter  10:   -25.10354689697926    2.13163e-14   3.15449e-11 DIIS

  ==> Post-Iterations <==

    Orbital Energies (a.u.)
    -----------------------

    Doubly Occupied:                                                      

       1A1    -7.656449     2A1    -0.715781     3A1    -0.341709  

    Virtual:                                                              

       1B1     0.045923     1B2     0.045923     4A1     0.154085  
       5A1     0.215379     6A1     0.264489     2B2     0.267602  
       2B1     0.267602     3B2     0.395341     3B1     0.395341  
       1A2     0.408508     7A1     0.408508     8A1     0.498906  
       9A1     0.694962    10A1     0.760301     4B2     0.858235  
       4B1     0.858235     5B2     1.013777     5B1     1.013777  
      11A1     1.210558     6B2     1.219679     6B1     1.219679  
       2A2     1.221072    12A1     1.221072     7B2     1.316383  
       7B1     1.316383     3A2     1.341361    13A1     1.341361  
      14A1     1.348576    15A1     1.473935     8B2     1.532751  
       8B1     1.532751    16A1     1.726656    17A1     2.136117  
       4A2     2.538373    18A1     2.538373     9B2     2.610957  
       9B1     2.610957    19A1     2.855272    10B2     3.064834  
      10B1     3.064834    20A1     3.397074     5A2     3.397074  
      11B2     3.412515    11B1     3.412515    21A1     3.566685  
      12B2     3.739854    12B1     3.739854     6A2     3.809173  
      22A1     3.809173     7A2     3.897341    23A1     3.897341  
      24A1     3.908670    13B2     3.947554    13B1     3.947554  
      14B1     3.949190    14B2     3.949190    15B2     4.001132  
      15B1     4.001132     8A2     4.099324    25A1     4.099324  
      26A1     4.138267    27A1     5.032926    28A1     5.283525  
      16B2     5.505709    16B1     5.505709    17B1     6.418822  
      17B2     6.418822    29A1     7.300731    18B2     7.574075  
      18B1     7.574075    30A1     7.596982     9A2     7.596982  
      31A1     8.191050    10A2     8.448402    32A1     8.448402  
      19B2     8.895755    19B1     8.895755    20B2     9.775047  
      20B1     9.775047    33A1     9.801553    34A1    11.149102  
      35A1    17.128233  

    Final Occupation by Irrep:
             A1    A2    B1    B2 
    DOCC [     3,    0,    0,    0 ]

  Energy converged.

  @RHF Final Energy:   -25.10354689697926

   => Energetics <=

    Nuclear Repulsion Energy =              2.6458860429499995
    One-Electron Energy =                 -38.0709874462103102
    Two-Electron Energy =                  10.3215545062810570
    DFT Exchange-Correlation Energy =       0.0000000000000000
    Empirical Dispersion Energy =           0.0000000000000000
    PCM Polarization Energy =               0.0000000000000000
    EFP Energy =                            0.0000000000000000
    Total Energy =                        -25.1035468969792568



Properties will be evaluated at   0.000000,   0.000000,   0.000000 Bohr

Properties computed using the SCF density matrix

  Nuclear Dipole Moment: (a.u.)
     X:     0.0000      Y:     0.0000      Z:     0.9388

  Electronic Dipole Moment: (a.u.)
     X:     0.0000      Y:     0.0000      Z:    -0.0281

  Dipole Moment: (a.u.)
     X:     0.0000      Y:     0.0000      Z:     0.9107     Total:     0.9107

  Dipole Moment: (Debye)
     X:     0.0000      Y:     0.0000      Z:     2.3148     Total:     2.3148


*** tstop() called on psinet at Mon May 15 15:34:50 2017
Module time:
	user time   =       1.35 seconds =       0.02 minutes
	system time =       0.05 seconds =       0.00 minutes
	total time  =          1 seconds =       0.02 minutes
Total time:
	user time   =       1.35 seconds =       0.02 minutes
	system time =       0.05 seconds =       0.00 minutes
	total time  =          1 seconds =       0.02 minutes
 MINTS: Wrapper to libmints.
   by Justin Turney

   Calculation information:
      Number of threads:                 1
      Number of atoms:                   2
      Number of AO shells:              25
      Number of SO shells:              25
      Number of primitives:             45
      Number of atomic orbitals:       105
      Number of basis functions:        85

      Number of irreps:                  4
      Integral cutoff                 0.00e+00
      Number of functions per irrep: [  35   10   20   20 ]

 OEINTS: Overlap, kinetic, potential, dipole, and quadrupole integrals
         stored in file 35.

      Computing two-electron integrals...done
      Computed 1539753 non-zero two-electron integrals.
        Stored in file 33.


*** tstart() called on psinet
*** at Mon May 15 15:34:51 2017


	Wfn Parameters:
	--------------------
	Wavefunction         = CCSD_T
	Number of irreps     = 4
	Number of MOs        = 85
	Number of active MOs = 84
	AO-Basis             = NONE
	Semicanonical        = false
	Reference            = RHF
	Print Level          = 1

	IRREP	# MOs	# FZDC	# DOCC	# SOCC	# VIRT	# FZVR
	-----	-----	------	------	------	------	------
	 A1	   35	    1	    2	    0	    32	    0
	 A2	   10	    0	    0	    0	    10	    0
	 B1	   20	    0	    0	    0	    20	    0
	 B2	   20	    0	    0	    0	    20	    0
	Transforming integrals...
	IWL integrals will be deleted.
	(OO|OO)...
	Presorting SO-basis two-electron integrals.
	Sorting File: SO Ints (nn|nn) nbuckets = 1
	Transforming the one-electron integrals and constructing Fock matrices
	Starting first half-transformation.
	Sorting half-transformed integrals.
	First half integral transformation complete.
	Starting second half-transformation.
	Two-electron integral transformation complete.
	(OO|OV)...
	Starting second half-transformation.
	Two-electron integral transformation complete.
	(OO|VV)...
	Starting second half-transformation.
	Two-electron integral transformation complete.
	(OV|OO)...
	Starting first half-transformation.
	Sorting half-transformed integrals.
	First half integral transformation complete.
	Starting second half-transformation.
	Two-electron integral transformation complete.
	(OV|OV)...
	Starting second half-transformation.
	Two-electron integral transformation complete.
	(OV|VV)...
	Starting second half-transformation.
	Two-electron integral transformation complete.
	(VV|OO)...
	Starting first half-transformation.
	Sorting half-transformed integrals.
	First half integral transformation complete.
	Starting second half-transformation.
	Two-electron integral transformation complete.
	(VV|OV)...
	Starting second half-transformation.
	Two-electron integral transformation complete.
	(VV|VV)...
	Starting second half-transformation.
	Two-electron integral transformation complete.
	Frozen core energy     =    -23.04443739899603

	Size of irrep 0 of <ab|cd> integrals:      3.702 (MW) /     29.614 (MB)
	Size of irrep 1 of <ab|cd> integrals:      2.074 (MW) /     16.589 (MB)
	Size of irrep 2 of <ab|cd> integrals:      2.822 (MW) /     22.579 (MB)
	Size of irrep 3 of <ab|cd> integrals:      2.822 (MW) /     22.579 (MB)
	Total:                                    11.420 (MW) /     91.361 (MB)

	Size of irrep 0 of <ia|bc> integrals:      0.123 (MW) /      0.985 (MB)
	Size of irrep 1 of <ia|bc> integrals:      0.029 (MW) /      0.230 (MB)
	Size of irrep 2 of <ia|bc> integrals:      0.067 (MW) /      0.538 (MB)
	Size of irrep 3 of <ia|bc> integrals:      0.067 (MW) /      0.538 (MB)
	Total:                                     0.286 (MW) /      2.291 (MB)

	Size of irrep 0 of tijab amplitudes:       0.008 (MW) /      0.062 (MB)
	Size of irrep 1 of tijab amplitudes:       0.000 (MW) /      0.000 (MB)
	Size of irrep 2 of tijab amplitudes:       0.000 (MW) /      0.000 (MB)
	Size of irrep 3 of tijab amplitudes:       0.000 (MW) /      0.000 (MB)
	Total:                                     0.008 (MW) /      0.062 (MB)

	Nuclear Rep. energy          =      2.64588604295000
	SCF energy                   =    -25.10354689697926
	One-electron energy          =     -7.29501027033450
	Two-electron energy          =      2.59001472940127
	Reference energy             =    -25.10354689697926

*** tstop() called on psinet at Mon May 15 15:34:52 2017
Module time:
	user time   =       0.78 seconds =       0.01 minutes
	system time =       0.42 seconds =       0.01 minutes
	total time  =          1 seconds =       0.02 minutes
Total time:
	user time   =       2.68 seconds =       0.04 minutes
	system time =       0.49 seconds =       0.01 minutes
	total time  =          3 seconds =       0.05 minutes

*** tstart() called on psinet
*** at Mon May 15 15:34:52 2017

            **************************
            *                        *
            *        CCENERGY        *
            *                        *
            **************************

    Nuclear Rep. energy (wfn)     =    2.645886042950000
    SCF energy          (wfn)     =  -25.103546896979257
    Reference energy    (file100) =  -25.103546896979257

    Input parameters:
    -----------------
    Wave function   =     CCSD_T
    Reference wfn   =     RHF
    Brueckner       =     No
    Memory (Mbytes) =     524.3
    Maxiter         =     50
    R_Convergence   =     1.0e-10
    E_Convergence   =     1.0e-10
    Restart         =     Yes
    DIIS            =     Yes
    AO Basis        =     NONE
    ABCD            =     NEW
    Cache Level     =     2
    Cache Type      =     LOW
    Print Level     =     1
    Num. of threads =     1
    # Amps to Print =     10
    Print MP2 Amps? =     No
    Analyze T2 Amps =     No
    Print Pair Ener =     No
    Local CC        =     No
    SCS-MP2         =     False
    SCSN-MP2        =     False
    SCS-CCSD        =     False

MP2 correlation energy -0.0777617270459118
                Solving CC Amplitude Equations
                ------------------------------
  Iter             Energy              RMS        T1Diag      D1Diag    New D1Diag    D2Diag
  ----     ---------------------    ---------   ----------  ----------  ----------   --------
     0        -0.077761727045912    0.000e+00    0.000000    0.000000    0.000000    0.148207
     1        -0.090565418842497    5.829e-02    0.005971    0.011378    0.011378    0.195011
     2        -0.099495831201174    3.230e-02    0.010799    0.021037    0.021037    0.245320
     3        -0.100028586689301    1.064e-02    0.012663    0.024895    0.024895    0.261917
     4        -0.100273127958931    3.505e-03    0.013052    0.025729    0.025729    0.266875
     5        -0.100252815767801    1.289e-03    0.013046    0.025728    0.025728    0.267149
     6        -0.100258384969612    4.069e-04    0.013001    0.025635    0.025635    0.267224
     7        -0.100267433478249    9.945e-05    0.012989    0.025611    0.025611    0.267318
     8        -0.100265922009268    2.126e-05    0.012984    0.025599    0.025599    0.267312
     9        -0.100265784627467    4.744e-06    0.012982    0.025596    0.025596    0.267312
    10        -0.100265805487250    1.353e-06    0.012982    0.025595    0.025595    0.267312
    11        -0.100265809707498    3.294e-07    0.012982    0.025595    0.025595    0.267312
    12        -0.100265806149413    1.059e-07    0.012982    0.025595    0.025595    0.267312
    13        -0.100265803673547    2.286e-08    0.012982    0.025595    0.025595    0.267312
    14        -0.100265803851432    5.332e-09    0.012982    0.025595    0.025595    0.267312
    15        -0.100265803935537    1.648e-09    0.012982    0.025595    0.025595    0.267312
    16        -0.100265803958469    6.115e-10    0.012982    0.025595    0.025595    0.267312
    17        -0.100265803938777    2.874e-10    0.012982    0.025595    0.025595    0.267312
    18        -0.100265803935329    9.330e-11    0.012982    0.025595    0.025595    0.267312

    Iterations converged.


    Largest TIA Amplitudes:
              1   1         0.0169682687
              1   4        -0.0118098016
              1   2        -0.0097755533
              1  10         0.0054481606
              0   4         0.0051858811
              0   1        -0.0051797616
              1   5         0.0048449451
              0  10        -0.0031773620
              0   5        -0.0030988703
              1   7         0.0023553185

    Largest TIjAb Amplitudes:
      1   1  42  42        -0.1078166236
      1   1  62  62        -0.1078166235
      1   1  42  43        -0.0571252180
      1   1  43  42        -0.0571252180
      1   1  62  63        -0.0571252180
      1   1  63  62        -0.0571252180
      1   1   2   2        -0.0430333628
      1   1  42  44        -0.0406258130
      1   1  44  42        -0.0406258130
      1   1  62  64        -0.0406258130

    SCF energy       (wfn)                    =  -25.103546896979257
    Reference energy (file100)                =  -25.103546896979257

    Opposite-spin MP2 correlation energy      =   -0.072816818185095
    Same-spin MP2 correlation energy          =   -0.004944908860817
    MP2 correlation energy                    =   -0.077761727045912
      * MP2 total energy                      =  -25.181308624025167

    Opposite-spin CCSD correlation energy     =   -0.095052637397043
    Same-spin CCSD correlation energy         =   -0.005213166539743
    CCSD correlation energy                   =   -0.100265803935329
      * CCSD total energy                     =  -25.203812700914586


*** tstop() called on psinet at Mon May 15 15:34:53 2017
Module time:
	user time   =       0.30 seconds =       0.00 minutes
	system time =       0.47 seconds =       0.01 minutes
	total time  =          1 seconds =       0.02 minutes
Total time:
	user time   =       2.98 seconds =       0.05 minutes
	system time =       0.96 seconds =       0.02 minutes
	total time  =          4 seconds =       0.07 minutes

*** tstart() called on psinet
*** at Mon May 15 15:34:53 2017

            **************************
            *                        *
            *        CCTRIPLES       *
            *                        *
            **************************


    Wave function   =    CCSD_T
    Reference wfn   =      RHF

    Nuclear Rep. energy (wfn)                =    2.645886042950000
    SCF energy          (wfn)                =  -25.103546896979257
    Reference energy    (file100)            =  -25.103546896979257
    CCSD energy         (file100)            =   -0.100265803935329
    Total CCSD energy   (file100)            =  -25.203812700914586

    Number of ijk index combinations:                4
    Memory available in words        :        65536000
    ~Words needed per explicit thread:          131072
    Number of threads for explicit ijk threading:    1

    MKL num_threads set to 1 for explicit threading.

    (T) energy                                =   -0.002090933451075
      * CCSD(T) total energy                  =  -25.205903634365662


*** tstop() called on psinet at Mon May 15 15:34:53 2017
Module time:
	user time   =       0.06 seconds =       0.00 minutes
	system time =       0.02 seconds =       0.00 minutes
	total time  =          0 seconds =       0.00 minutes
Total time:
	user time   =       3.04 seconds =       0.05 minutes
	system time =       0.98 seconds =       0.02 minutes
	total time  =          4 seconds =       0.07 minutes
	Nuclear repulsion energy..........................................PASSED
	SCF energy........................................................PASSED
	CCSD contribution.................................................PASSED
	(T) contribution..................................................PASSED
	Total energy......................................................PASSED

*** Psi4 exiting successfully. Buy a developer a beer!
