    -----------------------------------------------------------------------
          PSI4: An Open-Source Ab Initio Electronic Structure Package
                              PSI 4.0.0-alpha Driver

    J. M. Turney, A. C. Simmonett, R. M. Parrish, E. G. Hohenstein,
    F. Evangelista, J. T. Fermann, B. J. Mintz, L. A. Burns, J. J. Wilke,
    M. L. Abrams, N. J. Russ, M. L. Leininger, C. L. Janssen, E. T. Seidl,
    W. D. Allen, H. F. Schaefer, R. A. King, E. F. Valeev, C. D. Sherrill,
    and T. D. Crawford, WIREs Comput. Mol. Sci., (2011)
                         Additional Contributions by
    -----------------------------------------------------------------------


    Using LocalCommunicator (Number of processes = 1)

    Memory level set to 256.000 MB

  ==> Input File <==

--------------------------------------------------------------------------
#! RHF-CCSD(T) cc-pVQZ frozen-core energy of the BH molecule, with Cartesian input.
#! This version tests the FROZEN_DOCC option explicitly

refnuc   =   2.645886245000000 #TEST
refscf   = -25.103546873615137 #TEST
refccsd  =  -0.100265803802460 #TEST
ref_t    =  -0.002090933428780 #TEST
reftotal = -25.205903610846349 #TEST

molecule bh {
    b      0.0000        0.0000        0.0000
    h      0.0000        0.0000        1.0000
}

set {
   docc [3, 0, 0, 0]
   frozen_docc [1, 0, 0, 0]
   basis cc-pvqz
   convergence 10
   e_converge 10
   d_converge 10
}

energy('ccsd(t)')

compare_values(refnuc,   bh.nuclear_repulsion_energy(),           9, "Nuclear repulsion energy") #TEST
compare_values(refscf,   get_variable("SCF total energy"),        9, "SCF energy")               #TEST
compare_values(refccsd,  get_variable("CCSD correlation energy"), 9, "CCSD contribution")        #TEST
compare_values(ref_t,    get_variable("(T) correction energy"),   9, "(T) contribution")         #TEST
compare_values(reftotal, get_variable("Current energy"),          9, "Total energy")             #TEST


clean()
--------------------------------------------------------------------------

*** tstart() called on ds9
*** at Mon Nov 21 16:34:23 2011

	There are an even number of electrons - assuming singlet.
	Specify the multiplicity with the MULTP option in the
	input if this is incorrect


         ---------------------------------------------------------
                                   SCF
            by Justin Turney, Rob Parrish, and Andy Simmonett
                              RHF Reference
                        1 Threads,    256 MiB Core
         ---------------------------------------------------------

  ==> Geometry <==

    Molecular point group: c2v

    Geometry (in Angstrom), charge = 0, multiplicity = 1:

       Center              X                  Y                   Z       
    ------------   -----------------  -----------------  -----------------
           B          0.000000000000     0.000000000000    -0.083865697994
           H          0.000000000000     0.000000000000     0.916134302006

    Number of unique atoms: 2

    Atoms equivalency:
       unique atom 0: 0 
       unique atom 1: 1 

  Running in c2v symmetry.

  Nuclear repulsion =    2.645886245000000

  Charge       = 0
  Multiplicity = 1
  Electrons    = 6
  Nalpha       = 3
  Nbeta        = 3

  ==> Algorithm <==

  SCF Algorithm Type is PK.
  DIIS enabled.
  MOM disabled.
  Guess Type is CORE.
  Energy threshold   = 1.00e-10
  Density threshold  = 1.00e-10
  Integral threshold = 0.00e+00

  ==> Primary Basis: CC-PVQZ <==

  Basis Set
    Number of shells: 25
    Number of basis function: 85
    Number of Cartesian functions: 105
    Spherical Harmonics?: true
    Max angular momentum: 4

  ==> Pre-Iterations <==

  Minimum eigenvalue in the overlap matrix is 2.2491303034E-04.
  Using Symmetric Orthogonalization.
  SCF Guess: Core (One-Electron) Hamiltonian.

  Initial RHF energy:   -17.77884256420828

   -------------------------------------------------------
    Irrep   Nso     Nmo     Nalpha   Nbeta   Ndocc  Nsocc
   -------------------------------------------------------
     A1        35      35       3       3       3       0
     A2        10      10       0       0       0       0
     B1        20      20       0       0       0       0
     B2        20      20       0       0       0       0
   -------------------------------------------------------
    Total      85      85       3       3       3       0
   -------------------------------------------------------

  ==> Integral Setup <==

 MINTS: Wrapper to libmints.
   by Justin Turney

   Calculation information:
      Number of atoms:                   2
      Number of AO shells:              25
      Number of SO shells:              25
      Number of primitives:             45
      Number of atomic orbitals:       105
      Number of basis functions:        85

      Number of irreps:                  4
      Number of functions per irrep: [  35   10   20   20 ]

      Computing integrals...done

      Computed 1212954 non-zero integrals.

  ==> Iterations <==

                        Total Energy        Delta E     Density RMS

   @RHF iter   1:   -22.22332429624621   -4.44448e+00   0.00000e+00  
   @RHF iter   2:   -24.84054440767174   -2.61722e+00   1.19762e-01 DIIS
   @RHF iter   3:   -25.09581423609168   -2.55270e-01   7.62596e-02 DIIS
   @RHF iter   4:   -25.10290886501847   -7.09463e-03   4.93661e-03 DIIS
   @RHF iter   5:   -25.10352427018135   -6.15405e-04   1.31490e-03 DIIS
   @RHF iter   6:   -25.10354660804347   -2.23379e-05   2.50684e-04 DIIS
   @RHF iter   7:   -25.10354686751285   -2.59469e-07   5.51114e-05 DIIS
   @RHF iter   8:   -25.10354687333682   -5.82396e-09   7.62541e-06 DIIS
   @RHF iter   9:   -25.10354687361352   -2.76707e-10   1.21233e-06 DIIS
   @RHF iter  10:   -25.10354687361524   -1.71596e-12   1.29746e-07 DIIS
   @RHF iter  11:   -25.10354687361522    2.13163e-14   2.66651e-08 DIIS
   @RHF iter  12:   -25.10354687361526   -4.26326e-14   3.76855e-09 DIIS
   @RHF iter  13:   -25.10354687361520    6.39488e-14   3.20780e-10 DIIS

  ==> Post-Iterations <==

	Orbital Energies (a.u.)
	-----------------------

	Doubly Occupied:                                                      

	   1A1    -7.656449     2A1    -0.715781     3A1    -0.341709  

	Virtual:                                                              

	   1B1     0.045923     1B2     0.045923     4A1     0.154085  
	   5A1     0.215379     6A1     0.264489     2B1     0.267602  
	   2B2     0.267602     3B2     0.395341     3B1     0.395341  
	   1A2     0.408508     7A1     0.408508     8A1     0.498906  
	   9A1     0.694962    10A1     0.760301     4B2     0.858235  
	   4B1     0.858235     5B2     1.013777     5B1     1.013777  
	  11A1     1.210558     6B2     1.219679     6B1     1.219679  
	  12A1     1.221072     2A2     1.221072     7B2     1.316383  
	   7B1     1.316383     3A2     1.341361    13A1     1.341361  
	  14A1     1.348576    15A1     1.473935     8B2     1.532751  
	   8B1     1.532751    16A1     1.726656    17A1     2.136117  
	   4A2     2.538373    18A1     2.538373     9B2     2.610957  
	   9B1     2.610957    19A1     2.855272    10B1     3.064834  
	  10B2     3.064834     5A2     3.397074    20A1     3.397074  
	  11B1     3.412515    11B2     3.412515    21A1     3.566685  
	  12B2     3.739854    12B1     3.739854     6A2     3.809173  
	  22A1     3.809173    23A1     3.897341     7A2     3.897341  
	  24A1     3.908670    13B2     3.947554    13B1     3.947554  
	  14B2     3.949190    14B1     3.949190    15B2     4.001132  
	  15B1     4.001132     8A2     4.099324    25A1     4.099324  
	  26A1     4.138267    27A1     5.032926    28A1     5.283525  
	  16B1     5.505709    16B2     5.505709    17B1     6.418822  
	  17B2     6.418822    29A1     7.300731    18B2     7.574075  
	  18B1     7.574075    30A1     7.596982     9A2     7.596982  
	  31A1     8.191050    10A2     8.448402    32A1     8.448402  
	  19B1     8.895755    19B2     8.895755    20B1     9.775047  
	  20B2     9.775047    33A1     9.801553    34A1    11.149103  
	  35A1    17.128233  

	Final Occupation by Irrep:
	         A1    A2    B1    B2 
	DOCC [     3,    0,    0,    0 ]

  Energy converged.

  @RHF Final Energy:   -25.10354687361520

  ==> Properties <==
  Nuclear Dipole Moment: (a.u.)
     X:     0.0000      Y:     0.0000      Z:     0.9388

  Electronic Dipole Moment: (a.u.)
     X:     0.0000      Y:     0.0000      Z:    -0.0281

  Dipole Moment: (a.u.)
     X:     0.0000      Y:     0.0000      Z:     0.9107     Total:     0.9107

  Dipole Moment: (Debye)
     X:     0.0000      Y:     0.0000      Z:     2.3148     Total:     2.3148


  Saving occupied orbitals to File 180.

*** tstop() called on ds9 at Mon Nov 21 16:34:24 2011
Module time:
	user time   =       1.17 seconds =       0.02 minutes
	system time =       0.11 seconds =       0.00 minutes
	total time  =          1 seconds =       0.02 minutes
Total time:
	user time   =       1.17 seconds =       0.02 minutes
	system time =       0.11 seconds =       0.00 minutes
	total time  =          1 seconds =       0.02 minutes

*** tstart() called on ds9
*** at Mon Nov 21 16:34:24 2011


	**************************************************
	* TRANSQT2: Program to transform integrals from  *
	*           the SO basis to the MO basis.        *
	*                                                *
	*            Daniel, David, & Justin             *
	**************************************************


	Input parameters:
	-----------------
	Wave function   =	CCSD_T
	Backtransform   =	No
	Print Level     =	1
	Print TEIs      =	No
	Reference wfn   =	RHF
	Derivative      =	None
	Delete TEI File =	Yes
	Memory (Mbytes) =	100.0
	Cache Level     =	2
	Cache Type      =	LRU
	Chkpt Parameters:
	--------------------
	Number of irreps     = 4
	Number of SOs        = 85
	Number of MOs        = 85
	Number of active MOs = 84

	Label	# SOs	# FZDC	# DOCC	# SOCC	# VIRT	# FZVR
	-----	-----	------	------	------	------	------
	 A1	   35	    1	    2	    0	    32	    0
	 A2	   10	    0	    0	    0	    10	    0
	 B1	   20	    0	    0	    0	    20	    0
	 B2	   20	    0	    0	    0	    20	    0

	Nuclear Rep. energy (chkpt) =      2.64588624500000
	SCF energy          (chkpt) =    -25.10354687361520

	Presorting SO-basis two-electron integrals.
	Sorting File: SO Ints (pq,rs) nbuckets = 1
	Frozen-core energy =  -23.044437479863870
	Starting first half-transformation.
	Sorting half-transformed integrals.
	Starting second half-transformation.
	Two-electron integral transformation complete.

*** tstop() called on ds9 at Mon Nov 21 16:34:26 2011
Module time:
	user time   =       0.93 seconds =       0.02 minutes
	system time =       0.78 seconds =       0.01 minutes
	total time  =          2 seconds =       0.03 minutes
Total time:
	user time   =       2.10 seconds =       0.04 minutes
	system time =       0.89 seconds =       0.01 minutes
	total time  =          3 seconds =       0.05 minutes

*** tstart() called on ds9
*** at Mon Nov 21 16:34:26 2011


			**************************
			*                        *
			*         CCSORT         *
			*                        *
			**************************


	Input parameters:
	-----------------
	Wave function   =	CCSD_T
	Reference wfn   =	RHF
	Derivative      =	None
	Memory (Mbytes) =	256.0
	AO Basis        =	NONE
	Make (ab|cd)    =	True
	Make unpacked (ab|cd) =	False
	Cache Level     =	2
	Cache Type      =	LRU
	Local CC        =     No


	Chkpt Parameters:
	--------------------
	Number of irreps     = 4
	Number of MOs        = 85
	Number of active MOs = 84

	Label	# MOs	# FZDC	# DOCC	# SOCC	# VIRT	# FZVR
	-----	-----	------	------	------	------	------
	 A1	   35	    1	    2	    0	    32	    0
	 A2	   10	    0	    0	    0	    10	    0
	 B1	   20	    0	    0	    0	    20	    0
	 B2	   20	    0	    0	    0	    20	    0

	Nuclear Rep. energy (chkpt) =      2.64588624500000
	SCF energy          (chkpt) =    -25.10354687361520

	Size of irrep 0 of <ab|cd> integrals:      3.702 (MW) /     29.614 (MB)
	Size of irrep 1 of <ab|cd> integrals:      2.074 (MW) /     16.589 (MB)
	Size of irrep 2 of <ab|cd> integrals:      2.822 (MW) /     22.579 (MB)
	Size of irrep 3 of <ab|cd> integrals:      2.822 (MW) /     22.579 (MB)
	Total:                                    11.420 (MW) /     91.361 (MB)

	Size of irrep 0 of <ia|bc> integrals:      0.123 (MW) /      0.985 (MB)
	Size of irrep 1 of <ia|bc> integrals:      0.029 (MW) /      0.230 (MB)
	Size of irrep 2 of <ia|bc> integrals:      0.067 (MW) /      0.538 (MB)
	Size of irrep 3 of <ia|bc> integrals:      0.067 (MW) /      0.538 (MB)
	Total:                                     0.286 (MW) /      2.291 (MB)

	Size of irrep 0 of tijab amplitudes:       0.008 (MW) /      0.062 (MB)
	Size of irrep 1 of tijab amplitudes:       0.000 (MW) /      0.000 (MB)
	Size of irrep 2 of tijab amplitudes:       0.000 (MW) /      0.000 (MB)
	Size of irrep 3 of tijab amplitudes:       0.000 (MW) /      0.000 (MB)
	Total:                                     0.008 (MW) /      0.062 (MB)


	Sorting File: A <ij|kl> nbuckets = 1
	Sorting File: B(+) <ab|cd> nbuckets = 1
	Sorting File: C <ia|jb> nbuckets = 1
	Sorting File: D <ij|ab> nbuckets = 1
	Sorting File: E <ai|jk> nbuckets = 1
	Sorting File: F <ia|bc> nbuckets = 1
	One-electron energy          =     -7.29501042174327
	Two-electron (AA) energy     =      0.68288025540166
	Two-electron (BB) energy     =      0.68288025540166
	Two-electron (AB) energy     =      1.90713452759019
	Two-electron energy          =      2.59001478299184
	Frozen-core energy (transqt) =    -23.04443747986387
	Reference energy             =    -25.10354687361530

*** tstop() called on ds9 at Mon Nov 21 16:34:27 2011
Module time:
	user time   =       0.27 seconds =       0.00 minutes
	system time =       0.34 seconds =       0.01 minutes
	total time  =          1 seconds =       0.02 minutes
Total time:
	user time   =       2.37 seconds =       0.04 minutes
	system time =       1.23 seconds =       0.02 minutes
	total time  =          4 seconds =       0.07 minutes

*** tstart() called on ds9
*** at Mon Nov 21 16:34:27 2011

			**************************
			*                        *
			*        CCENERGY        *
			*                        *
			**************************

	Nuclear Rep. energy (chkpt)   =    2.645886245000000
	SCF energy          (chkpt)   =  -25.103546873615198
	Reference energy    (file100) =  -25.103546873615297

	Input parameters:
	-----------------
	Wave function   =   CCSD_T
	Reference wfn   =     RHF
	Memory (Mbytes) =     256.0
	Maxiter         =     50
	Convergence     =     1.0e-10
	Restart         =     No
	DIIS            =     Yes
	AO Basis        =     NONE
	ABCD            =     NEW
	Cache Level     =     2
	Cache Type      =     LOW
	Print Level     =     1
	Num. of threads =     1
	# Amps to Print =     10
	Print MP2 Amps? =     No
	Analyze T2 Amps =     No
	Print Pair Ener =     No
	Local CC        =     No
	SCS-MP2         =     False
	SCSN-MP2        =     False
	SCS-CCSD        =     False

	            Solving CC Amplitude Equations
	            ------------------------------
  Iter             Energy              RMS        T1Diag      D1Diag    New D1Diag
  ----     ---------------------    ---------   ----------  ----------  ----------
     0        -0.077761727099598    0.000e+00    0.000000    0.000000    0.000000
     1        -0.090565418791292    5.829e-02    0.005971    0.011378    0.011378
     2        -0.099495831054702    3.230e-02    0.010799    0.021037    0.021037
     3        -0.100028586545300    1.064e-02    0.012663    0.024895    0.024895
     4        -0.100273127824851    3.505e-03    0.013052    0.025729    0.025729
     5        -0.100252815632288    1.289e-03    0.013046    0.025728    0.025728
     6        -0.100258384836680    4.069e-04    0.013001    0.025635    0.025635
     7        -0.100267433344471    9.945e-05    0.012989    0.025611    0.025611
     8        -0.100265921875491    2.126e-05    0.012984    0.025599    0.025599
     9        -0.100265784493752    4.744e-06    0.012982    0.025596    0.025596
    10        -0.100265805353535    1.353e-06    0.012982    0.025595    0.025595
    11        -0.100265809573781    3.294e-07    0.012982    0.025595    0.025595
    12        -0.100265806015695    1.059e-07    0.012982    0.025595    0.025595
    13        -0.100265803539830    2.286e-08    0.012982    0.025595    0.025595
    14        -0.100265803717715    5.332e-09    0.012982    0.025595    0.025595
    15        -0.100265803801820    1.648e-09    0.012982    0.025595    0.025595
    16        -0.100265803824751    6.115e-10    0.012982    0.025595    0.025595
    17        -0.100265803805060    2.874e-10    0.012982    0.025595    0.025595
    18        -0.100265803801611    9.330e-11    0.012982    0.025595    0.025595

	Iterations converged.


	Largest TIA Amplitudes:
	          1   1         0.0169682681
	          1   4        -0.0118098015
	          1   2        -0.0097755537
	          1  10         0.0054481611
	          0   4         0.0051858804
	          0   1        -0.0051797605
	          1   5         0.0048449456
	          0  10        -0.0031773617
	          0   5        -0.0030988701
	          1   7         0.0023553190

	Largest TIjAb Amplitudes:
	  1   1  42  42        -0.1078166263
	  1   1  62  62        -0.1078166263
	  1   1  42  43        -0.0571252187
	  1   1  43  42        -0.0571252187
	  1   1  62  63        -0.0571252187
	  1   1  63  62        -0.0571252187
	  1   1   2   2        -0.0430333619
	  1   1  42  44        -0.0406258144
	  1   1  44  42        -0.0406258144
	  1   1  62  64        -0.0406258144

	SCF energy       (chkpt)              =  -25.103546873615198
	Reference energy (file100)            =  -25.103546873615297

	Opposite-spin MP2 correlation energy  =   -0.072816818258886
	Same-spin MP2 correlation energy      =   -0.004944908840712
	MP2 correlation energy                =   -0.077761727099598
      * MP2 total energy                      =  -25.181308600714896

	Opposite-spin CCSD correlation energy =   -0.095052637291494
	Same-spin CCSD correlation energy     =   -0.005213166517998
	CCSD correlation energy               =   -0.100265803801611
      * CCSD total energy                     =  -25.203812677416909


*** tstop() called on ds9 at Mon Nov 21 16:34:29 2011
Module time:
	user time   =       0.70 seconds =       0.01 minutes
	system time =       0.95 seconds =       0.02 minutes
	total time  =          2 seconds =       0.03 minutes
Total time:
	user time   =       3.09 seconds =       0.05 minutes
	system time =       2.18 seconds =       0.04 minutes
	total time  =          6 seconds =       0.10 minutes

*** tstart() called on ds9
*** at Mon Nov 21 16:34:29 2011

			**************************
			*                        *
			*        CCTRIPLES       *
			*                        *
			**************************


	Wave function   =    CCSD_T
	Reference wfn   =      RHF

	Nuclear Rep. energy (chkpt)   =    2.645886245000000
	SCF energy          (chkpt)   =  -25.103546873615198
	Reference energy    (file100) =  -25.103546873615297
	CCSD energy         (file100) =   -0.100265803801611
	Total CCSD energy   (file100) =  -25.203812677416909

	Number of ijk index combinations: 4

	(T) energy                    =   -0.002090933429219
      * CCSD(T) total energy          =  -25.205903610846129


*** tstop() called on ds9 at Mon Nov 21 16:34:29 2011
Module time:
	user time   =       0.12 seconds =       0.00 minutes
	system time =       0.02 seconds =       0.00 minutes
	total time  =          0 seconds =       0.00 minutes
Total time:
	user time   =       3.21 seconds =       0.05 minutes
	system time =       2.20 seconds =       0.04 minutes
	total time  =          6 seconds =       0.10 minutes

*** PSI4 exiting successfully. Buy a developer a beer!
