
    -----------------------------------------------------------------------
          Psi4: An Open-Source Ab Initio Electronic Structure Package
                               Psi4 undefined 

                         Git: Rev {changes_for_global_merge} 71fed73 dirty


    D. G. A. Smith, L. A. Burns, A. C. Simmonett, R. M. Parrish,
    M. C. Schieber, R. Galvelis, P. Kraus, H. Kruse, R. Di Remigio,
    A. Alenaizan, A. M. James, S. Lehtola, J. P. Misiewicz, M. Scheurer,
    R. A. Shaw, J. B. Schriber, Y. Xie, Z. L. Glick, D. A. Sirianni,
    J. S. O'Brien, J. M. Waldrop, A. Kumar, E. G. Hohenstein,
    B. P. Pritchard, B. R. Brooks, H. F. Schaefer III, A. Yu. Sokolov,
    K. Patkowski, A. E. DePrince III, U. Bozkaya, R. A. King,
    F. A. Evangelista, J. M. Turney, T. D. Crawford, C. D. Sherrill,
    J. Chem. Phys. 152(18) 184108 (2020). https://doi.org/10.1063/5.0006002

                            Additional Code Authors
    E. T. Seidl, C. L. Janssen, E. F. Valeev, M. L. Leininger,
    J. F. Gonthier, R. M. Richard, H. R. McAlexander, M. Saitow, X. Wang,
    P. Verma, and M. H. Lechner

             Previous Authors, Complete List of Code Contributors,
                       and Citations for Specific Modules
    https://github.com/psi4/psi4/blob/master/codemeta.json
    https://github.com/psi4/psi4/graphs/contributors
    http://psicode.org/psi4manual/master/introduction.html#citing-psifour

    -----------------------------------------------------------------------


    Psi4 started on: Thursday, 02 December 2021 05:50PM

    Process ID: 26998
    Host:       south
    PSIDATADIR: /mnt/home/behnle/prog/psi4/psi4/objdir_python39/stage/share/psi4
    Memory:     500.0 MiB
    Threads:    4
    
  ==> Input File <==

--------------------------------------------------------------------------
#! density fitted OO-REMP/cc-pVDZ engrad single points for the H2O molecule.

Enuc = 9.187386457589815 #TEST

test_energy_dict = { "0.00": -76.24301427323972,  #TEST
                     "0.10": -76.24122429286781,  #TEST
                     "0.20": -76.23963392905259,  #TEST
                     "0.30": -76.23821346837765,  #TEST
                     "1.00": -76.23157181769086}  #TEST

   
molecule h2o {
0 1
o
h 1 0.958
h 1 0.958 2 104.4776 
symmetry c1
}

set {
  basis cc-pvdz
  df_basis_scf def2-universal-jkfit
  df_basis_cc def2-TZVPP-ri
  guess sad
  scf_type df
  freeze_core false
  wfn_type oremp
  cc_type df
  mp_type df
  e_convergence 1.0E-9
  r_convergence 1.0E-8
  qc_module occ
  orb_opt true
  max_mograd_convergence 1.0E-7
  rms_mograd_convergence 1.0E-8
  TPDM_ABCD_TYPE direct
}

Avals=[0.00, 0.10, 0.20, 0.30, 1.00]


#for A in Avals:
#     psi4.print_out("running step %5.2f" % A)
#     set remp_A=$A
#     e_remp=energy('remp')
#     compare_values(test_dict[remp_A], get_variable("REMP TOTAL ENERGY"), 6, "REMP Total Energy") #TEST

compare_values(Enuc, h2o.nuclear_repulsion_energy(), 8, "Nuclear Repulsion Energy") #TEST

set remp_A=0.00
ref_grad=psi4.Matrix.from_list([
            [ 0.000000000000,    -0.000000000000,     0.013895310040 ],
            [ 0.000000000000,     0.003248484259,    -0.006947655020 ],  
            [ 0.000000000000,    -0.003248484259,    -0.006947655020 ]])

grad_oremp=gradient('oremp')

compare_values(test_energy_dict["0.00"], variable("OREMP TOTAL ENERGY"), 8, "OREMP(0.00) Total Energy") #TEST
compare_matrices(ref_grad, grad_oremp, 5, "OREMP(0.00) Analytic gradients")  #TEST


set remp_A=0.10
ref_grad=psi4.Matrix.from_list([
            [  0.000000000000,    -0.000000000000,     0.013197989518  ],
            [  0.000000000000,     0.002783805920,    -0.006598994759  ],
            [  0.000000000000,    -0.002783805920,    -0.006598994759  ]])

grad_oremp=gradient('oremp')

compare_values(test_energy_dict["0.10"], variable("OREMP TOTAL ENERGY"), 8, "OREMP(0.10) Total Energy") #TEST
compare_matrices(ref_grad, grad_oremp, 5, "OREMP(0.10) Analytic gradients")  #TEST


set remp_A=0.20
ref_grad=psi4.Matrix.from_list([
            [  0.000000000000,    -0.000000000000,     0.012728281086 ],
            [  0.000000000000,     0.002453429980,    -0.006364140543 ],
            [  0.000000000000,    -0.002453429980,    -0.006364140543 ]])

grad_oremp=gradient('oremp')
compare_values(test_energy_dict["0.20"], variable("OREMP TOTAL ENERGY"), 8, "OREMP(0.20) Total Energy") #TEST
compare_matrices(ref_grad, grad_oremp, 5, "OREMP(0.20) Analytic gradients")  #TEST


set remp_A=0.30
ref_grad=psi4.Matrix.from_list([
            [  0.000000000000,    -0.000000000000,     0.012438548445  ],
            [  0.000000000000,     0.002229197714,    -0.006219274222  ],
            [  0.000000000000,    -0.002229197714,    -0.006219274222  ]])

grad_oremp=gradient('oremp')
compare_values(test_energy_dict["0.30"], variable("OREMP TOTAL ENERGY"), 8, "OREMP(0.30) Total Energy") #TEST
compare_matrices(ref_grad, grad_oremp, 5, "OREMP(0.30) Analytic gradients")  #TEST


set remp_A=1.00
ref_grad=psi4.Matrix.from_list([
            [  0.000000000000,     0.000000000000,     0.013476662939  ],
            [  0.000000000000,     0.002449235008,    -0.006738331469  ],
            [  0.000000000000,    -0.002449235008,    -0.006738331469  ]])

grad_oremp=gradient('oremp')
compare_values(test_energy_dict["1.00"], variable("OREMP TOTAL ENERGY"), 8, "OREMP(1.00) Total Energy") #TEST
compare_matrices(ref_grad, grad_oremp, 5, "OREMP(1.00) Analytic gradients")  #TEST
--------------------------------------------------------------------------
    Nuclear Repulsion Energy..............................................................PASSED

Scratch directory: /scr/behnle/
gradient() will perform analytic gradient computation.
    For method 'OREMP', SCF Algorithm Type (re)set to DISK_DF.

*** tstart() called on south
*** at Thu Dec  2 17:50:06 2021

   => Loading Basis Set <=

    Name: CC-PVDZ
    Role: ORBITAL
    Keyword: BASIS
    atoms 1   entry O          line   198 file /mnt/home/behnle/prog/psi4/psi4/objdir_python39/stage/share/psi4/basis/cc-pvdz.gbs 
    atoms 2-3 entry H          line    22 file /mnt/home/behnle/prog/psi4/psi4/objdir_python39/stage/share/psi4/basis/cc-pvdz.gbs 


         ---------------------------------------------------------
                                   SCF
               by Justin Turney, Rob Parrish, Andy Simmonett
                          and Daniel G. A. Smith
                              RHF Reference
                        4 Threads,    500 MiB Core
         ---------------------------------------------------------

  ==> Geometry <==

    Molecular point group: c1
    Full point group: C2v

    Geometry (in Angstrom), charge = 0, multiplicity = 1:

       Center              X                  Y                   Z               Mass       
    ------------   -----------------  -----------------  -----------------  -----------------
         O            0.000000000000     0.000000000000    -0.065655108083    15.994914619570
         H            0.000000000000    -0.757365949175     0.520997104927     1.007825032230
         H            0.000000000000     0.757365949175     0.520997104927     1.007825032230

  Running in c1 symmetry.

  Rotational constants: A =     27.36310  B =     14.58041  C =      9.51197 [cm^-1]
  Rotational constants: A = 820325.17390  B = 437109.76779  C = 285161.58919 [MHz]
  Nuclear repulsion =    9.187386457589815

  Charge       = 0
  Multiplicity = 1
  Electrons    = 10
  Nalpha       = 5
  Nbeta        = 5

  ==> Algorithm <==

  SCF Algorithm Type is DISK_DF.
  DIIS enabled.
  MOM disabled.
  Fractional occupation disabled.
  Guess Type is SAD.
  Energy threshold   = 1.00e-09
  Density threshold  = 1.00e-10
  Integral threshold = 1.00e-12

  ==> Primary Basis <==

  Basis Set: CC-PVDZ
    Blend: CC-PVDZ
    Number of shells: 12
    Number of basis functions: 24
    Number of Cartesian functions: 25
    Spherical Harmonics?: true
    Max angular momentum: 2

   => Loading Basis Set <=

    Name: DEF2-UNIVERSAL-JKFIT
    Role: JKFIT
    Keyword: DF_BASIS_SCF
    atoms 1   entry O          line   318 file /mnt/home/behnle/prog/psi4/psi4/objdir_python39/stage/share/psi4/basis/def2-universal-jkfit.gbs 
    atoms 2-3 entry H          line    18 file /mnt/home/behnle/prog/psi4/psi4/objdir_python39/stage/share/psi4/basis/def2-universal-jkfit.gbs 

  ==> Integral Setup <==

  ==> DiskDFJK: Density-Fitted J/K Matrices <==

    J tasked:                  Yes
    K tasked:                  Yes
    wK tasked:                  No
    OpenMP threads:              4
    Integrals threads:           4
    Memory [MiB]:              375
    Algorithm:                Core
    Integral Cache:           SAVE
    Schwarz Cutoff:          1E-12
    Fitting Condition:       1E-10

   => Auxiliary Basis Set <=

  Basis Set: DEF2-UNIVERSAL-JKFIT
    Blend: DEF2-UNIVERSAL-JKFIT
    Number of shells: 37
    Number of basis functions: 113
    Number of Cartesian functions: 133
    Spherical Harmonics?: true
    Max angular momentum: 4

  Minimum eigenvalue in the overlap matrix is 3.4230868396E-02.
  Reciprocal condition number of the overlap matrix is 9.2312643042E-03.
    Using symmetric orthogonalization.

  ==> Pre-Iterations <==

  SCF Guess: Superposition of Atomic Densities via on-the-fly atomic UHF (no occupation information).

   -------------------------
    Irrep   Nso     Nmo    
   -------------------------
     A         24      24 
   -------------------------
    Total      24      24
   -------------------------

  ==> Iterations <==

                           Total Energy        Delta E     RMS |[F,P]|

   @DF-RHF iter SAD:   -75.51050601860275   -7.55105e+01   0.00000e+00 
   @DF-RHF iter   1:   -75.95396440048310   -4.43458e-01   1.74099e-02 DIIS
   @DF-RHF iter   2:   -76.00724905192097   -5.32847e-02   9.94895e-03 DIIS
   @DF-RHF iter   3:   -76.02632264302764   -1.90736e-02   9.08408e-04 DIIS
   @DF-RHF iter   4:   -76.02670841043155   -3.85767e-04   2.08342e-04 DIIS
   @DF-RHF iter   5:   -76.02672767732807   -1.92669e-05   3.82796e-05 DIIS
   @DF-RHF iter   6:   -76.02672859528963   -9.17962e-07   6.10645e-06 DIIS
   @DF-RHF iter   7:   -76.02672862124922   -2.59596e-08   8.54412e-07 DIIS
   @DF-RHF iter   8:   -76.02672862177270   -5.23485e-10   1.98130e-07 DIIS
   @DF-RHF iter   9:   -76.02672862180506   -3.23581e-11   3.37707e-08 DIIS
   @DF-RHF iter  10:   -76.02672862180600   -9.37916e-13   2.77585e-09 DIIS
   @DF-RHF iter  11:   -76.02672862180592    8.52651e-14   4.86617e-10 DIIS
   @DF-RHF iter  12:   -76.02672862180601   -9.94760e-14   2.81762e-11 DIIS
  Energy and wave function converged.


  ==> Post-Iterations <==

    Orbital Energies [Eh]
    ---------------------

    Doubly Occupied:                                                      

       1A    -20.550579     2A     -1.336338     3A     -0.698827  
       4A     -0.566491     5A     -0.493092  

    Virtual:                                                              

       6A      0.185444     7A      0.256143     8A      0.788717  
       9A      0.853857    10A      1.163774    11A      1.200480  
      12A      1.253554    13A      1.444876    14A      1.476958  
      15A      1.675152    16A      1.867645    17A      1.935173  
      18A      2.451431    19A      2.489038    20A      3.286338  
      21A      3.339125    22A      3.510967    23A      3.865989  
      24A      4.148029  

    Final Occupation by Irrep:
              A 
    DOCC [     5 ]

  @DF-RHF Final Energy:   -76.02672862180601

   => Energetics <=

    Nuclear Repulsion Energy =              9.1873864575898150
    One-Electron Energy =                -123.1375748709706244
    Two-Electron Energy =                  37.9234597915747997
    Total Energy =                        -76.0267286218060150

Computation Completed


Properties will be evaluated at   0.000000,   0.000000,   0.000000 [a0]

Properties computed using the SCF density matrix

  Nuclear Dipole Moment: [e a0]
     X:     0.0000      Y:     0.0000      Z:     0.9765

  Electronic Dipole Moment: [e a0]
     X:     0.0000      Y:    -0.0000      Z:    -0.1669

  Dipole Moment: [e a0]
     X:     0.0000      Y:    -0.0000      Z:     0.8096     Total:     0.8096

  Dipole Moment: [D]
     X:     0.0000      Y:    -0.0000      Z:     2.0579     Total:     2.0579


*** tstop() called on south at Thu Dec  2 17:50:07 2021
Module time:
	user time   =       2.26 seconds =       0.04 minutes
	system time =       0.67 seconds =       0.01 minutes
	total time  =          1 seconds =       0.02 minutes
Total time:
	user time   =       2.26 seconds =       0.04 minutes
	system time =       0.67 seconds =       0.01 minutes
	total time  =          1 seconds =       0.02 minutes
  Constructing Basis Sets for DFOCC...

   => Loading Basis Set <=

    Name: DEF2-UNIVERSAL-JKFIT
    Role: JKFIT
    Keyword: DF_BASIS_SCF
    atoms 1   entry O          line   318 file /mnt/home/behnle/prog/psi4/psi4/objdir_python39/stage/share/psi4/basis/def2-universal-jkfit.gbs 
    atoms 2-3 entry H          line    18 file /mnt/home/behnle/prog/psi4/psi4/objdir_python39/stage/share/psi4/basis/def2-universal-jkfit.gbs 

   => Loading Basis Set <=

    Name: DEF2-TZVPP-RI
    Role: RIFIT
    Keyword: DF_BASIS_CC
    atoms 1   entry O          line   285 file /mnt/home/behnle/prog/psi4/psi4/objdir_python39/stage/share/psi4/basis/def2-tzvpp-ri.gbs 
    atoms 2-3 entry H          line    22 file /mnt/home/behnle/prog/psi4/psi4/objdir_python39/stage/share/psi4/basis/def2-tzvpp-ri.gbs 


*** tstart() called on south
*** at Thu Dec  2 17:50:07 2021



  Module DFOCC Options:
  ----------------------------------------------------------------------------
  ACTIVE                        => (empty)          
  BASIS_RELATIVISTIC            => (empty)          
  BENCH                         => (empty)          
  CC_DIIS_MAX_VECS              => (empty)          
  CC_DIIS_MIN_VECS              => (empty)          
  CC_LAMBDA                     => (empty)          
  CC_MAXITER                    => (empty)          
  CC_TYPE                       => DF              !
  CHOLESKY                      => (empty)          
  CHOLESKY_TOLERANCE            => (empty)          
  CIS_ALGORITHM                 => (empty)          
  CI_TYPE                       => (empty)          
  COMPUT_S2                     => (empty)          
  CUBEPROP_BASIS_FUNCTIONS      => (empty)          
  CUBEPROP_FILEPATH             => (empty)          
  CUBEPROP_ISOCONTOUR_THRESHOLD => (empty)          
  CUBEPROP_ORBITALS             => (empty)          
  CUBEPROP_TASKS                => (empty)          
  CUBIC_BASIS_TOLERANCE         => (empty)          
  CUBIC_BLOCK_MAX_POINTS        => (empty)          
  CUBIC_GRID_OVERAGE            => (empty)          
  CUBIC_GRID_SPACING            => (empty)          
  CUTOFF                        => (empty)          
  DAVIDSON_TOLERANCE            => (empty)          
  DEBUG                         => (empty)          
  DERTYPE                       => FIRST           !
  DF_BASIS_CC                   => DEF2-TZVPP-RI   !
  DIAG_METHOD                   => (empty)          
  DIE_IF_NOT_CONVERGED          => (empty)          
  DKH_ORDER                     => (empty)          
  DOCC                          => (empty)          
  DO_DIIS                       => (empty)          
  DO_LEVEL_SHIFT                => (empty)          
  DO_SCS                        => FALSE           !
  DO_SOS                        => FALSE           !
  E3_SCALE                      => (empty)          
  EKT_IP                        => (empty)          
  EXTERNAL_POTENTIAL_SYMMETRY   => (empty)          
  E_CONVERGENCE                 => 1e-09           !
  FREEZE_CORE                   => FALSE           !
  FROZEN_DOCC                   => (empty)          
  FROZEN_UOCC                   => (empty)          
  HESS_TYPE                     => (empty)          
  INTEGRAL_CUTOFF               => (empty)          
  INTEGRAL_PACKAGE              => (empty)          
  JK_MEMORY                     => (empty)          
  JK_TYPE                       => (empty)          
  LEVEL_SHIFT                   => (empty)          
  LINEQ_SOLVER                  => (empty)          
  LITERAL_CFOUR                 => (empty)          
  MAT_NUM_COLUMN_PRINT          => (empty)          
  MAX_MOGRAD_CONVERGENCE        => 1e-07           !
  MAX_RADIAL_MOMENT             => (empty)          
  MBIS_D_CONVERGENCE            => (empty)          
  MBIS_MAXITER                  => (empty)          
  MBIS_PRUNING_SCHEME           => (empty)          
  MBIS_RADIAL_POINTS            => (empty)          
  MBIS_SPHERICAL_POINTS         => (empty)          
  MOLDEN_WITH_VIRTUAL           => (empty)          
  MOLDEN_WRITE                  => (empty)          
  MO_DIIS_NUM_VECS              => (empty)          
  MO_MAXITER                    => (empty)          
  MO_READ                       => (empty)          
  MO_STEP_MAX                   => (empty)          
  MO_WRITE                      => (empty)          
  MP2_AMP_TYPE                  => (empty)          
  MP2_OS_SCALE                  => (empty)          
  MP2_SOS_SCALE                 => (empty)          
  MP2_SOS_SCALE2                => (empty)          
  MP2_SS_SCALE                  => (empty)          
  MP2_TYPE                      => (empty)          
  MP_TYPE                       => DF              !
  NAT_ORBS                      => (empty)          
  NBO                           => (empty)          
  NUM_FROZEN_DOCC               => (empty)          
  NUM_FROZEN_UOCC               => (empty)          
  NUM_GPUS                      => (empty)          
  OCC_ORBS_PRINT                => (empty)          
  OEPROP                        => (empty)          
  OO_SCALE                      => (empty)          
  OPT_METHOD                    => (empty)          
  ORB_OPT                       => TRUE            !
  ORB_RESP_SOLVER               => (empty)          
  ORTH_TYPE                     => (empty)          
  PARENT_SYMMETRY               => (empty)          
  PCG_BETA_TYPE                 => (empty)          
  PCG_CONVERGENCE               => (empty)          
  PCG_MAXITER                   => (empty)          
  PCM                           => (empty)          
  PE                            => (empty)          
  PPL_TYPE                      => (empty)          
  PRINT                         => (empty)          
  PRINT_CI_VECS                 => (empty)          
  PRINT_NOONS                   => (empty)          
  PROPERTIES                    => (empty)          
  PROPERTIES_ORIGIN             => (empty)          
  PUREAM                        => (empty)          
  QCHF                          => (empty)          
  QC_MODULE                     => OCC             !
  RAS1                          => (empty)          
  RAS2                          => (empty)          
  RAS3                          => (empty)          
  RAS4                          => (empty)          
  READ_SCF_3INDEX               => (empty)          
  REGULARIZATION                => (empty)          
  REG_PARAM                     => (empty)          
  RELATIVISTIC                  => (empty)          
  REMP_A                        => 0               !
  RESTRICTED_DOCC               => (empty)          
  RESTRICTED_UOCC               => (empty)          
  RMS_MOGRAD_CONVERGENCE        => 1e-08           !
  R_CONVERGENCE                 => 1e-08           !
  SCF_TYPE                      => DISK_DF         !
  SCS_TYPE                      => (empty)          
  SOCC                          => (empty)          
  SOS_TYPE                      => (empty)          
  TRIPLES_IABC_TYPE             => (empty)          
  WFN                           => (empty)          
  WFN_TYPE                      => DF-OREMP        !
  WRITER_FILE_LABEL             => (empty)          

	Warning: cc_lambda option is changed to TRUE
	For this residual convergence, default PCG convergence is:     1.00e-10

 ============================================================================== 
 ============================================================================== 
 ============================================================================== 

                     DF-OREMP   
              Program Written by Ugur Bozkaya
              Latest Revision December 8, 2020

 ============================================================================== 
 ============================================================================== 
 ============================================================================== 

	MO Hessian type is changed to 'HF'
	MO spaces... 

	 FC   OCC   VIR   FV 
	----------------------
	  0    5    19    0
	Reading DF integrals from disk ...
	Number of basis functions in the DF-HF basis: 113
	Number of basis functions in the DF-CC basis: 136

	Available memory                      :    500.00 MB 
	Memory requirement for 3-index ints   :      0.50 MB 
	Memory requirement for DF-CC int trans:      1.45 MB 
	Memory requirement for CC contractions:      0.28 MB 
	Total memory requirement for DF+CC int:      0.77 MB 
	Memory requirement for Wabef term     :      0.87 MB 

	Computing DF-MP2 energy using SCF MOs (Canonical DF-MP2)... 
	======================================================================= 
	Nuclear Repulsion Energy (a.u.)    :     9.18738645758981
	DF-HF Energy (a.u.)                :   -76.02672862180601
	REF Energy (a.u.)                  :   -76.02672862180601
	DF-MP2 Correlation Energy (a.u.)   :    -0.20394724679250
	DF-MP2 Total Energy (a.u.)         :   -76.23067586859852
	======================================================================= 
	Using A=        0 as REMP mixing parameter

	Number of independent-pairs:  95

 ============================================================================== 
 ================ Performing DF-OREMP iterations... =========================== 
 ============================================================================== 
	            Minimizing DF-REMP-L Functional 
	            ------------------------------ 
 Iter       E_total           DE           RMS MO Grad      MAX MO Grad      RMS T2    
 ----    ---------------    ----------     -----------      -----------     ---------- 
	successfully fired up coupled DIIS...
   1     -76.2423874463     -7.62e+01       7.09e-04         3.57e-03        2.58e-04 
   2     -76.2429044791     -5.17e-04       2.45e-04         1.02e-03        8.84e-05 
   3     -76.2430080425     -1.04e-04       3.85e-05         1.78e-04        1.63e-05 
   4     -76.2430138768     -5.83e-06       9.73e-06         5.31e-05        5.61e-06 
   5     -76.2430142589     -3.82e-07       1.39e-06         8.53e-06        1.09e-06 
   6     -76.2430142726     -1.37e-08       2.54e-07         2.06e-06        2.39e-07 
   7     -76.2430142732     -5.60e-10       6.04e-08         3.17e-07        6.50e-08 
   8     -76.2430142732     -4.41e-11       2.23e-08         9.84e-08        1.38e-08 
   9     -76.2430142732     -1.55e-12       3.91e-09         2.09e-08        1.57e-09 

 ============================================================================== 
 ======================== DF-OREMP ITERATIONS ARE CONVERGED =================== 
 ============================================================================== 

	Computing DF-REMP energy using optimized MOs... 
	======================================================================= 
	Nuclear Repulsion Energy (a.u.)    :     9.18738645758981
	SCF Energy (a.u.)                  :   -76.02672862180601
	REF Energy (a.u.)                  :   -76.02601897629903
	DF-REMP Correlation Energy (a.u.)  :    -0.21699529715898
	DF-REMP Total Energy (a.u.)        :   -76.23067586859852
	======================================================================= 

	======================================================================= 
	================ DF-OREMP FINAL RESULTS =============================== 
	======================================================================= 
	Nuclear Repulsion Energy (a.u.)    :     9.18738645758981
	DF-HF Energy (a.u.)                :   -76.02672862180601
	REF Energy (a.u.)                  :   -76.02601897629903
	DF-OREMP Correlation Energy (a.u.) :    -0.21628565143368
	Edforemp - Eref (a.u.)             :    -0.21699529694067
	DF-OREMP Total Energy (a.u.)       :   -76.24301427323969
	======================================================================= 


*** tstop() called on south at Thu Dec  2 17:50:28 2021
Module time:
	user time   =      32.10 seconds =       0.54 minutes
	system time =      13.16 seconds =       0.22 minutes
	total time  =         21 seconds =       0.35 minutes
Total time:
	user time   =      34.58 seconds =       0.58 minutes
	system time =      13.91 seconds =       0.23 minutes
	total time  =         22 seconds =       0.37 minutes

*** tstart() called on south
*** at Thu Dec  2 17:50:28 2021

	Forming Gamma^tilde...
	Backtransforming OPDM, TPDM, and GFM to the AO basis...

*** tstop() called on south at Thu Dec  2 17:50:28 2021
Module time:
	user time   =       0.52 seconds =       0.01 minutes
	system time =       0.31 seconds =       0.01 minutes
	total time  =          0 seconds =       0.00 minutes
Total time:
	user time   =      35.10 seconds =       0.58 minutes
	system time =      14.22 seconds =       0.24 minutes
	total time  =         22 seconds =       0.37 minutes
    Molecular point group: c1
    Full point group: C2v

    Geometry (in Bohr), charge = 0, multiplicity = 1:

       Center              X                  Y                   Z       
    ------------   -----------------  -----------------  -----------------
         O            0.000000000000     0.000000000000    -0.124070173015
         H            0.000000000000    -1.431214220689     0.984541840469
         H            0.000000000000     1.431214220689     0.984541840469


  -Total gradient:
     Atom            X                  Y                   Z
    ------   -----------------  -----------------  -----------------
       1       -0.000000000000    -0.000000000000     0.013895310040
       2       -0.000000000000     0.003248484259    -0.006947655020
       3        0.000000000000    -0.003248484259    -0.006947655020

    OREMP(0.00) Total Energy..............................................................PASSED
    OREMP(0.00) Analytic gradients........................................................PASSED

Scratch directory: /scr/behnle/
gradient() will perform analytic gradient computation.
    For method 'OREMP', SCF Algorithm Type (re)set to DISK_DF.

*** tstart() called on south
*** at Thu Dec  2 17:50:29 2021

   => Loading Basis Set <=

    Name: CC-PVDZ
    Role: ORBITAL
    Keyword: BASIS
    atoms 1   entry O          line   198 file /mnt/home/behnle/prog/psi4/psi4/objdir_python39/stage/share/psi4/basis/cc-pvdz.gbs 
    atoms 2-3 entry H          line    22 file /mnt/home/behnle/prog/psi4/psi4/objdir_python39/stage/share/psi4/basis/cc-pvdz.gbs 


         ---------------------------------------------------------
                                   SCF
               by Justin Turney, Rob Parrish, Andy Simmonett
                          and Daniel G. A. Smith
                              RHF Reference
                        4 Threads,    500 MiB Core
         ---------------------------------------------------------

  ==> Geometry <==

    Molecular point group: c1
    Full point group: C2v

    Geometry (in Angstrom), charge = 0, multiplicity = 1:

       Center              X                  Y                   Z               Mass       
    ------------   -----------------  -----------------  -----------------  -----------------
         O            0.000000000000     0.000000000000    -0.065655108083    15.994914619570
         H            0.000000000000    -0.757365949175     0.520997104927     1.007825032230
         H            0.000000000000     0.757365949175     0.520997104927     1.007825032230

  Running in c1 symmetry.

  Rotational constants: A =     27.36310  B =     14.58041  C =      9.51197 [cm^-1]
  Rotational constants: A = 820325.17390  B = 437109.76779  C = 285161.58919 [MHz]
  Nuclear repulsion =    9.187386457589815

  Charge       = 0
  Multiplicity = 1
  Electrons    = 10
  Nalpha       = 5
  Nbeta        = 5

  ==> Algorithm <==

  SCF Algorithm Type is DISK_DF.
  DIIS enabled.
  MOM disabled.
  Fractional occupation disabled.
  Guess Type is SAD.
  Energy threshold   = 1.00e-09
  Density threshold  = 1.00e-10
  Integral threshold = 1.00e-12

  ==> Primary Basis <==

  Basis Set: CC-PVDZ
    Blend: CC-PVDZ
    Number of shells: 12
    Number of basis functions: 24
    Number of Cartesian functions: 25
    Spherical Harmonics?: true
    Max angular momentum: 2

   => Loading Basis Set <=

    Name: DEF2-UNIVERSAL-JKFIT
    Role: JKFIT
    Keyword: DF_BASIS_SCF
    atoms 1   entry O          line   318 file /mnt/home/behnle/prog/psi4/psi4/objdir_python39/stage/share/psi4/basis/def2-universal-jkfit.gbs 
    atoms 2-3 entry H          line    18 file /mnt/home/behnle/prog/psi4/psi4/objdir_python39/stage/share/psi4/basis/def2-universal-jkfit.gbs 

  ==> Integral Setup <==

  ==> DiskDFJK: Density-Fitted J/K Matrices <==

    J tasked:                  Yes
    K tasked:                  Yes
    wK tasked:                  No
    OpenMP threads:              4
    Integrals threads:           4
    Memory [MiB]:              375
    Algorithm:                Core
    Integral Cache:           SAVE
    Schwarz Cutoff:          1E-12
    Fitting Condition:       1E-10

   => Auxiliary Basis Set <=

  Basis Set: DEF2-UNIVERSAL-JKFIT
    Blend: DEF2-UNIVERSAL-JKFIT
    Number of shells: 37
    Number of basis functions: 113
    Number of Cartesian functions: 133
    Spherical Harmonics?: true
    Max angular momentum: 4

  Minimum eigenvalue in the overlap matrix is 3.4230868396E-02.
  Reciprocal condition number of the overlap matrix is 9.2312643042E-03.
    Using symmetric orthogonalization.

  ==> Pre-Iterations <==

  SCF Guess: Superposition of Atomic Densities via on-the-fly atomic UHF (no occupation information).

   -------------------------
    Irrep   Nso     Nmo    
   -------------------------
     A         24      24 
   -------------------------
    Total      24      24
   -------------------------

  ==> Iterations <==

                           Total Energy        Delta E     RMS |[F,P]|

   @DF-RHF iter SAD:   -75.51050601860275   -7.55105e+01   0.00000e+00 
   @DF-RHF iter   1:   -75.95396440048310   -4.43458e-01   1.74099e-02 DIIS
   @DF-RHF iter   2:   -76.00724905192098   -5.32847e-02   9.94895e-03 DIIS
   @DF-RHF iter   3:   -76.02632264302765   -1.90736e-02   9.08408e-04 DIIS
   @DF-RHF iter   4:   -76.02670841043164   -3.85767e-04   2.08342e-04 DIIS
   @DF-RHF iter   5:   -76.02672767732813   -1.92669e-05   3.82796e-05 DIIS
   @DF-RHF iter   6:   -76.02672859528971   -9.17962e-07   6.10645e-06 DIIS
   @DF-RHF iter   7:   -76.02672862124921   -2.59595e-08   8.54412e-07 DIIS
   @DF-RHF iter   8:   -76.02672862177270   -5.23499e-10   1.98130e-07 DIIS
   @DF-RHF iter   9:   -76.02672862180520   -3.25002e-11   3.37707e-08 DIIS
   @DF-RHF iter  10:   -76.02672862180604   -8.38440e-13   2.77585e-09 DIIS
   @DF-RHF iter  11:   -76.02672862180606   -1.42109e-14   4.86617e-10 DIIS
   @DF-RHF iter  12:   -76.02672862180600    5.68434e-14   2.81762e-11 DIIS
  Energy and wave function converged.


  ==> Post-Iterations <==

    Orbital Energies [Eh]
    ---------------------

    Doubly Occupied:                                                      

       1A    -20.550579     2A     -1.336338     3A     -0.698827  
       4A     -0.566491     5A     -0.493092  

    Virtual:                                                              

       6A      0.185444     7A      0.256143     8A      0.788717  
       9A      0.853857    10A      1.163774    11A      1.200480  
      12A      1.253554    13A      1.444876    14A      1.476958  
      15A      1.675152    16A      1.867645    17A      1.935173  
      18A      2.451431    19A      2.489038    20A      3.286338  
      21A      3.339125    22A      3.510967    23A      3.865989  
      24A      4.148029  

    Final Occupation by Irrep:
              A 
    DOCC [     5 ]

  @DF-RHF Final Energy:   -76.02672862180600

   => Energetics <=

    Nuclear Repulsion Energy =              9.1873864575898150
    One-Electron Energy =                -123.1375748709705391
    Two-Electron Energy =                  37.9234597915747358
    Total Energy =                        -76.0267286218060008

Computation Completed


Properties will be evaluated at   0.000000,   0.000000,   0.000000 [a0]

Properties computed using the SCF density matrix

  Nuclear Dipole Moment: [e a0]
     X:     0.0000      Y:     0.0000      Z:     0.9765

  Electronic Dipole Moment: [e a0]
     X:     0.0000      Y:    -0.0000      Z:    -0.1669

  Dipole Moment: [e a0]
     X:     0.0000      Y:    -0.0000      Z:     0.8096     Total:     0.8096

  Dipole Moment: [D]
     X:     0.0000      Y:    -0.0000      Z:     2.0579     Total:     2.0579


*** tstop() called on south at Thu Dec  2 17:50:30 2021
Module time:
	user time   =       2.38 seconds =       0.04 minutes
	system time =       0.63 seconds =       0.01 minutes
	total time  =          1 seconds =       0.02 minutes
Total time:
	user time   =      37.74 seconds =       0.63 minutes
	system time =      14.98 seconds =       0.25 minutes
	total time  =         24 seconds =       0.40 minutes
  Constructing Basis Sets for DFOCC...

   => Loading Basis Set <=

    Name: DEF2-UNIVERSAL-JKFIT
    Role: JKFIT
    Keyword: DF_BASIS_SCF
    atoms 1   entry O          line   318 file /mnt/home/behnle/prog/psi4/psi4/objdir_python39/stage/share/psi4/basis/def2-universal-jkfit.gbs 
    atoms 2-3 entry H          line    18 file /mnt/home/behnle/prog/psi4/psi4/objdir_python39/stage/share/psi4/basis/def2-universal-jkfit.gbs 

   => Loading Basis Set <=

    Name: DEF2-TZVPP-RI
    Role: RIFIT
    Keyword: DF_BASIS_CC
    atoms 1   entry O          line   285 file /mnt/home/behnle/prog/psi4/psi4/objdir_python39/stage/share/psi4/basis/def2-tzvpp-ri.gbs 
    atoms 2-3 entry H          line    22 file /mnt/home/behnle/prog/psi4/psi4/objdir_python39/stage/share/psi4/basis/def2-tzvpp-ri.gbs 


*** tstart() called on south
*** at Thu Dec  2 17:50:30 2021



  Module DFOCC Options:
  ----------------------------------------------------------------------------
  ACTIVE                        => (empty)          
  BASIS_RELATIVISTIC            => (empty)          
  BENCH                         => (empty)          
  CC_DIIS_MAX_VECS              => (empty)          
  CC_DIIS_MIN_VECS              => (empty)          
  CC_LAMBDA                     => (empty)          
  CC_MAXITER                    => (empty)          
  CC_TYPE                       => DF              !
  CHOLESKY                      => (empty)          
  CHOLESKY_TOLERANCE            => (empty)          
  CIS_ALGORITHM                 => (empty)          
  CI_TYPE                       => (empty)          
  COMPUT_S2                     => (empty)          
  CUBEPROP_BASIS_FUNCTIONS      => (empty)          
  CUBEPROP_FILEPATH             => (empty)          
  CUBEPROP_ISOCONTOUR_THRESHOLD => (empty)          
  CUBEPROP_ORBITALS             => (empty)          
  CUBEPROP_TASKS                => (empty)          
  CUBIC_BASIS_TOLERANCE         => (empty)          
  CUBIC_BLOCK_MAX_POINTS        => (empty)          
  CUBIC_GRID_OVERAGE            => (empty)          
  CUBIC_GRID_SPACING            => (empty)          
  CUTOFF                        => (empty)          
  DAVIDSON_TOLERANCE            => (empty)          
  DEBUG                         => (empty)          
  DERTYPE                       => FIRST           !
  DF_BASIS_CC                   => DEF2-TZVPP-RI   !
  DIAG_METHOD                   => (empty)          
  DIE_IF_NOT_CONVERGED          => (empty)          
  DKH_ORDER                     => (empty)          
  DOCC                          => (empty)          
  DO_DIIS                       => (empty)          
  DO_LEVEL_SHIFT                => (empty)          
  DO_SCS                        => FALSE           !
  DO_SOS                        => FALSE           !
  E3_SCALE                      => (empty)          
  EKT_IP                        => (empty)          
  EXTERNAL_POTENTIAL_SYMMETRY   => (empty)          
  E_CONVERGENCE                 => 1e-09           !
  FREEZE_CORE                   => FALSE           !
  FROZEN_DOCC                   => (empty)          
  FROZEN_UOCC                   => (empty)          
  HESS_TYPE                     => (empty)          
  INTEGRAL_CUTOFF               => (empty)          
  INTEGRAL_PACKAGE              => (empty)          
  JK_MEMORY                     => (empty)          
  JK_TYPE                       => (empty)          
  LEVEL_SHIFT                   => (empty)          
  LINEQ_SOLVER                  => (empty)          
  LITERAL_CFOUR                 => (empty)          
  MAT_NUM_COLUMN_PRINT          => (empty)          
  MAX_MOGRAD_CONVERGENCE        => 1e-07           !
  MAX_RADIAL_MOMENT             => (empty)          
  MBIS_D_CONVERGENCE            => (empty)          
  MBIS_MAXITER                  => (empty)          
  MBIS_PRUNING_SCHEME           => (empty)          
  MBIS_RADIAL_POINTS            => (empty)          
  MBIS_SPHERICAL_POINTS         => (empty)          
  MOLDEN_WITH_VIRTUAL           => (empty)          
  MOLDEN_WRITE                  => (empty)          
  MO_DIIS_NUM_VECS              => (empty)          
  MO_MAXITER                    => (empty)          
  MO_READ                       => (empty)          
  MO_STEP_MAX                   => (empty)          
  MO_WRITE                      => (empty)          
  MP2_AMP_TYPE                  => (empty)          
  MP2_OS_SCALE                  => (empty)          
  MP2_SOS_SCALE                 => (empty)          
  MP2_SOS_SCALE2                => (empty)          
  MP2_SS_SCALE                  => (empty)          
  MP2_TYPE                      => (empty)          
  MP_TYPE                       => DF              !
  NAT_ORBS                      => (empty)          
  NBO                           => (empty)          
  NUM_FROZEN_DOCC               => (empty)          
  NUM_FROZEN_UOCC               => (empty)          
  NUM_GPUS                      => (empty)          
  OCC_ORBS_PRINT                => (empty)          
  OEPROP                        => (empty)          
  OO_SCALE                      => (empty)          
  OPT_METHOD                    => (empty)          
  ORB_OPT                       => TRUE            !
  ORB_RESP_SOLVER               => (empty)          
  ORTH_TYPE                     => (empty)          
  PARENT_SYMMETRY               => (empty)          
  PCG_BETA_TYPE                 => (empty)          
  PCG_CONVERGENCE               => (empty)          
  PCG_MAXITER                   => (empty)          
  PCM                           => (empty)          
  PE                            => (empty)          
  PPL_TYPE                      => (empty)          
  PRINT                         => (empty)          
  PRINT_CI_VECS                 => (empty)          
  PRINT_NOONS                   => (empty)          
  PROPERTIES                    => (empty)          
  PROPERTIES_ORIGIN             => (empty)          
  PUREAM                        => (empty)          
  QCHF                          => (empty)          
  QC_MODULE                     => OCC             !
  RAS1                          => (empty)          
  RAS2                          => (empty)          
  RAS3                          => (empty)          
  RAS4                          => (empty)          
  READ_SCF_3INDEX               => (empty)          
  REGULARIZATION                => (empty)          
  REG_PARAM                     => (empty)          
  RELATIVISTIC                  => (empty)          
  REMP_A                        => 0.1             !
  RESTRICTED_DOCC               => (empty)          
  RESTRICTED_UOCC               => (empty)          
  RMS_MOGRAD_CONVERGENCE        => 1e-08           !
  R_CONVERGENCE                 => 1e-08           !
  SCF_TYPE                      => DISK_DF         !
  SCS_TYPE                      => (empty)          
  SOCC                          => (empty)          
  SOS_TYPE                      => (empty)          
  TRIPLES_IABC_TYPE             => (empty)          
  WFN                           => (empty)          
  WFN_TYPE                      => DF-OREMP        !
  WRITER_FILE_LABEL             => (empty)          

	Warning: cc_lambda option is changed to TRUE
	For this residual convergence, default PCG convergence is:     1.00e-10

 ============================================================================== 
 ============================================================================== 
 ============================================================================== 

                     DF-OREMP   
              Program Written by Ugur Bozkaya
              Latest Revision December 8, 2020

 ============================================================================== 
 ============================================================================== 
 ============================================================================== 

	MO Hessian type is changed to 'HF'
	MO spaces... 

	 FC   OCC   VIR   FV 
	----------------------
	  0    5    19    0
	Reading DF integrals from disk ...
	Number of basis functions in the DF-HF basis: 113
	Number of basis functions in the DF-CC basis: 136

	Available memory                      :    500.00 MB 
	Memory requirement for 3-index ints   :      0.50 MB 
	Memory requirement for DF-CC int trans:      1.45 MB 
	Memory requirement for CC contractions:      0.28 MB 
	Total memory requirement for DF+CC int:      0.77 MB 
	Memory requirement for Wabef term     :      0.87 MB 

	Computing DF-MP2 energy using SCF MOs (Canonical DF-MP2)... 
	======================================================================= 
	Nuclear Repulsion Energy (a.u.)    :     9.18738645758981
	DF-HF Energy (a.u.)                :   -76.02672862180600
	REF Energy (a.u.)                  :   -76.02672862180600
	DF-MP2 Correlation Energy (a.u.)   :    -0.20394724679250
	DF-MP2 Total Energy (a.u.)         :   -76.23067586859851
	======================================================================= 
	Using A=      0.1 as REMP mixing parameter

	Number of independent-pairs:  95

 ============================================================================== 
 ================ Performing DF-OREMP iterations... =========================== 
 ============================================================================== 
	            Minimizing DF-REMP-L Functional 
	            ------------------------------ 
 Iter       E_total           DE           RMS MO Grad      MAX MO Grad      RMS T2    
 ----    ---------------    ----------     -----------      -----------     ---------- 
	successfully fired up coupled DIIS...
   1     -76.2408348773     -7.62e+01       6.40e-04         3.20e-03        2.33e-04 
   2     -76.2411694570     -3.35e-04       2.00e-04         8.57e-04        8.66e-05 
   3     -76.2412221547     -5.27e-05       2.54e-05         1.16e-04        1.38e-05 
   4     -76.2412241847     -2.03e-06       5.99e-06         3.24e-05        3.29e-06 
   5     -76.2412242900     -1.05e-07       7.40e-07         4.64e-06        5.89e-07 
   6     -76.2412242928     -2.80e-09       1.20e-07         9.82e-07        1.08e-07 
   7     -76.2412242929     -8.47e-11       2.37e-08         1.21e-07        2.56e-08 
   8     -76.2412242929     -4.99e-12       8.05e-09         3.58e-08        4.73e-09 

 ============================================================================== 
 ======================== DF-OREMP ITERATIONS ARE CONVERGED =================== 
 ============================================================================== 

	Computing DF-REMP energy using optimized MOs... 
	======================================================================= 
	Nuclear Repulsion Energy (a.u.)    :     9.18738645758981
	SCF Energy (a.u.)                  :   -76.02672862180600
	REF Energy (a.u.)                  :   -76.02602289425580
	DF-REMP Correlation Energy (a.u.)  :    -0.21520140967736
	DF-REMP Total Energy (a.u.)        :   -76.23067586859851
	======================================================================= 

	======================================================================= 
	================ DF-OREMP FINAL RESULTS =============================== 
	======================================================================= 
	Nuclear Repulsion Energy (a.u.)    :     9.18738645758981
	DF-HF Energy (a.u.)                :   -76.02672862180600
	REF Energy (a.u.)                  :   -76.02602289425580
	DF-OREMP Correlation Energy (a.u.) :    -0.21449567106191
	Edforemp - Eref (a.u.)             :    -0.21520139861211
	DF-OREMP Total Energy (a.u.)       :   -76.24122429286791
	======================================================================= 


*** tstop() called on south at Thu Dec  2 17:50:50 2021
Module time:
	user time   =      28.55 seconds =       0.48 minutes
	system time =      11.93 seconds =       0.20 minutes
	total time  =         20 seconds =       0.33 minutes
Total time:
	user time   =      66.46 seconds =       1.11 minutes
	system time =      26.94 seconds =       0.45 minutes
	total time  =         44 seconds =       0.73 minutes

*** tstart() called on south
*** at Thu Dec  2 17:50:50 2021

	Forming Gamma^tilde...
	Backtransforming OPDM, TPDM, and GFM to the AO basis...

*** tstop() called on south at Thu Dec  2 17:50:50 2021
Module time:
	user time   =       0.28 seconds =       0.00 minutes
	system time =       0.15 seconds =       0.00 minutes
	total time  =          0 seconds =       0.00 minutes
Total time:
	user time   =      66.74 seconds =       1.11 minutes
	system time =      27.09 seconds =       0.45 minutes
	total time  =         44 seconds =       0.73 minutes
    Molecular point group: c1
    Full point group: C2v

    Geometry (in Bohr), charge = 0, multiplicity = 1:

       Center              X                  Y                   Z       
    ------------   -----------------  -----------------  -----------------
         O            0.000000000000     0.000000000000    -0.124070173015
         H            0.000000000000    -1.431214220689     0.984541840469
         H            0.000000000000     1.431214220689     0.984541840469


  -Total gradient:
     Atom            X                  Y                   Z
    ------   -----------------  -----------------  -----------------
       1       -0.000000000000    -0.000000000000     0.013197989518
       2       -0.000000000000     0.002783805920    -0.006598994759
       3        0.000000000000    -0.002783805920    -0.006598994759

    OREMP(0.10) Total Energy..............................................................PASSED
    OREMP(0.10) Analytic gradients........................................................PASSED

Scratch directory: /scr/behnle/
gradient() will perform analytic gradient computation.
    For method 'OREMP', SCF Algorithm Type (re)set to DISK_DF.

*** tstart() called on south
*** at Thu Dec  2 17:50:51 2021

   => Loading Basis Set <=

    Name: CC-PVDZ
    Role: ORBITAL
    Keyword: BASIS
    atoms 1   entry O          line   198 file /mnt/home/behnle/prog/psi4/psi4/objdir_python39/stage/share/psi4/basis/cc-pvdz.gbs 
    atoms 2-3 entry H          line    22 file /mnt/home/behnle/prog/psi4/psi4/objdir_python39/stage/share/psi4/basis/cc-pvdz.gbs 


         ---------------------------------------------------------
                                   SCF
               by Justin Turney, Rob Parrish, Andy Simmonett
                          and Daniel G. A. Smith
                              RHF Reference
                        4 Threads,    500 MiB Core
         ---------------------------------------------------------

  ==> Geometry <==

    Molecular point group: c1
    Full point group: C2v

    Geometry (in Angstrom), charge = 0, multiplicity = 1:

       Center              X                  Y                   Z               Mass       
    ------------   -----------------  -----------------  -----------------  -----------------
         O            0.000000000000     0.000000000000    -0.065655108083    15.994914619570
         H            0.000000000000    -0.757365949175     0.520997104927     1.007825032230
         H            0.000000000000     0.757365949175     0.520997104927     1.007825032230

  Running in c1 symmetry.

  Rotational constants: A =     27.36310  B =     14.58041  C =      9.51197 [cm^-1]
  Rotational constants: A = 820325.17390  B = 437109.76779  C = 285161.58919 [MHz]
  Nuclear repulsion =    9.187386457589815

  Charge       = 0
  Multiplicity = 1
  Electrons    = 10
  Nalpha       = 5
  Nbeta        = 5

  ==> Algorithm <==

  SCF Algorithm Type is DISK_DF.
  DIIS enabled.
  MOM disabled.
  Fractional occupation disabled.
  Guess Type is SAD.
  Energy threshold   = 1.00e-09
  Density threshold  = 1.00e-10
  Integral threshold = 1.00e-12

  ==> Primary Basis <==

  Basis Set: CC-PVDZ
    Blend: CC-PVDZ
    Number of shells: 12
    Number of basis functions: 24
    Number of Cartesian functions: 25
    Spherical Harmonics?: true
    Max angular momentum: 2

   => Loading Basis Set <=

    Name: DEF2-UNIVERSAL-JKFIT
    Role: JKFIT
    Keyword: DF_BASIS_SCF
    atoms 1   entry O          line   318 file /mnt/home/behnle/prog/psi4/psi4/objdir_python39/stage/share/psi4/basis/def2-universal-jkfit.gbs 
    atoms 2-3 entry H          line    18 file /mnt/home/behnle/prog/psi4/psi4/objdir_python39/stage/share/psi4/basis/def2-universal-jkfit.gbs 

  ==> Integral Setup <==

  ==> DiskDFJK: Density-Fitted J/K Matrices <==

    J tasked:                  Yes
    K tasked:                  Yes
    wK tasked:                  No
    OpenMP threads:              4
    Integrals threads:           4
    Memory [MiB]:              375
    Algorithm:                Core
    Integral Cache:           SAVE
    Schwarz Cutoff:          1E-12
    Fitting Condition:       1E-10

   => Auxiliary Basis Set <=

  Basis Set: DEF2-UNIVERSAL-JKFIT
    Blend: DEF2-UNIVERSAL-JKFIT
    Number of shells: 37
    Number of basis functions: 113
    Number of Cartesian functions: 133
    Spherical Harmonics?: true
    Max angular momentum: 4

  Minimum eigenvalue in the overlap matrix is 3.4230868396E-02.
  Reciprocal condition number of the overlap matrix is 9.2312643042E-03.
    Using symmetric orthogonalization.

  ==> Pre-Iterations <==

  SCF Guess: Superposition of Atomic Densities via on-the-fly atomic UHF (no occupation information).

   -------------------------
    Irrep   Nso     Nmo    
   -------------------------
     A         24      24 
   -------------------------
    Total      24      24
   -------------------------

  ==> Iterations <==

                           Total Energy        Delta E     RMS |[F,P]|

   @DF-RHF iter SAD:   -75.51050601860277   -7.55105e+01   0.00000e+00 
   @DF-RHF iter   1:   -75.95396440048314   -4.43458e-01   1.74099e-02 DIIS
   @DF-RHF iter   2:   -76.00724905192101   -5.32847e-02   9.94895e-03 DIIS
   @DF-RHF iter   3:   -76.02632264302761   -1.90736e-02   9.08408e-04 DIIS
   @DF-RHF iter   4:   -76.02670841043168   -3.85767e-04   2.08342e-04 DIIS
   @DF-RHF iter   5:   -76.02672767732804   -1.92669e-05   3.82796e-05 DIIS
   @DF-RHF iter   6:   -76.02672859528965   -9.17962e-07   6.10645e-06 DIIS
   @DF-RHF iter   7:   -76.02672862124916   -2.59595e-08   8.54412e-07 DIIS
   @DF-RHF iter   8:   -76.02672862177270   -5.23542e-10   1.98130e-07 DIIS
   @DF-RHF iter   9:   -76.02672862180520   -3.25002e-11   3.37707e-08 DIIS
   @DF-RHF iter  10:   -76.02672862180604   -8.38440e-13   2.77585e-09 DIIS
   @DF-RHF iter  11:   -76.02672862180600    4.26326e-14   4.86617e-10 DIIS
   @DF-RHF iter  12:   -76.02672862180600    0.00000e+00   2.81762e-11 DIIS
  Energy and wave function converged.


  ==> Post-Iterations <==

    Orbital Energies [Eh]
    ---------------------

    Doubly Occupied:                                                      

       1A    -20.550579     2A     -1.336338     3A     -0.698827  
       4A     -0.566491     5A     -0.493092  

    Virtual:                                                              

       6A      0.185444     7A      0.256143     8A      0.788717  
       9A      0.853857    10A      1.163774    11A      1.200480  
      12A      1.253554    13A      1.444876    14A      1.476958  
      15A      1.675152    16A      1.867645    17A      1.935173  
      18A      2.451431    19A      2.489038    20A      3.286338  
      21A      3.339125    22A      3.510967    23A      3.865989  
      24A      4.148029  

    Final Occupation by Irrep:
              A 
    DOCC [     5 ]

  @DF-RHF Final Energy:   -76.02672862180600

   => Energetics <=

    Nuclear Repulsion Energy =              9.1873864575898150
    One-Electron Energy =                -123.1375748709706386
    Two-Electron Energy =                  37.9234597915748353
    Total Energy =                        -76.0267286218060008

Computation Completed


Properties will be evaluated at   0.000000,   0.000000,   0.000000 [a0]

Properties computed using the SCF density matrix

  Nuclear Dipole Moment: [e a0]
     X:     0.0000      Y:     0.0000      Z:     0.9765

  Electronic Dipole Moment: [e a0]
     X:     0.0000      Y:    -0.0000      Z:    -0.1669

  Dipole Moment: [e a0]
     X:     0.0000      Y:    -0.0000      Z:     0.8096     Total:     0.8096

  Dipole Moment: [D]
     X:     0.0000      Y:    -0.0000      Z:     2.0579     Total:     2.0579


*** tstop() called on south at Thu Dec  2 17:50:52 2021
Module time:
	user time   =       1.87 seconds =       0.03 minutes
	system time =       0.62 seconds =       0.01 minutes
	total time  =          1 seconds =       0.02 minutes
Total time:
	user time   =      68.86 seconds =       1.15 minutes
	system time =      27.84 seconds =       0.46 minutes
	total time  =         46 seconds =       0.77 minutes
  Constructing Basis Sets for DFOCC...

   => Loading Basis Set <=

    Name: DEF2-UNIVERSAL-JKFIT
    Role: JKFIT
    Keyword: DF_BASIS_SCF
    atoms 1   entry O          line   318 file /mnt/home/behnle/prog/psi4/psi4/objdir_python39/stage/share/psi4/basis/def2-universal-jkfit.gbs 
    atoms 2-3 entry H          line    18 file /mnt/home/behnle/prog/psi4/psi4/objdir_python39/stage/share/psi4/basis/def2-universal-jkfit.gbs 

   => Loading Basis Set <=

    Name: DEF2-TZVPP-RI
    Role: RIFIT
    Keyword: DF_BASIS_CC
    atoms 1   entry O          line   285 file /mnt/home/behnle/prog/psi4/psi4/objdir_python39/stage/share/psi4/basis/def2-tzvpp-ri.gbs 
    atoms 2-3 entry H          line    22 file /mnt/home/behnle/prog/psi4/psi4/objdir_python39/stage/share/psi4/basis/def2-tzvpp-ri.gbs 


*** tstart() called on south
*** at Thu Dec  2 17:50:52 2021



  Module DFOCC Options:
  ----------------------------------------------------------------------------
  ACTIVE                        => (empty)          
  BASIS_RELATIVISTIC            => (empty)          
  BENCH                         => (empty)          
  CC_DIIS_MAX_VECS              => (empty)          
  CC_DIIS_MIN_VECS              => (empty)          
  CC_LAMBDA                     => (empty)          
  CC_MAXITER                    => (empty)          
  CC_TYPE                       => DF              !
  CHOLESKY                      => (empty)          
  CHOLESKY_TOLERANCE            => (empty)          
  CIS_ALGORITHM                 => (empty)          
  CI_TYPE                       => (empty)          
  COMPUT_S2                     => (empty)          
  CUBEPROP_BASIS_FUNCTIONS      => (empty)          
  CUBEPROP_FILEPATH             => (empty)          
  CUBEPROP_ISOCONTOUR_THRESHOLD => (empty)          
  CUBEPROP_ORBITALS             => (empty)          
  CUBEPROP_TASKS                => (empty)          
  CUBIC_BASIS_TOLERANCE         => (empty)          
  CUBIC_BLOCK_MAX_POINTS        => (empty)          
  CUBIC_GRID_OVERAGE            => (empty)          
  CUBIC_GRID_SPACING            => (empty)          
  CUTOFF                        => (empty)          
  DAVIDSON_TOLERANCE            => (empty)          
  DEBUG                         => (empty)          
  DERTYPE                       => FIRST           !
  DF_BASIS_CC                   => DEF2-TZVPP-RI   !
  DIAG_METHOD                   => (empty)          
  DIE_IF_NOT_CONVERGED          => (empty)          
  DKH_ORDER                     => (empty)          
  DOCC                          => (empty)          
  DO_DIIS                       => (empty)          
  DO_LEVEL_SHIFT                => (empty)          
  DO_SCS                        => FALSE           !
  DO_SOS                        => FALSE           !
  E3_SCALE                      => (empty)          
  EKT_IP                        => (empty)          
  EXTERNAL_POTENTIAL_SYMMETRY   => (empty)          
  E_CONVERGENCE                 => 1e-09           !
  FREEZE_CORE                   => FALSE           !
  FROZEN_DOCC                   => (empty)          
  FROZEN_UOCC                   => (empty)          
  HESS_TYPE                     => (empty)          
  INTEGRAL_CUTOFF               => (empty)          
  INTEGRAL_PACKAGE              => (empty)          
  JK_MEMORY                     => (empty)          
  JK_TYPE                       => (empty)          
  LEVEL_SHIFT                   => (empty)          
  LINEQ_SOLVER                  => (empty)          
  LITERAL_CFOUR                 => (empty)          
  MAT_NUM_COLUMN_PRINT          => (empty)          
  MAX_MOGRAD_CONVERGENCE        => 1e-07           !
  MAX_RADIAL_MOMENT             => (empty)          
  MBIS_D_CONVERGENCE            => (empty)          
  MBIS_MAXITER                  => (empty)          
  MBIS_PRUNING_SCHEME           => (empty)          
  MBIS_RADIAL_POINTS            => (empty)          
  MBIS_SPHERICAL_POINTS         => (empty)          
  MOLDEN_WITH_VIRTUAL           => (empty)          
  MOLDEN_WRITE                  => (empty)          
  MO_DIIS_NUM_VECS              => (empty)          
  MO_MAXITER                    => (empty)          
  MO_READ                       => (empty)          
  MO_STEP_MAX                   => (empty)          
  MO_WRITE                      => (empty)          
  MP2_AMP_TYPE                  => (empty)          
  MP2_OS_SCALE                  => (empty)          
  MP2_SOS_SCALE                 => (empty)          
  MP2_SOS_SCALE2                => (empty)          
  MP2_SS_SCALE                  => (empty)          
  MP2_TYPE                      => (empty)          
  MP_TYPE                       => DF              !
  NAT_ORBS                      => (empty)          
  NBO                           => (empty)          
  NUM_FROZEN_DOCC               => (empty)          
  NUM_FROZEN_UOCC               => (empty)          
  NUM_GPUS                      => (empty)          
  OCC_ORBS_PRINT                => (empty)          
  OEPROP                        => (empty)          
  OO_SCALE                      => (empty)          
  OPT_METHOD                    => (empty)          
  ORB_OPT                       => TRUE            !
  ORB_RESP_SOLVER               => (empty)          
  ORTH_TYPE                     => (empty)          
  PARENT_SYMMETRY               => (empty)          
  PCG_BETA_TYPE                 => (empty)          
  PCG_CONVERGENCE               => (empty)          
  PCG_MAXITER                   => (empty)          
  PCM                           => (empty)          
  PE                            => (empty)          
  PPL_TYPE                      => (empty)          
  PRINT                         => (empty)          
  PRINT_CI_VECS                 => (empty)          
  PRINT_NOONS                   => (empty)          
  PROPERTIES                    => (empty)          
  PROPERTIES_ORIGIN             => (empty)          
  PUREAM                        => (empty)          
  QCHF                          => (empty)          
  QC_MODULE                     => OCC             !
  RAS1                          => (empty)          
  RAS2                          => (empty)          
  RAS3                          => (empty)          
  RAS4                          => (empty)          
  READ_SCF_3INDEX               => (empty)          
  REGULARIZATION                => (empty)          
  REG_PARAM                     => (empty)          
  RELATIVISTIC                  => (empty)          
  REMP_A                        => 0.2             !
  RESTRICTED_DOCC               => (empty)          
  RESTRICTED_UOCC               => (empty)          
  RMS_MOGRAD_CONVERGENCE        => 1e-08           !
  R_CONVERGENCE                 => 1e-08           !
  SCF_TYPE                      => DISK_DF         !
  SCS_TYPE                      => (empty)          
  SOCC                          => (empty)          
  SOS_TYPE                      => (empty)          
  TRIPLES_IABC_TYPE             => (empty)          
  WFN                           => (empty)          
  WFN_TYPE                      => DF-OREMP        !
  WRITER_FILE_LABEL             => (empty)          

	Warning: cc_lambda option is changed to TRUE
	For this residual convergence, default PCG convergence is:     1.00e-10

 ============================================================================== 
 ============================================================================== 
 ============================================================================== 

                     DF-OREMP   
              Program Written by Ugur Bozkaya
              Latest Revision December 8, 2020

 ============================================================================== 
 ============================================================================== 
 ============================================================================== 

	MO Hessian type is changed to 'HF'
	MO spaces... 

	 FC   OCC   VIR   FV 
	----------------------
	  0    5    19    0
	Reading DF integrals from disk ...
	Number of basis functions in the DF-HF basis: 113
	Number of basis functions in the DF-CC basis: 136

	Available memory                      :    500.00 MB 
	Memory requirement for 3-index ints   :      0.50 MB 
	Memory requirement for DF-CC int trans:      1.45 MB 
	Memory requirement for CC contractions:      0.28 MB 
	Total memory requirement for DF+CC int:      0.77 MB 
	Memory requirement for Wabef term     :      0.87 MB 

	Computing DF-MP2 energy using SCF MOs (Canonical DF-MP2)... 
	======================================================================= 
	Nuclear Repulsion Energy (a.u.)    :     9.18738645758981
	DF-HF Energy (a.u.)                :   -76.02672862180600
	REF Energy (a.u.)                  :   -76.02672862180600
	DF-MP2 Correlation Energy (a.u.)   :    -0.20394724679250
	DF-MP2 Total Energy (a.u.)         :   -76.23067586859851
	======================================================================= 
	Using A=      0.2 as REMP mixing parameter

	Number of independent-pairs:  95

 ============================================================================== 
 ================ Performing DF-OREMP iterations... =========================== 
 ============================================================================== 
	            Minimizing DF-REMP-L Functional 
	            ------------------------------ 
 Iter       E_total           DE           RMS MO Grad      MAX MO Grad      RMS T2    
 ----    ---------------    ----------     -----------      -----------     ---------- 
	successfully fired up coupled DIIS...
   1     -76.2394012306     -7.62e+01       5.73e-04         2.84e-03        1.23e-04 
   2     -76.2396082207     -2.07e-04       1.60e-04         7.04e-04        6.49e-05 
   3     -76.2396332594     -2.50e-05       1.63e-05         7.12e-05        6.28e-06 
   4     -76.2396339025     -6.43e-07       3.59e-06         1.91e-05        1.97e-06 
   5     -76.2396339285     -2.61e-08       3.83e-07         2.44e-06        1.90e-07 
   6     -76.2396339290     -5.10e-10       5.61e-08         4.50e-07        3.69e-08 
   7     -76.2396339291     -1.13e-11       8.69e-09         4.23e-08        9.41e-09 

 ============================================================================== 
 ======================== DF-OREMP ITERATIONS ARE CONVERGED =================== 
 ============================================================================== 

	Computing DF-REMP energy using optimized MOs... 
	======================================================================= 
	Nuclear Repulsion Energy (a.u.)    :     9.18738645758981
	SCF Energy (a.u.)                  :   -76.02672862180600
	REF Energy (a.u.)                  :   -76.02601922238091
	DF-REMP Correlation Energy (a.u.)  :    -0.21361469808107
	DF-REMP Total Energy (a.u.)        :   -76.23067586859851
	======================================================================= 

	======================================================================= 
	================ DF-OREMP FINAL RESULTS =============================== 
	======================================================================= 
	Nuclear Repulsion Energy (a.u.)    :     9.18738645758981
	DF-HF Energy (a.u.)                :   -76.02672862180600
	REF Energy (a.u.)                  :   -76.02601922238091
	DF-OREMP Correlation Energy (a.u.) :    -0.21290530724660
	Edforemp - Eref (a.u.)             :    -0.21361470667169
	DF-OREMP Total Energy (a.u.)       :   -76.23963392905260
	======================================================================= 


*** tstop() called on south at Thu Dec  2 17:51:08 2021
Module time:
	user time   =      24.55 seconds =       0.41 minutes
	system time =       9.68 seconds =       0.16 minutes
	total time  =         16 seconds =       0.27 minutes
Total time:
	user time   =      93.60 seconds =       1.56 minutes
	system time =      37.58 seconds =       0.63 minutes
	total time  =         62 seconds =       1.03 minutes

*** tstart() called on south
*** at Thu Dec  2 17:51:08 2021

	Forming Gamma^tilde...
	Backtransforming OPDM, TPDM, and GFM to the AO basis...

*** tstop() called on south at Thu Dec  2 17:51:08 2021
Module time:
	user time   =       0.33 seconds =       0.01 minutes
	system time =       0.17 seconds =       0.00 minutes
	total time  =          0 seconds =       0.00 minutes
Total time:
	user time   =      93.93 seconds =       1.57 minutes
	system time =      37.75 seconds =       0.63 minutes
	total time  =         62 seconds =       1.03 minutes
    Molecular point group: c1
    Full point group: C2v

    Geometry (in Bohr), charge = 0, multiplicity = 1:

       Center              X                  Y                   Z       
    ------------   -----------------  -----------------  -----------------
         O            0.000000000000     0.000000000000    -0.124070173015
         H            0.000000000000    -1.431214220689     0.984541840469
         H            0.000000000000     1.431214220689     0.984541840469


  -Total gradient:
     Atom            X                  Y                   Z
    ------   -----------------  -----------------  -----------------
       1       -0.000000000000     0.000000000000     0.012728281086
       2       -0.000000000000     0.002453429980    -0.006364140543
       3        0.000000000000    -0.002453429980    -0.006364140543

    OREMP(0.20) Total Energy..............................................................PASSED
    OREMP(0.20) Analytic gradients........................................................PASSED

Scratch directory: /scr/behnle/
gradient() will perform analytic gradient computation.
    For method 'OREMP', SCF Algorithm Type (re)set to DISK_DF.

*** tstart() called on south
*** at Thu Dec  2 17:51:08 2021

   => Loading Basis Set <=

    Name: CC-PVDZ
    Role: ORBITAL
    Keyword: BASIS
    atoms 1   entry O          line   198 file /mnt/home/behnle/prog/psi4/psi4/objdir_python39/stage/share/psi4/basis/cc-pvdz.gbs 
    atoms 2-3 entry H          line    22 file /mnt/home/behnle/prog/psi4/psi4/objdir_python39/stage/share/psi4/basis/cc-pvdz.gbs 


         ---------------------------------------------------------
                                   SCF
               by Justin Turney, Rob Parrish, Andy Simmonett
                          and Daniel G. A. Smith
                              RHF Reference
                        4 Threads,    500 MiB Core
         ---------------------------------------------------------

  ==> Geometry <==

    Molecular point group: c1
    Full point group: C2v

    Geometry (in Angstrom), charge = 0, multiplicity = 1:

       Center              X                  Y                   Z               Mass       
    ------------   -----------------  -----------------  -----------------  -----------------
         O            0.000000000000     0.000000000000    -0.065655108083    15.994914619570
         H            0.000000000000    -0.757365949175     0.520997104927     1.007825032230
         H            0.000000000000     0.757365949175     0.520997104927     1.007825032230

  Running in c1 symmetry.

  Rotational constants: A =     27.36310  B =     14.58041  C =      9.51197 [cm^-1]
  Rotational constants: A = 820325.17390  B = 437109.76779  C = 285161.58919 [MHz]
  Nuclear repulsion =    9.187386457589815

  Charge       = 0
  Multiplicity = 1
  Electrons    = 10
  Nalpha       = 5
  Nbeta        = 5

  ==> Algorithm <==

  SCF Algorithm Type is DISK_DF.
  DIIS enabled.
  MOM disabled.
  Fractional occupation disabled.
  Guess Type is SAD.
  Energy threshold   = 1.00e-09
  Density threshold  = 1.00e-10
  Integral threshold = 1.00e-12

  ==> Primary Basis <==

  Basis Set: CC-PVDZ
    Blend: CC-PVDZ
    Number of shells: 12
    Number of basis functions: 24
    Number of Cartesian functions: 25
    Spherical Harmonics?: true
    Max angular momentum: 2

   => Loading Basis Set <=

    Name: DEF2-UNIVERSAL-JKFIT
    Role: JKFIT
    Keyword: DF_BASIS_SCF
    atoms 1   entry O          line   318 file /mnt/home/behnle/prog/psi4/psi4/objdir_python39/stage/share/psi4/basis/def2-universal-jkfit.gbs 
    atoms 2-3 entry H          line    18 file /mnt/home/behnle/prog/psi4/psi4/objdir_python39/stage/share/psi4/basis/def2-universal-jkfit.gbs 

  ==> Integral Setup <==

  ==> DiskDFJK: Density-Fitted J/K Matrices <==

    J tasked:                  Yes
    K tasked:                  Yes
    wK tasked:                  No
    OpenMP threads:              4
    Integrals threads:           4
    Memory [MiB]:              375
    Algorithm:                Core
    Integral Cache:           SAVE
    Schwarz Cutoff:          1E-12
    Fitting Condition:       1E-10

   => Auxiliary Basis Set <=

  Basis Set: DEF2-UNIVERSAL-JKFIT
    Blend: DEF2-UNIVERSAL-JKFIT
    Number of shells: 37
    Number of basis functions: 113
    Number of Cartesian functions: 133
    Spherical Harmonics?: true
    Max angular momentum: 4

  Minimum eigenvalue in the overlap matrix is 3.4230868396E-02.
  Reciprocal condition number of the overlap matrix is 9.2312643042E-03.
    Using symmetric orthogonalization.

  ==> Pre-Iterations <==

  SCF Guess: Superposition of Atomic Densities via on-the-fly atomic UHF (no occupation information).

   -------------------------
    Irrep   Nso     Nmo    
   -------------------------
     A         24      24 
   -------------------------
    Total      24      24
   -------------------------

  ==> Iterations <==

                           Total Energy        Delta E     RMS |[F,P]|

   @DF-RHF iter SAD:   -75.51050601860280   -7.55105e+01   0.00000e+00 
   @DF-RHF iter   1:   -75.95396440048312   -4.43458e-01   1.74099e-02 DIIS
   @DF-RHF iter   2:   -76.00724905192097   -5.32847e-02   9.94895e-03 DIIS
   @DF-RHF iter   3:   -76.02632264302764   -1.90736e-02   9.08408e-04 DIIS
   @DF-RHF iter   4:   -76.02670841043160   -3.85767e-04   2.08342e-04 DIIS
   @DF-RHF iter   5:   -76.02672767732807   -1.92669e-05   3.82796e-05 DIIS
   @DF-RHF iter   6:   -76.02672859528970   -9.17962e-07   6.10645e-06 DIIS
   @DF-RHF iter   7:   -76.02672862124921   -2.59595e-08   8.54412e-07 DIIS
   @DF-RHF iter   8:   -76.02672862177270   -5.23499e-10   1.98130e-07 DIIS
   @DF-RHF iter   9:   -76.02672862180520   -3.25002e-11   3.37707e-08 DIIS
   @DF-RHF iter  10:   -76.02672862180604   -8.38440e-13   2.77585e-09 DIIS
   @DF-RHF iter  11:   -76.02672862180603    1.42109e-14   4.86617e-10 DIIS
   @DF-RHF iter  12:   -76.02672862180601    1.42109e-14   2.81763e-11 DIIS
  Energy and wave function converged.


  ==> Post-Iterations <==

    Orbital Energies [Eh]
    ---------------------

    Doubly Occupied:                                                      

       1A    -20.550579     2A     -1.336338     3A     -0.698827  
       4A     -0.566491     5A     -0.493092  

    Virtual:                                                              

       6A      0.185444     7A      0.256143     8A      0.788717  
       9A      0.853857    10A      1.163774    11A      1.200480  
      12A      1.253554    13A      1.444876    14A      1.476958  
      15A      1.675152    16A      1.867645    17A      1.935173  
      18A      2.451431    19A      2.489038    20A      3.286338  
      21A      3.339125    22A      3.510967    23A      3.865989  
      24A      4.148029  

    Final Occupation by Irrep:
              A 
    DOCC [     5 ]

  @DF-RHF Final Energy:   -76.02672862180601

   => Energetics <=

    Nuclear Repulsion Energy =              9.1873864575898150
    One-Electron Energy =                -123.1375748709706386
    Two-Electron Energy =                  37.9234597915748139
    Total Energy =                        -76.0267286218060150

Computation Completed


Properties will be evaluated at   0.000000,   0.000000,   0.000000 [a0]

Properties computed using the SCF density matrix

  Nuclear Dipole Moment: [e a0]
     X:     0.0000      Y:     0.0000      Z:     0.9765

  Electronic Dipole Moment: [e a0]
     X:     0.0000      Y:    -0.0000      Z:    -0.1669

  Dipole Moment: [e a0]
     X:     0.0000      Y:    -0.0000      Z:     0.8096     Total:     0.8096

  Dipole Moment: [D]
     X:     0.0000      Y:    -0.0000      Z:     2.0579     Total:     2.0579


*** tstop() called on south at Thu Dec  2 17:51:10 2021
Module time:
	user time   =       2.84 seconds =       0.05 minutes
	system time =       0.61 seconds =       0.01 minutes
	total time  =          2 seconds =       0.03 minutes
Total time:
	user time   =      97.02 seconds =       1.62 minutes
	system time =      38.52 seconds =       0.64 minutes
	total time  =         64 seconds =       1.07 minutes
  Constructing Basis Sets for DFOCC...

   => Loading Basis Set <=

    Name: DEF2-UNIVERSAL-JKFIT
    Role: JKFIT
    Keyword: DF_BASIS_SCF
    atoms 1   entry O          line   318 file /mnt/home/behnle/prog/psi4/psi4/objdir_python39/stage/share/psi4/basis/def2-universal-jkfit.gbs 
    atoms 2-3 entry H          line    18 file /mnt/home/behnle/prog/psi4/psi4/objdir_python39/stage/share/psi4/basis/def2-universal-jkfit.gbs 

   => Loading Basis Set <=

    Name: DEF2-TZVPP-RI
    Role: RIFIT
    Keyword: DF_BASIS_CC
    atoms 1   entry O          line   285 file /mnt/home/behnle/prog/psi4/psi4/objdir_python39/stage/share/psi4/basis/def2-tzvpp-ri.gbs 
    atoms 2-3 entry H          line    22 file /mnt/home/behnle/prog/psi4/psi4/objdir_python39/stage/share/psi4/basis/def2-tzvpp-ri.gbs 


*** tstart() called on south
*** at Thu Dec  2 17:51:10 2021



  Module DFOCC Options:
  ----------------------------------------------------------------------------
  ACTIVE                        => (empty)          
  BASIS_RELATIVISTIC            => (empty)          
  BENCH                         => (empty)          
  CC_DIIS_MAX_VECS              => (empty)          
  CC_DIIS_MIN_VECS              => (empty)          
  CC_LAMBDA                     => (empty)          
  CC_MAXITER                    => (empty)          
  CC_TYPE                       => DF              !
  CHOLESKY                      => (empty)          
  CHOLESKY_TOLERANCE            => (empty)          
  CIS_ALGORITHM                 => (empty)          
  CI_TYPE                       => (empty)          
  COMPUT_S2                     => (empty)          
  CUBEPROP_BASIS_FUNCTIONS      => (empty)          
  CUBEPROP_FILEPATH             => (empty)          
  CUBEPROP_ISOCONTOUR_THRESHOLD => (empty)          
  CUBEPROP_ORBITALS             => (empty)          
  CUBEPROP_TASKS                => (empty)          
  CUBIC_BASIS_TOLERANCE         => (empty)          
  CUBIC_BLOCK_MAX_POINTS        => (empty)          
  CUBIC_GRID_OVERAGE            => (empty)          
  CUBIC_GRID_SPACING            => (empty)          
  CUTOFF                        => (empty)          
  DAVIDSON_TOLERANCE            => (empty)          
  DEBUG                         => (empty)          
  DERTYPE                       => FIRST           !
  DF_BASIS_CC                   => DEF2-TZVPP-RI   !
  DIAG_METHOD                   => (empty)          
  DIE_IF_NOT_CONVERGED          => (empty)          
  DKH_ORDER                     => (empty)          
  DOCC                          => (empty)          
  DO_DIIS                       => (empty)          
  DO_LEVEL_SHIFT                => (empty)          
  DO_SCS                        => FALSE           !
  DO_SOS                        => FALSE           !
  E3_SCALE                      => (empty)          
  EKT_IP                        => (empty)          
  EXTERNAL_POTENTIAL_SYMMETRY   => (empty)          
  E_CONVERGENCE                 => 1e-09           !
  FREEZE_CORE                   => FALSE           !
  FROZEN_DOCC                   => (empty)          
  FROZEN_UOCC                   => (empty)          
  HESS_TYPE                     => (empty)          
  INTEGRAL_CUTOFF               => (empty)          
  INTEGRAL_PACKAGE              => (empty)          
  JK_MEMORY                     => (empty)          
  JK_TYPE                       => (empty)          
  LEVEL_SHIFT                   => (empty)          
  LINEQ_SOLVER                  => (empty)          
  LITERAL_CFOUR                 => (empty)          
  MAT_NUM_COLUMN_PRINT          => (empty)          
  MAX_MOGRAD_CONVERGENCE        => 1e-07           !
  MAX_RADIAL_MOMENT             => (empty)          
  MBIS_D_CONVERGENCE            => (empty)          
  MBIS_MAXITER                  => (empty)          
  MBIS_PRUNING_SCHEME           => (empty)          
  MBIS_RADIAL_POINTS            => (empty)          
  MBIS_SPHERICAL_POINTS         => (empty)          
  MOLDEN_WITH_VIRTUAL           => (empty)          
[...]

  ==> Geometry <==

    Molecular point group: c1
    Full point group: C2v

    Geometry (in Angstrom), charge = 0, multiplicity = 1:

       Center              X                  Y                   Z               Mass       
    ------------   -----------------  -----------------  -----------------  -----------------
         O            0.000000000000     0.000000000000    -0.065655108083    15.994914619570
         H            0.000000000000    -0.757365949175     0.520997104927     1.007825032230
         H            0.000000000000     0.757365949175     0.520997104927     1.007825032230

  Running in c1 symmetry.

  Rotational constants: A =     27.36310  B =     14.58041  C =      9.51197 [cm^-1]
  Rotational constants: A = 820325.17390  B = 437109.76779  C = 285161.58919 [MHz]
  Nuclear repulsion =    9.187386457589815

  Charge       = 0
  Multiplicity = 1
  Electrons    = 10
  Nalpha       = 5
  Nbeta        = 5

  ==> Algorithm <==

  SCF Algorithm Type is DISK_DF.
  DIIS enabled.
  MOM disabled.
  Fractional occupation disabled.
  Guess Type is SAD.
  Energy threshold   = 1.00e-09
  Density threshold  = 1.00e-10
  Integral threshold = 1.00e-12

  ==> Primary Basis <==

  Basis Set: CC-PVDZ
    Blend: CC-PVDZ
    Number of shells: 12
    Number of basis functions: 24
    Number of Cartesian functions: 25
    Spherical Harmonics?: true
    Max angular momentum: 2

   => Loading Basis Set <=

    Name: DEF2-UNIVERSAL-JKFIT
    Role: JKFIT
    Keyword: DF_BASIS_SCF
    atoms 1   entry O          line   318 file /mnt/home/behnle/prog/psi4/psi4/objdir_python39/stage/share/psi4/basis/def2-universal-jkfit.gbs 
    atoms 2-3 entry H          line    18 file /mnt/home/behnle/prog/psi4/psi4/objdir_python39/stage/share/psi4/basis/def2-universal-jkfit.gbs 

  ==> Integral Setup <==

  ==> DiskDFJK: Density-Fitted J/K Matrices <==

    J tasked:                  Yes
    K tasked:                  Yes
    wK tasked:                  No
    OpenMP threads:              4
    Integrals threads:           4
    Memory [MiB]:              375
    Algorithm:                Core
    Integral Cache:           SAVE
    Schwarz Cutoff:          1E-12
    Fitting Condition:       1E-10

   => Auxiliary Basis Set <=

  Basis Set: DEF2-UNIVERSAL-JKFIT
    Blend: DEF2-UNIVERSAL-JKFIT
    Number of shells: 37
    Number of basis functions: 113
    Number of Cartesian functions: 133
    Spherical Harmonics?: true
    Max angular momentum: 4

  Minimum eigenvalue in the overlap matrix is 3.4230868396E-02.
  Reciprocal condition number of the overlap matrix is 9.2312643042E-03.
    Using symmetric orthogonalization.

  ==> Pre-Iterations <==

  SCF Guess: Superposition of Atomic Densities via on-the-fly atomic UHF (no occupation information).

   -------------------------
    Irrep   Nso     Nmo    
   -------------------------
     A         24      24 
   -------------------------
    Total      24      24
   -------------------------

  ==> Iterations <==

                           Total Energy        Delta E     RMS |[F,P]|

   @DF-RHF iter SAD:   -75.51050601860275   -7.55105e+01   0.00000e+00 
   @DF-RHF iter   1:   -75.95396440048314   -4.43458e-01   1.74099e-02 DIIS
   @DF-RHF iter   2:   -76.00724905192094   -5.32847e-02   9.94895e-03 DIIS
   @DF-RHF iter   3:   -76.02632264302760   -1.90736e-02   9.08408e-04 DIIS
   @DF-RHF iter   4:   -76.02670841043162   -3.85767e-04   2.08342e-04 DIIS
   @DF-RHF iter   5:   -76.02672767732814   -1.92669e-05   3.82796e-05 DIIS
   @DF-RHF iter   6:   -76.02672859528971   -9.17962e-07   6.10645e-06 DIIS
   @DF-RHF iter   7:   -76.02672862124919   -2.59595e-08   8.54412e-07 DIIS
   @DF-RHF iter   8:   -76.02672862177266   -5.23471e-10   1.98130e-07 DIIS
   @DF-RHF iter   9:   -76.02672862180515   -3.24860e-11   3.37707e-08 DIIS
   @DF-RHF iter  10:   -76.02672862180611   -9.66338e-13   2.77585e-09 DIIS
   @DF-RHF iter  11:   -76.02672862180604    7.10543e-14   4.86617e-10 DIIS
   @DF-RHF iter  12:   -76.02672862180603    1.42109e-14   2.81763e-11 DIIS
  Energy and wave function converged.


  ==> Post-Iterations <==

    Orbital Energies [Eh]
    ---------------------

    Doubly Occupied:                                                      

       1A    -20.550579     2A     -1.336338     3A     -0.698827  
       4A     -0.566491     5A     -0.493092  

    Virtual:                                                              

       6A      0.185444     7A      0.256143     8A      0.788717  
       9A      0.853857    10A      1.163774    11A      1.200480  
      12A      1.253554    13A      1.444876    14A      1.476958  
      15A      1.675152    16A      1.867645    17A      1.935173  
      18A      2.451431    19A      2.489038    20A      3.286338  
      21A      3.339125    22A      3.510967    23A      3.865989  
      24A      4.148029  

    Final Occupation by Irrep:
              A 
    DOCC [     5 ]

  @DF-RHF Final Energy:   -76.02672862180603

   => Energetics <=

    Nuclear Repulsion Energy =              9.1873864575898150
    One-Electron Energy =                -123.1375748709706528
    Two-Electron Energy =                  37.9234597915748282
    Total Energy =                        -76.0267286218060150

Computation Completed


Properties will be evaluated at   0.000000,   0.000000,   0.000000 [a0]

Properties computed using the SCF density matrix

  Nuclear Dipole Moment: [e a0]
     X:     0.0000      Y:     0.0000      Z:     0.9765

  Electronic Dipole Moment: [e a0]
     X:     0.0000      Y:    -0.0000      Z:    -0.1669

  Dipole Moment: [e a0]
     X:     0.0000      Y:    -0.0000      Z:     0.8096     Total:     0.8096

  Dipole Moment: [D]
     X:     0.0000      Y:    -0.0000      Z:     2.0579     Total:     2.0579


*** tstop() called on south at Thu Dec  2 17:51:26 2021
Module time:
	user time   =       2.52 seconds =       0.04 minutes
	system time =       0.94 seconds =       0.02 minutes
	total time  =          2 seconds =       0.03 minutes
Total time:
	user time   =     124.55 seconds =       2.08 minutes
	system time =      49.42 seconds =       0.82 minutes
	total time  =         80 seconds =       1.33 minutes
  Constructing Basis Sets for DFOCC...

   => Loading Basis Set <=

    Name: DEF2-UNIVERSAL-JKFIT
    Role: JKFIT
    Keyword: DF_BASIS_SCF
    atoms 1   entry O          line   318 file /mnt/home/behnle/prog/psi4/psi4/objdir_python39/stage/share/psi4/basis/def2-universal-jkfit.gbs 
    atoms 2-3 entry H          line    18 file /mnt/home/behnle/prog/psi4/psi4/objdir_python39/stage/share/psi4/basis/def2-universal-jkfit.gbs 

   => Loading Basis Set <=

    Name: DEF2-TZVPP-RI
    Role: RIFIT
    Keyword: DF_BASIS_CC
    atoms 1   entry O          line   285 file /mnt/home/behnle/prog/psi4/psi4/objdir_python39/stage/share/psi4/basis/def2-tzvpp-ri.gbs 
    atoms 2-3 entry H          line    22 file /mnt/home/behnle/prog/psi4/psi4/objdir_python39/stage/share/psi4/basis/def2-tzvpp-ri.gbs 


*** tstart() called on south
*** at Thu Dec  2 17:51:26 2021



  Module DFOCC Options:
  ----------------------------------------------------------------------------
  ACTIVE                        => (empty)          
  BASIS_RELATIVISTIC            => (empty)          
  BENCH                         => (empty)          
  CC_DIIS_MAX_VECS              => (empty)          
  CC_DIIS_MIN_VECS              => (empty)          
  CC_LAMBDA                     => (empty)          
  CC_MAXITER                    => (empty)          
  CC_TYPE                       => DF              !
  CHOLESKY                      => (empty)          
  CHOLESKY_TOLERANCE            => (empty)          
  CIS_ALGORITHM                 => (empty)          
  CI_TYPE                       => (empty)          
  COMPUT_S2                     => (empty)          
  CUBEPROP_BASIS_FUNCTIONS      => (empty)          
  CUBEPROP_FILEPATH             => (empty)          
  CUBEPROP_ISOCONTOUR_THRESHOLD => (empty)          
  CUBEPROP_ORBITALS             => (empty)          
  CUBEPROP_TASKS                => (empty)          
  CUBIC_BASIS_TOLERANCE         => (empty)          
  CUBIC_BLOCK_MAX_POINTS        => (empty)          
  CUBIC_GRID_OVERAGE            => (empty)          
  CUBIC_GRID_SPACING            => (empty)          
  CUTOFF                        => (empty)          
  DAVIDSON_TOLERANCE            => (empty)          
  DEBUG                         => (empty)          
  DERTYPE                       => FIRST           !
  DF_BASIS_CC                   => DEF2-TZVPP-RI   !
  DIAG_METHOD                   => (empty)          
  DIE_IF_NOT_CONVERGED          => (empty)          
  DKH_ORDER                     => (empty)          
  DOCC                          => (empty)          
  DO_DIIS                       => (empty)          
  DO_LEVEL_SHIFT                => (empty)          
  DO_SCS                        => FALSE           !
  DO_SOS                        => FALSE           !
  E3_SCALE                      => (empty)          
  EKT_IP                        => (empty)          
  EXTERNAL_POTENTIAL_SYMMETRY   => (empty)          
  E_CONVERGENCE                 => 1e-09           !
  FREEZE_CORE                   => FALSE           !
  FROZEN_DOCC                   => (empty)          
  FROZEN_UOCC                   => (empty)          
  HESS_TYPE                     => (empty)          
  INTEGRAL_CUTOFF               => (empty)          
  INTEGRAL_PACKAGE              => (empty)          
  JK_MEMORY                     => (empty)          
  JK_TYPE                       => (empty)          
  LEVEL_SHIFT                   => (empty)          
  LINEQ_SOLVER                  => (empty)          
  LITERAL_CFOUR                 => (empty)          
  MAT_NUM_COLUMN_PRINT          => (empty)          
  MAX_MOGRAD_CONVERGENCE        => 1e-07           !
  MAX_RADIAL_MOMENT             => (empty)          
  MBIS_D_CONVERGENCE            => (empty)          
  MBIS_MAXITER                  => (empty)          
  MBIS_PRUNING_SCHEME           => (empty)          
  MBIS_RADIAL_POINTS            => (empty)          
  MBIS_SPHERICAL_POINTS         => (empty)          
  MOLDEN_WITH_VIRTUAL           => (empty)          
  MOLDEN_WRITE                  => (empty)          
  MO_DIIS_NUM_VECS              => (empty)          
  MO_MAXITER                    => (empty)          
  MO_READ                       => (empty)          
  MO_STEP_MAX                   => (empty)          
  MO_WRITE                      => (empty)          
  MP2_AMP_TYPE                  => (empty)          
  MP2_OS_SCALE                  => (empty)          
  MP2_SOS_SCALE                 => (empty)          
  MP2_SOS_SCALE2                => (empty)          
  MP2_SS_SCALE                  => (empty)          
  MP2_TYPE                      => (empty)          
  MP_TYPE                       => DF              !
  NAT_ORBS                      => (empty)          
  NBO                           => (empty)          
  NUM_FROZEN_DOCC               => (empty)          
  NUM_FROZEN_UOCC               => (empty)          
  NUM_GPUS                      => (empty)          
  OCC_ORBS_PRINT                => (empty)          
  OEPROP                        => (empty)          
  OO_SCALE                      => (empty)          
  OPT_METHOD                    => (empty)          
  ORB_OPT                       => TRUE            !
  ORB_RESP_SOLVER               => (empty)          
  ORTH_TYPE                     => (empty)          
  PARENT_SYMMETRY               => (empty)          
  PCG_BETA_TYPE                 => (empty)          
  PCG_CONVERGENCE               => (empty)          
  PCG_MAXITER                   => (empty)          
  PCM                           => (empty)          
  PE                            => (empty)          
  PPL_TYPE                      => (empty)          
  PRINT                         => (empty)          
  PRINT_CI_VECS                 => (empty)          
  PRINT_NOONS                   => (empty)          
  PROPERTIES                    => (empty)          
  PROPERTIES_ORIGIN             => (empty)          
  PUREAM                        => (empty)          
  QCHF                          => (empty)          
  QC_MODULE                     => OCC             !
  RAS1                          => (empty)          
  RAS2                          => (empty)          
  RAS3                          => (empty)          
  RAS4                          => (empty)          
  READ_SCF_3INDEX               => (empty)          
  REGULARIZATION                => (empty)          
  REG_PARAM                     => (empty)          
  RELATIVISTIC                  => (empty)          
  REMP_A                        => 1               !
  RESTRICTED_DOCC               => (empty)          
  RESTRICTED_UOCC               => (empty)          
  RMS_MOGRAD_CONVERGENCE        => 1e-08           !
  R_CONVERGENCE                 => 1e-08           !
  SCF_TYPE                      => DISK_DF         !
  SCS_TYPE                      => (empty)          
  SOCC                          => (empty)          
  SOS_TYPE                      => (empty)          
  TRIPLES_IABC_TYPE             => (empty)          
  WFN                           => (empty)          
  WFN_TYPE                      => DF-OREMP        !
  WRITER_FILE_LABEL             => (empty)          

	Warning: cc_lambda option is changed to TRUE
	For this residual convergence, default PCG convergence is:     1.00e-10

 ============================================================================== 
 ============================================================================== 
 ============================================================================== 

                     DF-OREMP   
              Program Written by Ugur Bozkaya
              Latest Revision December 8, 2020

 ============================================================================== 
 ============================================================================== 
 ============================================================================== 

	MO Hessian type is changed to 'HF'
	MO spaces... 

	 FC   OCC   VIR   FV 
	----------------------
	  0    5    19    0
	Reading DF integrals from disk ...
	Number of basis functions in the DF-HF basis: 113
	Number of basis functions in the DF-CC basis: 136

	Available memory                      :    500.00 MB 
	Memory requirement for 3-index ints   :      0.50 MB 
	Memory requirement for DF-CC int trans:      1.45 MB 
	Memory requirement for CC contractions:      0.28 MB 
	Total memory requirement for DF+CC int:      0.77 MB 
	Memory requirement for Wabef term     :      0.87 MB 

	Computing DF-MP2 energy using SCF MOs (Canonical DF-MP2)... 
	======================================================================= 
	Nuclear Repulsion Energy (a.u.)    :     9.18738645758981
	DF-HF Energy (a.u.)                :   -76.02672862180603
	REF Energy (a.u.)                  :   -76.02672862180603
	DF-MP2 Correlation Energy (a.u.)   :    -0.20394724679250
	DF-MP2 Total Energy (a.u.)         :   -76.23067586859854
	======================================================================= 
	Using A=        1 as REMP mixing parameter

	Number of independent-pairs:  95

 ============================================================================== 
 ================ Performing DF-OREMP iterations... =========================== 
 ============================================================================== 
	            Minimizing DF-REMP-L Functional 
	            ------------------------------ 
 Iter       E_total           DE           RMS MO Grad      MAX MO Grad      RMS T2    
 ----    ---------------    ----------     -----------      -----------     ---------- 
	successfully fired up coupled DIIS...
   1     -76.2315698579     -7.62e+01       2.18e-04         8.18e-04        3.03e-05 
   2     -76.2315718020     -1.94e-06       1.74e-05         8.49e-05        1.91e-06 
   3     -76.2315718176     -1.56e-08       1.34e-06         7.06e-06        8.65e-08 
   4     -76.2315718177     -1.11e-10       1.22e-07         7.36e-07        1.53e-08 
   5     -76.2315718177     -8.10e-13       1.36e-09         7.88e-09        1.33e-10 

 ============================================================================== 
 ======================== DF-OREMP ITERATIONS ARE CONVERGED =================== 
 ============================================================================== 

	Computing DF-REMP energy using optimized MOs... 
	======================================================================= 
	Nuclear Repulsion Energy (a.u.)    :     9.18738645758981
	SCF Energy (a.u.)                  :   -76.02672862180603
	REF Energy (a.u.)                  :   -76.02580970062813
	DF-REMP Correlation Energy (a.u.)  :    -0.20576211706345
	DF-REMP Total Energy (a.u.)        :   -76.23067586859854
	======================================================================= 

	======================================================================= 
	================ DF-OREMP FINAL RESULTS =============================== 
	======================================================================= 
	Nuclear Repulsion Energy (a.u.)    :     9.18738645758981
	DF-HF Energy (a.u.)                :   -76.02672862180603
	REF Energy (a.u.)                  :   -76.02580970062813
	DF-OREMP Correlation Energy (a.u.) :    -0.20484319588485
	Edforemp - Eref (a.u.)             :    -0.20576211706275
	DF-OREMP Total Energy (a.u.)       :   -76.23157181769088
	======================================================================= 


*** tstop() called on south at Thu Dec  2 17:51:37 2021
Module time:
	user time   =      18.34 seconds =       0.31 minutes
	system time =       7.44 seconds =       0.12 minutes
	total time  =         11 seconds =       0.18 minutes
Total time:
	user time   =     143.08 seconds =       2.38 minutes
	system time =      56.91 seconds =       0.95 minutes
	total time  =         91 seconds =       1.52 minutes

*** tstart() called on south
*** at Thu Dec  2 17:51:37 2021

	Forming Gamma^tilde...
	Backtransforming OPDM, TPDM, and GFM to the AO basis...

*** tstop() called on south at Thu Dec  2 17:51:37 2021
Module time:
	user time   =       0.40 seconds =       0.01 minutes
	system time =       0.20 seconds =       0.00 minutes
	total time  =          0 seconds =       0.00 minutes
Total time:
	user time   =     143.48 seconds =       2.39 minutes
	system time =      57.11 seconds =       0.95 minutes
	total time  =         91 seconds =       1.52 minutes
    Molecular point group: c1
    Full point group: C2v

    Geometry (in Bohr), charge = 0, multiplicity = 1:

       Center              X                  Y                   Z       
    ------------   -----------------  -----------------  -----------------
         O            0.000000000000     0.000000000000    -0.124070173015
         H            0.000000000000    -1.431214220689     0.984541840469
         H            0.000000000000     1.431214220689     0.984541840469


  -Total gradient:
     Atom            X                  Y                   Z
    ------   -----------------  -----------------  -----------------
       1       -0.000000000000    -0.000000000000     0.013476662939
       2       -0.000000000000     0.002449235008    -0.006738331469
       3        0.000000000000    -0.002449235008    -0.006738331469

    OREMP(1.00) Total Energy..............................................................PASSED
    OREMP(1.00) Analytic gradients........................................................PASSED

    Psi4 stopped on: Thursday, 02 December 2021 05:51PM
    Psi4 wall time for execution: 0:01:31.80

*** Psi4 exiting successfully. Buy a developer a beer!
