    -----------------------------------------------------------------------
          Psi4: An Open-Source Ab Initio Electronic Structure Package
                              Psi4 0.4.190 Driver

                          Git: Rev {test_ref_refresh} 9b1b239 dirty

    J. M. Turney, A. C. Simmonett, R. M. Parrish, E. G. Hohenstein,
    F. A. Evangelista, J. T. Fermann, B. J. Mintz, L. A. Burns, J. J. Wilke,
    M. L. Abrams, N. J. Russ, M. L. Leininger, C. L. Janssen, E. T. Seidl,
    W. D. Allen, H. F. Schaefer, R. A. King, E. F. Valeev, C. D. Sherrill,
    and T. D. Crawford, WIREs Comput. Mol. Sci. 2, 556-565 (2012)
    (doi: 10.1002/wcms.93)

                         Additional Contributions by
    A. E. DePrince, U. Bozkaya, A. Yu. Sokolov, D. G. A. Smith, R. Di Remigio,
    R. M. Richard, J. F. Gonthier, H. R. McAlexander, M. Saitow, and
    B. P. Pritchard
    -----------------------------------------------------------------------


    Psi4 started on: Mon Apr  4 10:21:01 2016

    Process ID:   4501
    PSI4DATADIR: /home/dsmith/Gits/dgas_psi/share
    Memory level set to 256.000 MB

  ==> Input File <==

--------------------------------------------------------------------------
#! RHF-CC2-LR/STO-3G optical rotation of (S)-methyloxirane.  gauge =
#! length, omega = (589 355 nm)

memory 250 mb

molecule smo {
  0 1
# structure from Pederson et al., CPL, submitted
  C  0.152133 -0.035800  0.485797
  C -1.039475  0.615938 -0.061249
  C  1.507144  0.097806 -0.148460
  O -0.828215 -0.788248 -0.239431
  H  0.153725 -0.249258  1.552136
  H -1.863178  0.881921  0.593333
  H -0.949807  1.214210 -0.962771
  H  2.076806 -0.826189 -0.036671
  H  2.074465  0.901788  0.325106
  H  1.414895  0.315852 -1.212218
}

set {
  basis "STO-3G"
  freeze_core true
  gauge length
  omega [589, 355, nm]
}

property('cc2',properties=['rotation'])
--------------------------------------------------------------------------

  Memory set to 250.000 MiB by Python script.

*** tstart() called on ds1.sherrill.chemistry.gatech.edu
*** at Mon Apr  4 10:21:01 2016


         ---------------------------------------------------------
                                   SCF
            by Justin Turney, Rob Parrish, and Andy Simmonett
                              RHF Reference
                        1 Threads,    250 MiB Core
         ---------------------------------------------------------

  ==> Geometry <==

    Molecular point group: c1
    Full point group: C1

    Geometry (in Angstrom), charge = 0, multiplicity = 1:

       Center              X                  Y                   Z               Mass       
    ------------   -----------------  -----------------  -----------------  -----------------
           C          0.201751522566     0.002392992405     0.490202120079    12.000000000000
           C         -0.989856477434     0.654130992405    -0.056843879921    12.000000000000
           C          1.556762522566     0.135998992405    -0.144054879921    12.000000000000
           O         -0.778596477434    -0.750055007595    -0.235025879921    15.994914619560
           H          0.203343522566    -0.211065007595     1.556541120079     1.007825032070
           H         -1.813559477434     0.920113992405     0.597738120079     1.007825032070
           H         -0.900188477434     1.252402992405    -0.958365879921     1.007825032070
           H          2.126424522566    -0.787996007595    -0.032265879921     1.007825032070
           H          2.124083522566     0.939980992405     0.329511120079     1.007825032070
           H          1.464513522566     0.354044992405    -1.207812879921     1.007825032070

  Running in c1 symmetry.

  Rotational constants: A =      0.60799  B =      0.22239  C =      0.19815 [cm^-1]
  Rotational constants: A =  18226.99774  B =   6666.95622  C =   5940.33276 [MHz]
  Nuclear repulsion =  124.788534121264831

  Charge       = 0
  Multiplicity = 1
  Electrons    = 32
  Nalpha       = 16
  Nbeta        = 16

  ==> Algorithm <==

  SCF Algorithm Type is PK.
  DIIS enabled.
  MOM disabled.
  Fractional occupation disabled.
  Guess Type is CORE.
  Energy threshold   = 1.00e-10
  Density threshold  = 1.00e-10
  Integral threshold = 0.00e+00

  ==> Primary Basis <==

  Basis Set: STO-3G
    Number of shells: 18
    Number of basis function: 26
    Number of Cartesian functions: 26
    Spherical Harmonics?: true
    Max angular momentum: 1

  ==> Pre-Iterations <==

   -------------------------------------------------------
    Irrep   Nso     Nmo     Nalpha   Nbeta   Ndocc  Nsocc
   -------------------------------------------------------
     A         26      26       0       0       0       0
   -------------------------------------------------------
    Total      26      26      16      16      16       0
   -------------------------------------------------------

  ==> Integral Setup <==

	Batch   1 pq = [       0,     351] index = [             0,61776]
  ==> DiskJK: Disk-Based J/K Matrices <==

    J tasked:                  Yes
    K tasked:                  Yes
    wK tasked:                  No
    Memory (MB):               178
    Schwarz Cutoff:          1E-12

  Minimum eigenvalue in the overlap matrix is 2.0902507179E-01.
  Using Symmetric Orthogonalization.
  SCF Guess: Core (One-Electron) Hamiltonian.

  ==> Iterations <==

                        Total Energy        Delta E     RMS |[F,P]|

   @RHF iter   1:  -171.29770901863395   -1.71298e+02   6.32725e-02 
   @RHF iter   2:  -167.97481929054214    3.32289e+00   9.58114e-02 DIIS
   @RHF iter   3:  -188.49224725660753   -2.05174e+01   4.46300e-02 DIIS
   @RHF iter   4:  -189.07347626315749   -5.81229e-01   2.80159e-02 DIIS
   @RHF iter   5:  -189.19622702011344   -1.22751e-01   2.42087e-02 DIIS
   @RHF iter   6:  -189.40514050692838   -2.08913e-01   1.39423e-02 DIIS
   @RHF iter   7:  -189.49760626594718   -9.24658e-02   5.17037e-03 DIIS
   @RHF iter   8:  -189.51238733186455   -1.47811e-02   1.32565e-03 DIIS
   @RHF iter   9:  -189.51340789361109   -1.02056e-03   1.05318e-04 DIIS
   @RHF iter  10:  -189.51341601946518   -8.12585e-06   4.18274e-05 DIIS
   @RHF iter  11:  -189.51341715793728   -1.13847e-06   8.41805e-06 DIIS
   @RHF iter  12:  -189.51341723308775   -7.51505e-08   1.92723e-06 DIIS
   @RHF iter  13:  -189.51341723746026   -4.37251e-09   3.25700e-07 DIIS
   @RHF iter  14:  -189.51341723757696   -1.16700e-10   5.85036e-08 DIIS
   @RHF iter  15:  -189.51341723758043   -3.46745e-12   1.21699e-08 DIIS
   @RHF iter  16:  -189.51341723758077   -3.41061e-13   2.83491e-09 DIIS
   @RHF iter  17:  -189.51341723758065    1.13687e-13   6.25979e-10 DIIS
   @RHF iter  18:  -189.51341723758060    5.68434e-14   1.78565e-10 DIIS
   @RHF iter  19:  -189.51341723758088   -2.84217e-13   4.00179e-11 DIIS

  ==> Post-Iterations <==

    Orbital Energies (a.u.)
    -----------------------

    Doubly Occupied:                                                      

       1A    -20.280858     2A    -11.097188     3A    -11.087381  
       4A    -11.052915     5A     -1.350987     6A     -0.970429  
       7A     -0.859865     8A     -0.772265     9A     -0.652106  
      10A     -0.586045    11A     -0.550913    12A     -0.519890  
      13A     -0.483933    14A     -0.444905    15A     -0.370357  
      16A     -0.356780  

    Virtual:                                                              

      17A      0.452981    18A      0.575949    19A      0.620340  
      20A      0.661293    21A      0.688922    22A      0.701322  
      23A      0.731008    24A      0.743161    25A      0.833770  
      26A      0.855193  

    Final Occupation by Irrep:
              A 
    DOCC [    16 ]

  Energy converged.

  @RHF Final Energy:  -189.51341723758088

   => Energetics <=

    Nuclear Repulsion Energy =            124.7885341212648314
    One-Electron Energy =                -505.7302694796535434
    Two-Electron Energy =                 191.4283181208078872
    DFT Exchange-Correlation Energy =       0.0000000000000000
    Empirical Dispersion Energy =           0.0000000000000000
    PCM Polarization Energy =               0.0000000000000000
    EFP Energy =                            0.0000000000000000
    Total Energy =                       -189.5134172375808248

    Alert: EFP and PCM quantities not currently incorporated into SCF psivars.

Properties will be evaluated at   0.000000,   0.000000,   0.000000 Bohr
  ==> Properties <==


Properties computed using the SCF density matrix

  Nuclear Dipole Moment: (a.u.)
     X:     3.0005      Y:     2.3096      Z:     0.2664

  Electronic Dipole Moment: (a.u.)
     X:    -2.7337      Y:    -1.8166      Z:    -0.0674

  Dipole Moment: (a.u.)
     X:     0.2668      Y:     0.4930      Z:     0.1990     Total:     0.5948

  Dipole Moment: (Debye)
     X:     0.6781      Y:     1.2530      Z:     0.5057     Total:     1.5118


  Saving occupied orbitals to File 180.

*** tstop() called on ds1.sherrill.chemistry.gatech.edu at Mon Apr  4 10:21:02 2016
Module time:
	user time   =       0.10 seconds =       0.00 minutes
	system time =       0.01 seconds =       0.00 minutes
	total time  =          1 seconds =       0.02 minutes
Total time:
	user time   =       0.10 seconds =       0.00 minutes
	system time =       0.01 seconds =       0.00 minutes
	total time  =          1 seconds =       0.02 minutes

*** tstart() called on ds1.sherrill.chemistry.gatech.edu
*** at Mon Apr  4 10:21:02 2016


	Wfn Parameters:
	--------------------
	Wavefunction         = CC2
	Number of irreps     = 1
	Number of MOs        = 26
	Number of active MOs = 22
	AO-Basis             = NONE
	Semicanonical        = false
	Reference            = RHF
	Print Level          = 1

	IRREP	# MOs	# FZDC	# DOCC	# SOCC	# VIRT	# FZVR
	-----	-----	------	------	------	------	------
	 A	   26	    4	    12	    0	    10	    0
	Transforming integrals...
	IWL integrals will be deleted.
	(OO|OO)...
	Presorting SO-basis two-electron integrals.
	Sorting File: SO Ints (nn|nn) nbuckets = 1
	Transforming the one-electron integrals and constructing Fock matrices
	Starting first half-transformation.
	Sorting half-transformed integrals.
	First half integral transformation complete.
	Starting second half-transformation.
	Two-electron integral transformation complete.
	(OO|OV)...
	Starting second half-transformation.
	Two-electron integral transformation complete.
	(OO|VV)...
	Starting second half-transformation.
	Two-electron integral transformation complete.
	(OV|OO)...
	Starting first half-transformation.
	Sorting half-transformed integrals.
	First half integral transformation complete.
	Starting second half-transformation.
	Two-electron integral transformation complete.
	(OV|OV)...
	Starting second half-transformation.
	Two-electron integral transformation complete.
	(OV|VV)...
	Starting second half-transformation.
	Two-electron integral transformation complete.
	(VV|OO)...
	Starting first half-transformation.
	Sorting half-transformed integrals.
	First half integral transformation complete.
	Starting second half-transformation.
	Two-electron integral transformation complete.
	(VV|OV)...
	Starting second half-transformation.
	Two-electron integral transformation complete.
	(VV|VV)...
	Starting second half-transformation.
	Two-electron integral transformation complete.
	Frozen core energy     =   -209.07983613514480

	Size of irrep 0 of <ab|cd> integrals:      0.010 (MW) /      0.080 (MB)
	Total:                                     0.010 (MW) /      0.080 (MB)

	Size of irrep 0 of <ia|bc> integrals:      0.012 (MW) /      0.096 (MB)
	Total:                                     0.012 (MW) /      0.096 (MB)

	Size of irrep 0 of tijab amplitudes:       0.014 (MW) /      0.115 (MB)
	Total:                                     0.014 (MW) /      0.115 (MB)

	Nuclear Rep. energy          =    124.78853412126483
	SCF energy                   =   -189.51341723758088
	One-electron energy          =   -194.60728307293769
	Two-electron energy          =     89.38516784923729
	Reference energy             =   -189.51341723758037

*** tstop() called on ds1.sherrill.chemistry.gatech.edu at Mon Apr  4 10:21:02 2016
Module time:
	user time   =       0.03 seconds =       0.00 minutes
	system time =       0.02 seconds =       0.00 minutes
	total time  =          0 seconds =       0.00 minutes
Total time:
	user time   =       0.13 seconds =       0.00 minutes
	system time =       0.03 seconds =       0.00 minutes
	total time  =          1 seconds =       0.02 minutes

*** tstart() called on ds1.sherrill.chemistry.gatech.edu
*** at Mon Apr  4 10:21:02 2016

            **************************
            *                        *
            *        CCENERGY        *
            *                        *
            **************************

    Nuclear Rep. energy (wfn)     =  124.788534121264831
    SCF energy          (wfn)     = -189.513417237580882
    Reference energy    (file100) = -189.513417237580370

    Input parameters:
    -----------------
    Wave function   =      CC2
    Reference wfn   =     RHF
    Brueckner       =     No
    Memory (Mbytes) =     250.0
    Maxiter         =     50
    R_Convergence   =     1.0e-07
    E_Convergence   =     1.0e-08
    Restart         =     Yes
    DIIS            =     Yes
    AO Basis        =     NONE
    ABCD            =     NEW
    Cache Level     =     2
    Cache Type      =     LOW
    Print Level     =     1
    Num. of threads =     1
    # Amps to Print =     10
    Print MP2 Amps? =     No
    Analyze T2 Amps =     No
    Print Pair Ener =     No
    Local CC        =     No
    SCS-MP2         =     False
    SCSN-MP2        =     False
    SCS-CCSD        =     False

MP2 correlation energy -0.1984983538005303
                Solving CC Amplitude Equations
                ------------------------------
  Iter             Energy              RMS        T1Diag      D1Diag    New D1Diag    D2Diag
  ----     ---------------------    ---------   ----------  ----------  ----------   --------
     0        -0.198498353800530    0.000e+00    0.000000    0.000000    0.000000    0.124632
     1        -0.198386689289259    2.456e-02    0.005013    0.019208    0.019208    0.124632
     2        -0.199744020148369    7.393e-03    0.005756    0.022873    0.022873    0.125832
     3        -0.200084920607336    3.729e-03    0.006768    0.027963    0.027963    0.126111
     4        -0.200115319663798    6.852e-04    0.006878    0.028762    0.028762    0.126089
     5        -0.200118669289223    1.694e-04    0.006896    0.028947    0.028947    0.126086
     6        -0.200118439790334    3.259e-05    0.006898    0.028967    0.028967    0.126084
     7        -0.200118408175539    1.039e-05    0.006898    0.028968    0.028968    0.126083
     8        -0.200118429852776    3.934e-06    0.006898    0.028968    0.028968    0.126083
     9        -0.200118429191795    1.144e-06    0.006898    0.028968    0.028968    0.126083
    10        -0.200118431532944    4.391e-07    0.006898    0.028968    0.028968    0.126083
    11        -0.200118431223285    9.823e-08    0.006898    0.028968    0.028968    0.126083

    Iterations converged.


    Largest TIA Amplitudes:
             11   2         0.0197255946
             11   3        -0.0114902911
             11   5         0.0092063276
             11   1        -0.0075665075
              9   0         0.0074808411
              4   2        -0.0071415173
              2   1         0.0060498065
             10   2        -0.0059927840
             10   1        -0.0055990858
             11   4        -0.0047844227

    Largest TIjAb Amplitudes:
     10  10   0   0        -0.0499696177
      9   9   0   0        -0.0472348457
      6   6   6   6        -0.0323415531
      9  10   0   1         0.0282266083
     10   9   1   0         0.0282266083
     10  10   1   1        -0.0276616351
      0   0   1   1        -0.0190922678
      9  10   1   0         0.0182861875
     10   9   0   1         0.0182861875
      8   8   8   8        -0.0174521682

    SCF energy       (wfn)                    = -189.513417237580882
    Reference energy (file100)                = -189.513417237580370

    Opposite-spin MP2 correlation energy      =   -0.172369086874173
    Same-spin MP2 correlation energy          =   -0.026129266926357
    MP2 correlation energy                    =   -0.198498353800530
      * MP2 total energy                      = -189.711915591380887
    CC2 correlation energy                    =   -0.200118431223285
      * CC2 total energy                      = -189.713535668803644


*** tstop() called on ds1.sherrill.chemistry.gatech.edu at Mon Apr  4 10:21:02 2016
Module time:
	user time   =       0.07 seconds =       0.00 minutes
	system time =       0.14 seconds =       0.00 minutes
	total time  =          0 seconds =       0.00 minutes
Total time:
	user time   =       0.20 seconds =       0.00 minutes
	system time =       0.17 seconds =       0.00 minutes
	total time  =          1 seconds =       0.02 minutes

*** tstart() called on ds1.sherrill.chemistry.gatech.edu
*** at Mon Apr  4 10:21:02 2016


			**************************
			*                        *
			*         CCHBAR         *
			*                        *
			**************************


*** tstop() called on ds1.sherrill.chemistry.gatech.edu at Mon Apr  4 10:21:02 2016
Module time:
	user time   =      -0.00 seconds =      -0.00 minutes
	system time =       0.01 seconds =       0.00 minutes
	total time  =          0 seconds =       0.00 minutes
Total time:
	user time   =       0.20 seconds =       0.00 minutes
	system time =       0.18 seconds =       0.00 minutes
	total time  =          1 seconds =       0.02 minutes

*** tstart() called on ds1.sherrill.chemistry.gatech.edu
*** at Mon Apr  4 10:21:02 2016


			**************************
			*        CCLAMBDA        *
			**************************


	Nuclear Rep. energy (wfn)     =  124.788534121264831
	Reference           (wfn)     =                    0
	SCF energy          (wfn)     = -189.513417237580882
	Reference energy    (CC_INFO) = -189.513417237580370
	CC2 energy          (CC_INFO) =   -0.200118431223285
	Total CC2 energy    (CC_INFO) = -189.713535668803644

	Input parameters:
	-----------------
	Maxiter           =     50
	Convergence       = 1.0e-07
	Restart           =     No
	Cache Level       =     2
	Model III         =     No
	DIIS              =     Yes
	AO Basis          =     No
	ABCD              =     NEW
	Local CC          =     No
	Paramaters for left-handed eigenvectors:
	    Irr   Root  Ground-State?    EOM energy        R0
	  1   0     0        Yes       0.0000000000   1.0000000000
	Labels for eigenvector 1:
	LIA 0 -1, Lia 0 -1, LIJAB 0 -1, Lijab 0 -1, LIjAb 0 -1, 2LIjAb - LIjbA 0 -1
	Deleting old CC_LAMBDA data.
	Symmetry of left-hand state: A
	Symmetry of left-hand eigenvector: A

	          Solving Lambda Equations
	          ------------------------
	Iter     PseudoEnergy or Norm         RMS  
	----     ---------------------     --------
	   0        -0.200255252083638    0.000e+00
	   1        -0.200237820752438    1.045e-02
	   2        -0.199973107538869    1.485e-03
	   3        -0.199954623621169    4.864e-04
	   4        -0.199946897280988    1.053e-04
	   5        -0.199946308525468    2.929e-05
	   6        -0.199946157924280    6.703e-06
	   7        -0.199946138572474    1.596e-06
	   8        -0.199946137018384    5.076e-07
	   9        -0.199946135237150    1.768e-07
	  10        -0.199946134652173    6.638e-08

	Largest LIA Amplitudes:
	         11   2         0.0187278538
	         11   3        -0.0108160629
	         11   5         0.0086709060
	          4   2        -0.0067631543
	         11   1        -0.0064539496
	          2   1         0.0057797145
	         10   2        -0.0046309835
	         11   4        -0.0044345897
	          1   1         0.0039297406
	          0   1        -0.0038896347

	Largest LIjAb Amplitudes:
	 10  10   0   0        -0.0498652176
	  9   9   0   0        -0.0470033202
	  6   6   6   6        -0.0323371349
	  9  10   0   1         0.0281551854
	 10   9   1   0         0.0281551854
	 10  10   1   1        -0.0276581000
	  0   0   1   1        -0.0190238470
	  9  10   1   0         0.0181945355
	 10   9   0   1         0.0181945355
	  8   8   8   8        -0.0174424905

	Iterations converged.

	Overlap <L|e^T> =        0.91534388509

*** tstop() called on ds1.sherrill.chemistry.gatech.edu at Mon Apr  4 10:21:02 2016
Module time:
	user time   =       0.02 seconds =       0.00 minutes
	system time =       0.02 seconds =       0.00 minutes
	total time  =          0 seconds =       0.00 minutes
Total time:
	user time   =       0.23 seconds =       0.00 minutes
	system time =       0.20 seconds =       0.00 minutes
	total time  =          1 seconds =       0.02 minutes

*** tstart() called on ds1.sherrill.chemistry.gatech.edu
*** at Mon Apr  4 10:21:02 2016

			**************************
			*                        *
			*       ccresponse       *
			*                        *
			**************************

	Input parameters:
	-----------------
	Property         =    ROTATION
	Reference wfn    =      RHF
	Memory (Mbytes)  =  250.0
	Cache Level      =    0
	Print Level      =    1
	Maxiter          =     50
	Convergence      = 1.0e-07
	Restart          =     Allowed
	DIIS             =     Yes
	Model III        =     No
	Linear Model     =     No
	ABCD             =     NEW
	Irrep X          =      A
	Irrep Y          =      A
	Irrep Z          =      A
	Irrep RX         =      A
	Irrep RY         =      A
	Irrep RZ         =      A
	Gauge            =    LENGTH
	Applied field  0 =    0.077 E_h (589.00 nm, 2.105 eV, 16977.93 cm-1)
	Applied field  1 =    0.128 E_h (355.00 nm, 3.493 eV, 28169.01 cm-1)
	Analyze X2 Amps  =    No
	Local CC         =    No


	DPD File2: Mu_X_IA
	DPD Parameters:
	------------------
	pnum = 0   qnum = 1   irrep = 0 
	Irreps = 1

	   Row and column dimensions for DPD Block:
	   ----------------------------------------
	   Irrep: 0 row =    12	col =    10

	File 101 DPD File2: Mu_X_IA
	Matrix for Irrep 0
	----------------------------------------

                         0                  1                  2                  3                  4                  5                  6                  7                  8     
                      (  0)              (  1)              (  2)              (  3)              (  4)              (  5)              (  6)              (  7)              (  8)    

    0  (  0) -0.008614928030840 -0.046442352180169  0.027924113607402 -0.003342105529333 -0.019198187321040 -0.043605992991573  0.000124507814704 -0.017903232807276 -0.064037761732171
    1  (  1) -0.004023859816536  0.002812567145705 -0.015355365280172  0.063211982262557  0.033868800105512 -0.011581015806030 -0.004465574023749 -0.047030919183978 -0.048793907790167
    2  (  2)  0.028525640829052  0.068120189793755 -0.016739332619916 -0.005073217062571  0.071940863862086 -0.066733647201246 -0.019605473294411 -0.001610556197395  0.004701377924241
    3  (  3) -0.054155290451444 -0.054244335283920 -0.021962627752722 -0.018282485253591 -0.037028274403918  0.016786978317188  0.022024618519435  0.004302299287571 -0.167953274165254
    4  (  4) -0.063182596674560 -0.128748808441603  0.121465114258455  0.160938411878746 -0.233917278183727  0.054052148209971  0.025334189883345  0.127021104755700 -0.261448831193402
    5  (  5)  0.148864678439623  0.254187426286263 -0.169654895032318  0.284620622565278  0.104152412545794  0.359543809664356  0.133744008800219  0.041861549636784  0.169452799698737
    6  (  6) -0.084956715974477  0.126613830549778 -0.017431390156475 -0.048281125825391  0.083267553675805 -0.206713853572910  0.428812335487451  0.005011019261590  0.061186511530853
    7  (  7)  0.173630436017785  0.181276579618511 -0.440332497631467 -0.059456066514339  0.303618966981474  0.080016791274931 -0.104444652942420  0.251866044145384  0.089940979411620
    8  (  8)  0.057697740125170  0.070180597027535 -0.383387446580433  0.514874722700996  0.465292274956758 -0.060917787629258  0.016262525048682  0.068972295866468 -0.265391565724923
    9  (  9) -0.279247634488546  0.560707539865180  0.044547353547754  0.161505455051061 -0.002588376843198  0.219223273385377  0.096307931523247  0.176467159119564 -0.104344970641552
   10  ( 10) -0.977075549178754  0.176418272984965  0.228294318379152 -0.099370609263157  0.027777958784805 -0.149348953927471  0.027413414445363 -0.102632226696295  0.005531528669958
   11  ( 11) -0.211429009712833  0.082644796366024 -0.055680051989607  0.289018099722790 -0.067789577732066  0.064107786662722  0.141855083039993  0.071186757033967 -0.332576681653078

                         9     
                      (  9)    

    0  (  0) -0.071990946265904
    1  (  1)  0.010142476690945
    2  (  2) -0.112423878639920
    3  (  3) -0.059253840949344
    4  (  4) -0.014639189200116
    5  (  5)  0.248038168142076
    6  (  6) -0.055159646753098
    7  (  7)  0.115432903210104
    8  (  8) -0.135363224402184
    9  (  9)  0.174678345393028
   10  ( 10) -0.086140985937489
   11  ( 11)  0.161723358072288

	DPD File2: Mu_XBAR_MI
	DPD Parameters:
	------------------
	pnum = 0   qnum = 0   irrep = 0 
	Irreps = 1

	   Row and column dimensions for DPD Block:
	   ----------------------------------------
	   Irrep: 0 row =    12	col =    12

	File 101 DPD File2: Mu_XBAR_MI
	Matrix for Irrep 0
	----------------------------------------

                         0                  1                  2                  3                  4                  5                  6                  7                  8     
                      (  0)              (  1)              (  2)              (  3)              (  4)              (  5)              (  6)              (  7)              (  8)    

    0  (  0)  1.197572413457416 -0.541318632458819  0.139927416074434 -0.359578444144728 -0.398937843974143 -0.026586872199631 -0.139627977614034 -0.005896246811908 -0.003746644253474
    1  (  1) -0.541058731557733 -2.034801241006124  0.920540459333957  1.016218584565976  0.729164689551095  0.054412526337289  0.235971924812287  0.315223615873653  0.096208087332503
    2  (  2)  0.139828960783133  0.920734026466353  1.243601677104947 -0.974300649632960 -0.758553357895653  0.024609548385058  0.513266755102078 -0.116926331308165  0.094501440589660
    3  (  3) -0.358970389618762  1.015833032381682 -0.974440230104690 -0.266348919387279 -0.133799225208449 -1.276907891838692  0.042984363399250 -0.410608971359459 -0.602345207215224
    4  (  4) -0.398323035370672  0.727797072247533 -0.759857932130997 -0.133858879134538  0.575448487083967  0.056475665179630 -0.484493838926624 -1.583666058372555 -0.976878961323264
    5  (  5) -0.027166282561241  0.055084907457016  0.024891153917378 -1.275543890485871  0.058746220450056  0.155399299181078 -0.236023458215734  0.812878944680584 -1.048535633321107
    6  (  6) -0.139452284876946  0.236223353395710  0.513262677239790  0.042879630253030 -0.482819584548875 -0.235933151975352 -2.554180020089730  0.492117810052432  0.545404390710543
    7  (  7) -0.005841417813581  0.316274368121595 -0.116163386689798 -0.410094171199330 -1.579571502751109  0.813774264517492  0.492423581054265 -1.700719635107089  0.685529425460131
    8  (  8) -0.003628131406122  0.096035529388521  0.094131958605517 -0.602680559029633 -0.970206233446821 -1.045482010968488  0.544249829219244  0.683514459946160 -0.254958894003746
    9  (  9)  0.326098977872352 -0.130935443514057 -0.379595165606947 -0.575990924443643 -0.393471966174349 -0.365686481480815 -1.227740651049925 -0.905826587705816  0.039987576568104
   10  ( 10)  0.008103556468023 -0.039575542858445 -0.358664811515568  0.339232505071102  0.207222392029181  0.025784784511048 -0.874465142008502  0.752110558109030  0.140644713119028
   11  ( 11)  0.161744201805621 -0.084371238465912 -0.371150002845590 -0.062082552881116 -0.264710243568820 -0.257261525129269 -0.444570831491995  0.002821916667240 -0.878431483672947

                         9                 10                 11     
                      (  9)              ( 10)              ( 11)    

    0  (  0)  0.327854256563053  0.009019713584176  0.162710661779996
    1  (  1) -0.133091859140094 -0.040697608714423 -0.085480013590579
    2  (  2) -0.381849466011717 -0.359835696943519 -0.372555504855503
    3  (  3) -0.579249329988603  0.337242931561156 -0.062083380033380
    4  (  4) -0.396591932534928  0.208613970222125 -0.263534160928372
    5  (  5) -0.365098796020694  0.027806205942528 -0.265146511627892
    6  (  6) -1.230804867714346 -0.879767259959551 -0.448789932265958
    7  (  7) -0.904635212890955  0.753869377146213 -0.007723757897278
    8  (  8)  0.040323955016828  0.145561467893410 -0.894627986462831
    9  (  9)  0.423095726110230 -0.296000597425199 -0.177730946270235
   10  ( 10) -0.299463151255561  0.634536264744397 -0.073348112181768
   11  ( 11) -0.175836974584033 -0.076105891408596  1.184769461505705

	DPD File2: Mu_XBAR_AE
	DPD Parameters:
	------------------
	pnum = 1   qnum = 1   irrep = 0 
	Irreps = 1

	   Row and column dimensions for DPD Block:
	   ----------------------------------------
	   Irrep: 0 row =    10	col =    10

	File 101 DPD File2: Mu_XBAR_AE
	Matrix for Irrep 0
	----------------------------------------

                         0                  1                  2                  3                  4                  5                  6                  7                  8     
                      (  0)              (  1)              (  2)              (  3)              (  4)              (  5)              (  6)              (  7)              (  8)    

    0  (  0)  0.567008919583769  0.722443194639076  0.422402076832526  0.057554368781692 -0.068012024916795 -0.451975146937444  0.709419418017258 -0.110422168164076  0.095704108699345
    1  (  1)  0.720885473799377  0.332527216342313  0.737390932577519  0.281750515533235  0.280761287650285 -0.598548868793251 -1.146750916540548 -0.177301134296404  0.234694925855947
    2  (  2)  0.422183101446157  0.736485273372613  0.007829107401233 -0.365399184777850 -0.965501991185851  1.065090226895019 -0.394390874357735  0.239359280932956 -1.218182429947708
    3  (  3)  0.059687201880792  0.280769829014015 -0.363255318828176 -0.833720441237644 -1.345952512182534 -0.189309820782043 -0.179890588667075  1.060334267570976  0.772514541992803
    4  (  4) -0.069257394766048  0.281296540959268 -0.966923508062440 -1.344162408323230  1.514830794165418  0.013670587075388  0.227285042702997 -0.333966362782148  0.386248728929513
    5  (  5) -0.449135841213124 -0.599397614111666  1.066820633702005 -0.189649108173073  0.013795393835391 -0.565008202301338  0.487292177018388  0.306200787566680  0.347063761175498
    6  (  6)  0.708465668411700 -1.146562416036536 -0.391890891969186 -0.180811612049978  0.226633708850888  0.487729595329860 -2.767088083291247 -0.044613760817778 -0.000972347391486
    7  (  7) -0.108981479051366 -0.177538421983047  0.240499333870847  1.059842334269286 -0.334391643370330  0.306249625060660 -0.044471110228526 -3.232660954124245  0.514839124213478
    8  (  8)  0.094277588392050  0.235043458221186 -1.221823740867610  0.774952679267246  0.386077819937850  0.344858044347409 -0.000341134617604  0.514916107959231  0.507086713812900
    9  (  9) -0.063381219924518  0.233965663170835 -0.093343358246394 -0.360354041717964 -1.006820145611429  1.344825107425890  0.268434802553152  0.315156353475774 -0.332938610835670

                         9     
                      (  9)    

    0  (  0) -0.063808920953233
    1  (  1)  0.235710819600575
    2  (  2) -0.096202914812750
    3  (  3) -0.360121797934629
    4  (  4) -1.006476096636878
    5  (  5)  1.343619009171637
    6  (  6)  0.268106088944511
    7  (  7)  0.315242334926624
    8  (  8) -0.332481313931255
    9  (  9) -0.175400026175703

	DPD File2: Mu_XBAR_IA
	DPD Parameters:
	------------------
	pnum = 0   qnum = 1   irrep = 0 
	Irreps = 1

	   Row and column dimensions for DPD Block:
	   ----------------------------------------
	   Irrep: 0 row =    12	col =    10

	File 101 DPD File2: Mu_XBAR_IA
	Matrix for Irrep 0
	----------------------------------------

                         0                  1                  2                  3                  4                  5                  6                  7                  8     
                      (  0)              (  1)              (  2)              (  3)              (  4)              (  5)              (  6)              (  7)              (  8)    

    0  (  0) -0.010284048743482 -0.022581970859439  0.025184528340299  0.002553505127965 -0.007866760176015 -0.035704112082049 -0.002766394562335 -0.015588851767905 -0.054894237811098
    1  (  1)  0.001129370385887 -0.004341567231247 -0.012471737758103  0.068518821412439  0.037428649742717 -0.002857553084525 -0.002731409538781 -0.051935588515967 -0.049204102128860
    2  (  2)  0.045340581665369  0.060774626479366 -0.014665202424539 -0.013163382650007  0.085552378574492 -0.055885373993397 -0.012884187887263 -0.000025912844279  0.007546289201104
    3  (  3) -0.053518723736605 -0.051858317489732 -0.015829576086698  0.002308038322374 -0.033376912576741  0.026566608571466  0.020736863296241  0.017163431891091 -0.156611857986917
    4  (  4) -0.057073647634730 -0.121620677523453  0.116559461691699  0.152459611946673 -0.224360677040743  0.063635488015272  0.025109630184432  0.123561544758110 -0.260705677247387
    5  (  5)  0.132736042968505  0.228873275385037 -0.157588807574081  0.278203524721354  0.112411250635845  0.339424026190686  0.132778586430512  0.041442080067056  0.144607855137629
    6  (  6) -0.099037108032686  0.133050970533401 -0.016390463801114 -0.047994853638439  0.082590754162974 -0.196599146668978  0.423704532382370  0.002588518244479  0.062442413145109
    7  (  7)  0.164573996156090  0.174187582593797 -0.442718231920782 -0.055107630970562  0.292277213212534  0.090352015151833 -0.100915507744855  0.242008734991193  0.079009239368232
    8  (  8)  0.059450407193371  0.065508844574663 -0.375580889735300  0.518979553821725  0.457917802589928 -0.070408637633858  0.013466768685783  0.072872586642079 -0.257559025594341
    9  (  9) -0.246894721458035  0.551859769946229  0.044670823275848  0.162240887924975 -0.012774136545306  0.203595880326158  0.102036778888604  0.168067563020806 -0.111682944391996
   10  ( 10) -0.913654454823393  0.155328532854986  0.215519674862427 -0.100970036582089  0.021969337297216 -0.148862370747064  0.046525143508019 -0.100083990784636  0.020780588682217
   11  ( 11) -0.198781024645211  0.090074443666824 -0.050453209121470  0.292395282113890 -0.068054938309237  0.077531779869079  0.149511823083207  0.072921095756992 -0.357789764945393

                         9     
                      (  9)    

    0  (  0) -0.062212803456643
    1  (  1)  0.008222801476273
    2  (  2) -0.107232253312323
    3  (  3) -0.058083892864911
    4  (  4) -0.001519088346013
    5  (  5)  0.232883930499022
    6  (  6) -0.056471183348608
    7  (  7)  0.097796104028532
    8  (  8) -0.126488666810631
    9  (  9)  0.156849504351465
   10  ( 10) -0.081446421443659
   11  ( 11)  0.176341902727086

	DPD File2: Mu_Y_IA
	DPD Parameters:
	------------------
	pnum = 0   qnum = 1   irrep = 0 
	Irreps = 1

	   Row and column dimensions for DPD Block:
	   ----------------------------------------
	   Irrep: 0 row =    12	col =    10

	File 101 DPD File2: Mu_Y_IA
	Matrix for Irrep 0
	----------------------------------------

                         0                  1                  2                  3                  4                  5                  6                  7                  8     
                      (  0)              (  1)              (  2)              (  3)              (  4)              (  5)              (  6)              (  7)              (  8)    

    0  (  0)  0.007749095928899 -0.085883220061897 -0.036741821453080 -0.003365465556640 -0.013826624379526  0.045778129917097  0.040669336928771  0.010509743009362  0.029540605005455
    1  (  1) -0.033323633407680  0.071013231331643  0.009381535510049  0.001865195841965 -0.004385218351099 -0.001145589443029 -0.107240463546083 -0.004928891895962 -0.020784313294431
    2  (  2)  0.052107391779678  0.092519548115667  0.009858355090806  0.037319719770882 -0.023857034427959 -0.010135083853020  0.037769988826785 -0.015917832199222  0.090581269072906
    3  (  3) -0.109820166534800  0.034268818635644  0.003318299103866 -0.047343590236080  0.049224764157865 -0.055554817495665  0.048303583561460 -0.021295778515858 -0.056731125347448
    4  (  4) -0.007052162438619 -0.070092516675886 -0.001616209454496  0.100452686664257 -0.017125496216269  0.011804649924719  0.317168773180746 -0.015679789701352  0.134810835277710
    5  (  5) -0.101789034249080  0.450242115208218  0.095257896487882  0.154575128663334 -0.107484330379138 -0.276349446911287 -0.224432437112312  0.138878618395823 -0.069374899750431
    6  (  6)  0.129481070816655  0.190214182630676 -0.111482363651535 -0.289845791513539 -0.214082604850691  0.130539668181057  0.176627871181659  0.507792819486108 -0.145016045609363
    7  (  7) -0.031015914210169  0.467808967099326  0.323231773595440  0.163051942640367 -0.027878151906641 -0.222130148917622  0.355582804811513 -0.345169178336756 -0.117503612685400
    8  (  8) -0.081114419328678 -0.129458136043364  0.321266022143751 -0.116738859933541  0.112997348490468  0.150149613956899  0.100022037717259 -0.009859219361018 -0.185497355793305
    9  (  9) -0.840897500088696 -0.103193956625564 -0.262141262895038 -0.179652800406346  0.091540284112173  0.263027817943460  0.232988426973600  0.132664590302921  0.080643129400683
   10  ( 10)  0.396138269722212  0.527358177131156  0.115585435914950 -0.350404489017791  0.098592337178609  0.056041757511118 -0.132708615178340  0.130232825670195  0.024142144569462
   11  ( 11)  0.048038051228142  0.184019170505420 -0.243899393098029  0.184449946093666  0.067903232077901 -0.173184975856005  0.074519873141838  0.122524073153855  0.175482839271302

                         9     
                      (  9)    

    0  (  0)  0.029757291764808
    1  (  1) -0.000721108447014
    2  (  2)  0.081115665664861
    3  (  3)  0.028764622432667
    4  (  4) -0.020368316536138
    5  (  5) -0.173632225016546
    6  (  6) -0.281328230368134
    7  (  7) -0.030401209001173
    8  (  8)  0.093738850433166
    9  (  9)  0.138017132290972
   10  ( 10)  0.057334976006061
   11  ( 11) -0.087072361241977

	DPD File2: Mu_YBAR_MI
	DPD Parameters:
	------------------
	pnum = 0   qnum = 0   irrep = 0 
	Irreps = 1

	   Row and column dimensions for DPD Block:
	   ----------------------------------------
	   Irrep: 0 row =    12	col =    12

	File 101 DPD File2: Mu_YBAR_MI
	Matrix for Irrep 0
	----------------------------------------

                         0                  1                  2                  3                  4                  5                  6                  7                  8     
                      (  0)              (  1)              (  2)              (  3)              (  4)              (  5)              (  6)              (  7)              (  8)    

    0  (  0)  0.718905283396366 -0.301300067078517 -0.767801784604927  0.078512808661437 -0.203134864219002  0.241932163394632  0.058076632132527  0.196398858160337 -0.039008858260235
    1  (  1) -0.301256490985418 -0.157440548170485 -0.036029556234477  0.243436824077948 -0.005929795366609  0.115486355570434  0.826228436604880 -0.465135370461094  0.058491264712319
    2  (  2) -0.767289827180427 -0.036275730400427 -0.756926663426856  0.450133498505047  0.207784604787554 -0.828712724726624 -0.324647418601895 -0.353270502595380  0.092835606205273
    3  (  3)  0.078579571270925  0.243310568263433  0.450095063208842 -0.208139431230210 -0.062202704566425  0.279001105517636 -0.076077557690188  0.262112029995803 -0.378810215636620
    4  (  4) -0.202510304146890 -0.006692039579746  0.206011713336244 -0.062773519641381 -0.370731419337250 -0.256994084383082 -0.019543706004640  0.220490721849311  0.607096866449029
    5  (  5)  0.239969372566770  0.117504634649697 -0.825053658169188  0.279484173800047 -0.255386254201480 -0.397595356388273 -0.135369611110909  0.236221247944806  0.269522214833962
    6  (  6)  0.058390572846995  0.825859124068496 -0.324193079615642 -0.076854689623655 -0.019228317561030 -0.137735601554569 -0.351485727528656 -0.487761379684059 -0.103056410141298
    7  (  7)  0.194458563270918 -0.463590718441466 -0.349817673350470  0.262678828096870  0.220495817389499  0.236701749786914 -0.486100376943708  0.043036204205598 -0.169360995720129
    8  (  8) -0.038844766766354  0.058006360985261  0.092452034752101 -0.377838465512557  0.603441383657979  0.267460191761716 -0.103192305987406 -0.168696834835998 -0.618488123975628
    9  (  9) -0.174642021266288  0.179686914368602  0.584519432451596 -0.531375856482353 -0.237827439552648  0.122408493179441 -0.350613085381758 -0.156778679768930 -0.027661505635356
   10  ( 10)  0.043298420178723 -0.218837510973761 -0.611680552277927 -0.687832529994762 -0.249683828221977  0.553064662939497 -0.144105807322037  0.115245273800375 -0.084193132350159
   11  ( 11)  0.061064658114535 -0.108300573335023 -0.188797315084064 -0.022208687769357 -0.827900624980148 -0.341922469544144  0.022718391285517  0.232401593218854  0.164619668223814

                         9                 10                 11     
                      (  9)              ( 10)              ( 11)    

    0  (  0) -0.175684511262191  0.045513515677226  0.061672515089855
    1  (  1)  0.179323084169819 -0.221567936729759 -0.109140578725267
    2  (  2)  0.587827396700567 -0.616289530235887 -0.190305867813712
    3  (  3) -0.534590178613768 -0.689583787791328 -0.022209038123698
    4  (  4) -0.239000891446347 -0.249187494230583 -0.832603925447214
    5  (  5)  0.122010791244987  0.553620903259190 -0.348332348336303
    6  (  6) -0.352732495908932 -0.145056644189921  0.023781600681781
    7  (  7) -0.157242166187061  0.112854517135836  0.232190590154653
    8  (  8) -0.027709906589588 -0.086030263749934  0.172274706638093
    9  (  9)  0.207109599493310  0.096837430893569 -0.023218950533429
   10  ( 10)  0.100164655296070  0.138181178811509 -0.148224450002320
   11  ( 11) -0.022320179711017 -0.148849264219794  0.901205760026841

	DPD File2: Mu_YBAR_AE
	DPD Parameters:
	------------------
	pnum = 1   qnum = 1   irrep = 0 
	Irreps = 1

	   Row and column dimensions for DPD Block:
	   ----------------------------------------
	   Irrep: 0 row =    10	col =    10

	File 101 DPD File2: Mu_YBAR_AE
	Matrix for Irrep 0
	----------------------------------------

                         0                  1                  2                  3                  4                  5                  6                  7                  8     
                      (  0)              (  1)              (  2)              (  3)              (  4)              (  5)              (  6)              (  7)              (  8)    

    0  (  0) -0.179939827953317 -0.273263984324447 -0.077241938648379 -0.131310570853059 -0.452108956339476 -0.373710052815031  0.012756856874255  0.188686130773153 -0.281717657959540
    1  (  1) -0.271865637377904  0.080204206482188  0.237736667891457  0.053954037536247  0.088144372426034  0.094298665544003 -0.396703487919163 -0.164374392506363 -0.012743808371913
    2  (  2) -0.076549156244806  0.237611422627237 -0.235916886406175  0.330279805344938  0.156363656187289 -0.135525945760466  0.113532623081742 -0.192996543105711  0.505097349650427
    3  (  3) -0.133008480405250  0.051978471199975  0.330705317775790 -0.689079281162140  0.681025163889482  0.230126505667634  0.220012050749462 -0.221793013759250 -0.415574431923512
    4  (  4) -0.450299146321202  0.087908601589004  0.156309970031027  0.681002123962077 -1.360248248931060  0.202273754976032 -0.167570810000888  0.246051223367679  0.206738411204634
    5  (  5) -0.373567192839267  0.094555330013585 -0.136731584871437  0.229377892273731  0.202581601720393 -0.322498155825469 -0.226671631685646  0.408374953433191  0.307423751173441
    6  (  6)  0.013230492589695 -0.395220302521252  0.113830042594234  0.218897297693098 -0.167381205557351 -0.226319762164270 -0.422981170847597 -0.882122931852690  0.208582937086568
    7  (  7)  0.187587553472999 -0.164973339166572 -0.192266028961538 -0.222193739996071  0.245811643336170  0.408813622942205 -0.882511768801173 -0.161881532695410 -0.197931622170274
    8  (  8) -0.280045996279642 -0.013187884866327  0.507423753455579 -0.417462155213181  0.206022605812476  0.308302992905362  0.207495521385094 -0.198012373813095 -0.598880759120415
    9  (  9) -0.299128215927212  0.222289305170394 -0.374826665416023 -0.022250762144823  0.198104511879858 -0.291885256187982  0.011569750091254 -0.150670270018148  0.186378705898132

                         9     
                      (  9)    

    0  (  0) -0.301492090704920
    1  (  1)  0.222023460829415
    2  (  2) -0.373275862630705
    3  (  3) -0.022769732324782
    4  (  4)  0.197531017811672
    5  (  5) -0.291038389218137
    6  (  6)  0.011766678364091
    7  (  7) -0.150956367343580
    8  (  8)  0.186282415225255
    9  (  9) -0.408641390929692

	DPD File2: Mu_YBAR_IA
	DPD Parameters:
	------------------
	pnum = 0   qnum = 1   irrep = 0 
	Irreps = 1

	   Row and column dimensions for DPD Block:
	   ----------------------------------------
	   Irrep: 0 row =    12	col =    10

	File 101 DPD File2: Mu_YBAR_IA
	Matrix for Irrep 0
	----------------------------------------

                         0                  1                  2                  3                  4                  5                  6                  7                  8     
                      (  0)              (  1)              (  2)              (  3)              (  4)              (  5)              (  6)              (  7)              (  8)    

    0  (  0)  0.006541040071374 -0.029135588545980 -0.017330822636196  0.002628911655856 -0.012344009072778  0.034496132723858  0.021629830261036  0.010441885443656  0.025478364830409
    1  (  1) -0.038275138282097  0.054424567131700  0.005683589037229  0.001642391333768 -0.005493648724933  0.001124544083160 -0.102028934362175 -0.004961744511026 -0.019198498319323
    2  (  2)  0.053024457143432  0.083754722596792  0.014366998897088  0.045684709347477 -0.045425854240686 -0.015659092712722  0.035306515871315 -0.013688960111619  0.082596341793894
    3  (  3) -0.125696090398208  0.031717757241630 -0.000802365016638 -0.050871771389850  0.061705711105305 -0.045742890546797  0.045450419639905 -0.021064845008813 -0.054716959900596
    4  (  4) -0.016613018484378 -0.059371668704072 -0.003754167321883  0.095982620936477 -0.007240466172935  0.008043456713310  0.296808016655974 -0.015369393876773  0.136610478814996
    5  (  5) -0.093091488713912  0.398657589783769  0.074430181919244  0.149030212247546 -0.108745535507975 -0.256250392516135 -0.205814736824676  0.134201000100278 -0.055103513200147
    6  (  6)  0.103501698206343  0.185147067787201 -0.104829304423867 -0.273669392935058 -0.199802423605250  0.136710211662245  0.166053638967329  0.483268157817023 -0.135434528029037
    7  (  7) -0.041456688282437  0.416662529939272  0.296499442852378  0.151835770435666 -0.027648960906360 -0.196853254084763  0.346148932618657 -0.324194030535013 -0.108656389528581
    8  (  8) -0.069099920765400 -0.122455302999323  0.312946042528054 -0.115185983812262  0.104240832372571  0.145175805842409  0.095088540144114 -0.010672631456654 -0.187147060816802
    9  (  9) -0.712671856286909 -0.096350152441887 -0.234711067415774 -0.171596024424251  0.065322769356820  0.213466873586983  0.226529390698481  0.118201066260468  0.055528794663381
   10  ( 10)  0.365512211872781  0.443597143604565  0.088760713771507 -0.336294491037704  0.089380998494186  0.050585936437927 -0.112358935310108  0.122526343955599  0.011836823214298
   11  ( 11)  0.046393847555394  0.165011630575806 -0.228781961491184  0.178941947405331  0.063752947558539 -0.164789870945105  0.073726137777035  0.117333812735176  0.181371275973491

                         9     
                      (  9)    

    0  (  0)  0.026880620988481
    1  (  1) -0.000642066602302
    2  (  2)  0.075046583146511
    3  (  3)  0.030887223204149
    4  (  4) -0.027083357227619
    5  (  5) -0.161323349638462
    6  (  6) -0.260652499318722
    7  (  7) -0.019658118364180
    8  (  8)  0.093794795177633
    9  (  9)  0.110456625490975
   10  ( 10)  0.048798146899382
   11  ( 11) -0.097571555960180

	DPD File2: Mu_Z_IA
	DPD Parameters:
	------------------
	pnum = 0   qnum = 1   irrep = 0 
	Irreps = 1

	   Row and column dimensions for DPD Block:
	   ----------------------------------------
	   Irrep: 0 row =    12	col =    10

	File 101 DPD File2: Mu_Z_IA
	Matrix for Irrep 0
	----------------------------------------

                         0                  1                  2                  3                  4                  5                  6                  7                  8     
                      (  0)              (  1)              (  2)              (  3)              (  4)              (  5)              (  6)              (  7)              (  8)    

    0  (  0) -0.001432746301241 -0.032810674158274 -0.033331937452190  0.023032547100449 -0.002808019338828 -0.039246266953284  0.018692018500357  0.008842597175209 -0.029091078576612
    1  (  1) -0.008821922353657 -0.001742271914305  0.082771016745166 -0.022297486233600  0.039163604146120 -0.010818853628454 -0.047294425300759  0.013135326018271  0.049034393799078
    2  (  2)  0.024274942979553  0.027096978854528  0.097516386729335 -0.041392368685233 -0.004119390691929  0.075691552206981 -0.023677742336887 -0.003953261626109 -0.122163189489771
    3  (  3) -0.047038460249327 -0.039422635997609  0.017791086041974  0.115660160233715 -0.067224158713133  0.095036576597129  0.032022129099848  0.022732157308155  0.120912741461305
    4  (  4) -0.041035802219314  0.001934741385072 -0.201409667589794 -0.406246991556111  0.228435904028298 -0.366034413922729  0.036563318611730 -0.036692328782928 -0.082010843383136
    5  (  5)  0.098338733504624  0.243746074186380  0.282884501172212 -0.425804208134162  0.108408993709478  0.505586602310018  0.102717652787798 -0.183779423385658  0.023433268040989
    6  (  6)  0.135336855172479 -0.062874421653863  0.076338309466968 -0.023002937168175 -0.130902824871969 -0.185164582723291  0.398907643196289  0.217551510702485 -0.032105677142657
    7  (  7) -0.035062191396593 -0.113858795835529  0.431604299748676 -0.029482804538795 -0.029652466788117 -0.242847719660297 -0.077765311726044  0.367073495891964  0.139022006583774
    8  (  8) -0.068272847596920  0.294672019740422 -0.568959581609815 -0.125921030593041 -0.707592811009318  0.017806583997194 -0.015845746434151 -0.212947645586985  0.125196335552965
    9  (  9) -0.288858276367140  0.093713692896803  0.209035013245645  0.075382622640114  0.083405489392761  0.016184964994186  0.000548295825658  0.266294089066097  0.380874642471947
   10  ( 10) -0.378738518070594  0.204837314972663 -0.069415359906425  0.062065165022761  0.029622875393917 -0.058750752119131 -0.120574645074376  0.008130898108626  0.009265966614478
   11  ( 11) -0.080018522496624  0.225808317514762 -0.312311377419040 -0.316597637735272  0.125757542025496 -0.146130016597999  0.016179297826968 -0.136308703849905 -0.120756903759521

                         9     
                      (  9)    

    0  (  0) -0.036093305540860
    1  (  1) -0.001707679222033
    2  (  2)  0.005295607541801
    3  (  3) -0.304573937395572
    4  (  4) -0.014287076929761
    5  (  5) -0.068885443251831
    6  (  6)  0.111979959141411
    7  (  7)  0.321243115083860
    8  (  8)  0.158205355383311
    9  (  9) -0.080091690584106
   10  ( 10) -0.065074316549847
   11  ( 11)  0.075517488740679

	DPD File2: Mu_ZBAR_MI
	DPD Parameters:
	------------------
	pnum = 0   qnum = 0   irrep = 0 
	Irreps = 1

	   Row and column dimensions for DPD Block:
	   ----------------------------------------
	   Irrep: 0 row =    12	col =    12

	File 101 DPD File2: Mu_ZBAR_MI
	Matrix for Irrep 0
	----------------------------------------

                         0                  1                  2                  3                  4                  5                  6                  7                  8     
                      (  0)              (  1)              (  2)              (  3)              (  4)              (  5)              (  6)              (  7)              (  8)    

    0  (  0)  0.151581396236314 -0.159877768590416 -0.191397517222217 -0.495232284784419  0.365561840603303  0.240680276878916 -0.079714342426981 -0.017889526692899  0.054577038509911
    1  (  1) -0.159795957300703 -0.047735218816607 -0.125025973381046 -0.592230248616217  0.329204795607780 -0.563899565241556  0.474518384773661  0.371816427225051 -0.204007450389934
    2  (  2) -0.191333337359899 -0.125299228035136  0.032743526377744 -0.248173195711929  0.424015573649386  0.373304794946261 -0.124367805011267 -0.383343231071520 -0.176623529047179
    3  (  3) -0.494849488270231 -0.592714843127231 -0.248959286830360 -0.423717062104334  0.236470791004191 -0.415768040434588 -0.007927078994065 -0.295339113265274  1.138817517114761
    4  (  4)  0.365842786495977  0.329912791120028  0.425309312432566  0.236284335155642 -0.297797608998871  0.287162197874150 -0.015195390523442  0.149575459832836 -0.352881081559957
    5  (  5)  0.239666720261223 -0.562521840945090  0.375748994405132 -0.414021321854488  0.283842863350989  0.299376586602614 -0.122721639661059 -0.329969307615273  0.156494792375540
    6  (  6) -0.079132044576918  0.473605179695053 -0.125255855561232 -0.008774504967796 -0.015965010327741 -0.123144104158722 -0.040262616235425  0.053291869319472 -0.230047243881088
    7  (  7) -0.018210362254778  0.371975596471355 -0.382949144915295 -0.295062545551474  0.147969605358519 -0.330844142904405  0.053247875385916  0.437054225506238 -0.295575334993300
    8  (  8)  0.054384973146642 -0.203042333950748 -0.176317356393722  1.137981679794048 -0.349930528024716  0.158219436009509 -0.229361079622861 -0.295174183319701 -0.201170964600267
    9  (  9)  0.162593186970100 -0.096068089953593 -0.131721885520875 -0.537260878125596  0.048165193599088 -0.386108654274960  0.083321052966267  0.067822247990424  0.259623842706096
   10  ( 10)  0.093086277766091 -0.110390628613242 -0.528311349519040  0.014888004236686 -0.100997053235309  0.192126957467604  0.038787614701918  0.063975054532929  0.077127490978365
   11  ( 11) -0.248608673506936  0.166558435519238  0.438779222588041  0.334557446090803 -0.324782624521866  0.179928480123366  0.012126762932614  0.006418605791098 -0.316369461907291

                         9                 10                 11     
                      (  9)              ( 10)              ( 11)    

    0  (  0)  0.163245257210255  0.094276718965358 -0.249582935851552
    1  (  1) -0.097089753598003 -0.112180529868729  0.167323529614997
    2  (  2) -0.131901378811736 -0.530116655167969  0.440616281332259
    3  (  3) -0.539218685084290  0.014310070921850  0.335266943058306
    4  (  4)  0.048635985450171 -0.103433322949682 -0.331331262489988
    5  (  5) -0.385516015028330  0.187104303675725  0.193398802414867
    6  (  6)  0.082991815307939  0.037352860556722  0.011014682985019
    7  (  7)  0.067841456452886  0.062642921873825  0.014204699173191
    8  (  8)  0.258473930351364  0.077886037732250 -0.325054438743839
    9  (  9)  0.001773141829882 -0.053105768233371  0.034600115232443
   10  ( 10) -0.053689547969565 -0.018246254031602 -0.196162568922766
   11  ( 11)  0.031756575544119 -0.193298511166013  0.164652234350364

	DPD File2: Mu_ZBAR_AE
	DPD Parameters:
	------------------
	pnum = 1   qnum = 1   irrep = 0 
	Irreps = 1

	   Row and column dimensions for DPD Block:
	   ----------------------------------------
	   Irrep: 0 row =    10	col =    10

	File 101 DPD File2: Mu_ZBAR_AE
	Matrix for Irrep 0
	----------------------------------------

                         0                  1                  2                  3                  4                  5                  6                  7                  8     
                      (  0)              (  1)              (  2)              (  3)              (  4)              (  5)              (  6)              (  7)              (  8)    

    0  (  0) -0.236069149963163  0.221583137564163  0.087467481305722 -0.023767224775686 -0.157884978160403 -0.128673956730928 -0.176595879718155  0.001131011971133 -0.181143452378279
    1  (  1)  0.220430431420781  0.112052435395411  0.015869246953004  0.264485428220229 -0.165982029017032  0.159260924511967 -0.018854654422979 -0.249502648911662  0.052130724940489
    2  (  2)  0.087694752689110  0.015013028809768 -0.683310721571496 -0.454889778316635  0.270539148745013 -0.876133156257366  0.064372104669297  0.069959768559253 -0.359585122000157
    3  (  3) -0.022349867441000  0.265917773554093 -0.459885377728241  0.156118352434199 -0.442698949767653 -0.633164352338199 -0.123599095575194 -0.000681275867653  0.329408686748195
    4  (  4) -0.157925484822212 -0.166044551668448  0.271218386301787 -0.443885849544169 -0.013362400288139 -0.176284166859716 -0.004716950363547  0.078109759051695 -0.609000288504036
    5  (  5) -0.127616279024465  0.158011847826777 -0.876037618336518 -0.629854882067231 -0.177186231691167  0.012211397911312  0.059425698638714 -0.774979266387503 -0.486618181940007
    6  (  6) -0.178241606005577 -0.017090192027304  0.064522374418612 -0.124240073785380 -0.004293285297111  0.059087683442403 -0.104000926946028 -0.330829052941218 -0.038045687430518
    7  (  7)  0.002208432662323 -0.248689839842792  0.068573897387488  0.000014323688305  0.078530113152698 -0.775881123200019 -0.330687300633250  0.375687385782734  0.140607455643693
    8  (  8) -0.178615853403889  0.052090468394537 -0.360562489252097  0.330978976164922 -0.607342070723727 -0.487347099957113 -0.037705398828688  0.140808054777891 -0.394251292558291
    9  (  9) -0.046812023282532 -0.356025364860408  0.690811815874832  0.312933605188107  0.666333151495599  0.222468929126821  0.069111321262510  0.559435147944676  0.132671563237724

                         9     
                      (  9)    

    0  (  0) -0.045842278201099
    1  (  1) -0.355929481322579
    2  (  2)  0.690401613790687
    3  (  3)  0.314450068352927
    4  (  4)  0.667992313297743
    5  (  5)  0.221641972075250
    6  (  6)  0.069286376678707
    7  (  7)  0.560338392357294
    8  (  8)  0.132249466475801
    9  (  9) -0.305201515298008

	DPD File2: Mu_ZBAR_IA
	DPD Parameters:
	------------------
	pnum = 0   qnum = 1   irrep = 0 
	Irreps = 1

	   Row and column dimensions for DPD Block:
	   ----------------------------------------
	   Irrep: 0 row =    12	col =    10

	File 101 DPD File2: Mu_ZBAR_IA
	Matrix for Irrep 0
	----------------------------------------

                         0                  1                  2                  3                  4                  5                  6                  7                  8     
                      (  0)              (  1)              (  2)              (  3)              (  4)              (  5)              (  6)              (  7)              (  8)    

    0  (  0) -0.003531322883882 -0.011853964072259 -0.013997173385150  0.018382792142272  0.000899996465316 -0.027829789270010  0.010946278616860  0.009416135583049 -0.023987807938377
    1  (  1) -0.006388621769676 -0.005171201059492  0.075116414608300 -0.012351518932572  0.041297277032330 -0.006441657804939 -0.042094675819374  0.014500044647057  0.045272474294833
    2  (  2)  0.036883171082941  0.025743377486266  0.085964964339501 -0.036572128410060  0.000741779208896  0.071901849127459 -0.017612259488053 -0.002857549860391 -0.114428225660871
    3  (  3) -0.050379148416710 -0.038280516808706  0.018275236893963  0.118578575347696 -0.057964689276298  0.100743381351488  0.031817975736653  0.026538904175684  0.119963525332985
    4  (  4) -0.040259568577825  0.011229704694951 -0.188809172172053 -0.380757486650798  0.215445878906303 -0.344569393133109  0.033187603402343 -0.033507608973028 -0.079582925358519
    5  (  5)  0.087141198504256  0.216785041857282  0.270610048704347 -0.398997177118922  0.102170025062685  0.478625848744224  0.098949414691562 -0.170373600624447  0.015652914988371
    6  (  6)  0.115394650953246 -0.055172374530852  0.068645251981460 -0.021005537419763 -0.120222938991285 -0.172201053972431  0.377862520906368  0.205771786639713 -0.028486300732427
    7  (  7) -0.040171141596921 -0.121048022721161  0.403132598219944 -0.027760473759695 -0.026374510959244 -0.228317794546793 -0.070878791028718  0.346601006636740  0.129893637668620
    8  (  8) -0.063034884850519  0.280866796922543 -0.540496031263420 -0.119391575767531 -0.673073389329145  0.010663809606319 -0.016147690744197 -0.200745867764999  0.117394936265689
    9  (  9) -0.239823863361350  0.087614347631018  0.205995257309951  0.074059709002735  0.068748575748322 -0.000454096533422  0.003028317606131  0.249475423067847  0.352711368867451
   10  ( 10) -0.336588165363819  0.173514330851934 -0.070029612982419  0.058791678217410  0.024501304111156 -0.052124335879725 -0.104213155412652  0.008639637505854  0.013496510390301
   11  ( 11) -0.070036517846615  0.195530601831737 -0.305644952406326 -0.322831866890619  0.121530761671811 -0.141977994529421  0.021998927919548 -0.134440837939489 -0.127122644302587

                         9     
                      (  9)    

    0  (  0) -0.030353030361521
    1  (  1) -0.003358262877040
    2  (  2)  0.006176160526822
    3  (  3) -0.295046081798141
    4  (  4) -0.003816440446022
    5  (  5) -0.074325961405816
    6  (  6)  0.109014637260268
    7  (  7)  0.303731536907582
    8  (  8)  0.152250258757063
    9  (  9) -0.089511140652939
   10  ( 10) -0.060789806024962
   11  ( 11)  0.082293618970240

	DPD File2: L_X_IA
	DPD Parameters:
	------------------
	pnum = 0   qnum = 1   irrep = 0 
	Irreps = 1

	   Row and column dimensions for DPD Block:
	   ----------------------------------------
	   Irrep: 0 row =    12	col =    10

	File 101 DPD File2: L_X_IA
	Matrix for Irrep 0
	----------------------------------------

                         0                  1                  2                  3                  4                  5                  6                  7                  8     
                      (  0)              (  1)              (  2)              (  3)              (  4)              (  5)              (  6)              (  7)              (  8)    

    0  (  0)  0.057770723549822  0.007686176240946 -0.037676874167356  0.021875314892099 -0.005506967460933 -0.033731453223748  0.019605916000428  0.000153810379380  0.020480209750075
    1  (  1) -0.007936092257979  0.008454757010642  0.010966637467694 -0.001712969996651 -0.003491085975391  0.000515536727381  0.020166951599436 -0.003537118903694 -0.007401819267263
    2  (  2) -0.004823273592599 -0.024918096969196 -0.013456316523011  0.018061040767999  0.007928867729036 -0.029348077292650 -0.008305651845057  0.003787093110599  0.048173394731475
    3  (  3) -0.011675774889719  0.107663431168119  0.048399527807156 -0.036525102357468  0.040730641316098 -0.022154401958332 -0.022459222119996 -0.014732815042844 -0.056193647097198
    4  (  4)  0.087218313195060 -0.162702625781047 -0.040016358682840  0.090893257910364 -0.161526550847483  0.070532962618851  0.041494660326989  0.036307465330637  0.053954994625500
    5  (  5) -0.299080380331620 -0.047071149137784 -0.050599107080133  0.086076035632021 -0.105747613120902  0.016291716947719  0.035370479803609  0.024570880220994  0.019740472018285
    6  (  6)  0.064660819861274  0.041897488322670 -0.115036198801302  0.009494466735301  0.021741244236804  0.082050622612890 -0.041036303996531 -0.093842813784976 -0.099009311413033
    7  (  7) -0.041406108782421 -0.013292095994501  0.015299070366570 -0.090658889692049  0.096664535404261  0.020138730509960 -0.181635797575966 -0.008096043875894 -0.043219320402717
    8  (  8)  0.213166983219953  0.019961961579106  0.071163032582985 -0.089566388467484  0.187567657149161 -0.059322694697381  0.181371262415412 -0.031805535593670 -0.037438192634413
    9  (  9) -0.029081682313183  0.052377114097978 -0.016598919709521  0.054121123853147 -0.005943121275160  0.052845962268238 -0.099913404815471 -0.011257505194437  0.046946017437487
   10  ( 10) -0.029775808153732 -0.011144658225593  0.123616712734155 -0.069048925704712  0.072425392744070  0.175724643912671  0.020473761572938 -0.027329304629724  0.030635509131545
   11  ( 11)  0.065686621613770  0.046175058764329  0.054739231018351  0.067089838544022 -0.085213075957602  0.033327995008949  0.039100304110295  0.006432393334863  0.004793441058021

                         9     
                      (  9)    

    0  (  0) -0.007846989535067
    1  (  1) -0.003599492504636
    2  (  2) -0.050462951482641
    3  (  3)  0.025590884589289
    4  (  4)  0.058023095670766
    5  (  5)  0.032774222909005
    6  (  6) -0.063967275865639
    7  (  7) -0.008682341499169
    8  (  8) -0.054096899462577
    9  (  9) -0.060114344656817
   10  ( 10) -0.027778487155084
   11  ( 11)  0.026791075182270

	DPD File2: L_XBAR_MI
	DPD Parameters:
	------------------
	pnum = 0   qnum = 0   irrep = 0 
	Irreps = 1

	   Row and column dimensions for DPD Block:
	   ----------------------------------------
	   Irrep: 0 row =    12	col =    12

	File 101 DPD File2: L_XBAR_MI
	Matrix for Irrep 0
	----------------------------------------

                         0                  1                  2                  3                  4                  5                  6                  7                  8     
                      (  0)              (  1)              (  2)              (  3)              (  4)              (  5)              (  6)              (  7)              (  8)    

    0  (  0)  0.000027040415629 -0.011060683877014 -0.004793456604174 -0.073481718947815  0.071504628579504  0.043329380971140 -0.025554578127020 -0.020981780222372  0.009741644291702
    1  (  1)  0.011009750767710  0.000007607239638 -0.023558132531364  0.077101510812660 -0.072464798927885 -0.012890143442014  0.005683277463039  0.006920173451844 -0.002574145935117
    2  (  2)  0.004842956201138  0.023538681480646 -0.000165226837356  0.207870652246109 -0.210753100318316 -0.104860036060473  0.066732822779293  0.046426833552357  0.005606364415949
    3  (  3)  0.072846425626236 -0.076633967514456 -0.207131819603719  0.000363002514167  0.003747206896431  0.078444561593663  0.135702906229239 -0.013002670534311 -0.066080178619823
    4  (  4) -0.070600283762422  0.071629979040170  0.209426851809859 -0.004131404023761 -0.000622007787025 -0.030404083718522 -0.072573499571294  0.005804369491597 -0.017256603869834
    5  (  5) -0.042938103457168  0.012767138285328  0.104089521299280 -0.078509088746037  0.031589837577918  0.000702189505052  0.234416667878474  0.006073163712043  0.085676616832129
    6  (  6)  0.025301081158037 -0.005670372009091 -0.066621493112260 -0.135369815415989  0.072186642172677 -0.233429155829529 -0.000193153543854  0.257186865330664 -0.080618496233003
    7  (  7)  0.020822354624809 -0.006724508772864 -0.045993762547709  0.012965367707466 -0.005443358684893 -0.006173477558764 -0.257050229729866 -0.000107746296809  0.140355655169915
    8  (  8) -0.009433315942837  0.002386871982620 -0.004905033901638  0.065444732418119  0.016877777779184 -0.086229493339974  0.079936884502294 -0.140925849366440  0.000032973112771
    9  (  9) -0.050122316178122  0.043792237307249  0.089139695076544  0.017498120716854  0.031599257896207  0.003933044197971  0.023956850946537 -0.023591092945552 -0.231355321959790
   10  ( 10) -0.021733936417639  0.028861084950194  0.012680331414142  0.120427356966588 -0.061995106537511 -0.110107781807189 -0.044522957084667 -0.044154911034034 -0.092344585217016
   11  ( 11)  0.054009861126219 -0.049060128725242 -0.116101359283731 -0.043743279208153 -0.090347857163418  0.186254068633391 -0.010091097585210  0.182439821408012 -0.003662369987719

                         9                 10                 11     
                      (  9)              ( 10)              ( 11)    

    0  (  0)  0.050351453022816  0.022080092143519 -0.055614919944575
    1  (  1) -0.043523152414753 -0.028913570873413  0.049281186946194
    2  (  2) -0.088800989029968 -0.012387285063650  0.115844545896060
    3  (  3) -0.017174780145822 -0.120766108805071  0.043936126935279
    4  (  4) -0.030870076222017  0.062251131717634  0.090680792929539
    5  (  5) -0.006295821796423  0.109602421776397 -0.187179027951466
    6  (  6) -0.023342165797100  0.045357752135654  0.008109043387536
    7  (  7)  0.023116687415220  0.043892118110330 -0.180954961968930
    8  (  8)  0.233341712401291  0.091442002860762  0.004136900799825
    9  (  9) -0.000301754806718 -0.311200435372275  0.071746004396889
   10  ( 10)  0.310579381633242 -0.001146128157928 -0.337175845078850
   11  ( 11) -0.071759108867497  0.341710401790558  0.000514995811627

	DPD File2: L_XBAR_AE
	DPD Parameters:
	------------------
	pnum = 1   qnum = 1   irrep = 0 
	Irreps = 1

	   Row and column dimensions for DPD Block:
	   ----------------------------------------
	   Irrep: 0 row =    10	col =    10

	File 101 DPD File2: L_XBAR_AE
	Matrix for Irrep 0
	----------------------------------------

                         0                  1                  2                  3                  4                  5                  6                  7                  8     
                      (  0)              (  1)              (  2)              (  3)              (  4)              (  5)              (  6)              (  7)              (  8)    

    0  (  0)  0.000373475753917 -0.036374284670120  0.020675408075659  0.041938611285996 -0.014954064013842  0.008670693813728  0.001941666572295 -0.002175213653852  0.081223953554538
    1  (  1)  0.035409311022315  0.000583412485572 -0.021912115068164 -0.019686192026583 -0.001337756346096  0.101410044022450  0.013539530381542  0.021085032104073  0.104140442975282
    2  (  2) -0.022476650317949  0.020869170319361 -0.000623148700697 -0.026925059254415  0.022600045256254  0.054500059525736  0.019747085382459  0.002197258539267  0.059803958851008
    3  (  3) -0.040527884997121  0.020785024041431  0.026269813168109  0.000471315834431 -0.011435927818854 -0.005094359128301 -0.021078069626583  0.001900689875034 -0.049285996968645
    4  (  4)  0.014876995141626  0.001935832330238 -0.021280417556332  0.011112950356445 -0.000010954069817  0.001375736621566  0.021071346259575 -0.002540388346852  0.057176443700982
    5  (  5) -0.009413911250365 -0.101590521997031 -0.054440249890574  0.004479146405242 -0.000983185606368 -0.000044886546768 -0.008942266120508  0.007734744968704  0.012623227801157
    6  (  6) -0.001228199594075 -0.013460754465110 -0.019370737784615  0.021147815367486 -0.021180440873053  0.009078596275369  0.000060188007726 -0.021757615712739 -0.021546696590455
    7  (  7)  0.002386621092369 -0.020697715139691 -0.002142304020193 -0.001889845204343  0.002502377671661 -0.007891184539843  0.021671667731374 -0.000014467639800 -0.019485620606367
    8  (  8) -0.082726042354550 -0.104120679741793 -0.059410287579549  0.049170685732221 -0.057558349295310 -0.011952513990639  0.021313492409250  0.019559674820384  0.000280085732032
    9  (  9)  0.081272328687403 -0.110754135652828 -0.028218762606243 -0.005318083194946  0.020981856665328  0.014567561171169  0.097856532422576  0.003185861604510  0.003396420259465

                         9     
                      (  9)    

    0  (  0) -0.080531031302822
    1  (  1)  0.111220099590391
    2  (  2)  0.028332369928905
    3  (  3)  0.005372945316201
    4  (  4) -0.020768901671536
    5  (  5) -0.014982546378743
    6  (  6) -0.097582479704291
    7  (  7) -0.003277826647067
    8  (  8) -0.003260780300319
    9  (  9) -0.000186812025789

	DPD File2: L_XBAR_IA
	DPD Parameters:
	------------------
	pnum = 0   qnum = 1   irrep = 0 
	Irreps = 1

	   Row and column dimensions for DPD Block:
	   ----------------------------------------
	   Irrep: 0 row =    12	col =    10

	File 101 DPD File2: L_XBAR_IA
	Matrix for Irrep 0
	----------------------------------------

                         0                  1                  2                  3                  4                  5                  6                  7                  8     
                      (  0)              (  1)              (  2)              (  3)              (  4)              (  5)              (  6)              (  7)              (  8)    

    0  (  0) -0.055078142857730 -0.005804719253870  0.036780646390295 -0.020745008937467  0.005631321847372  0.032388434273515 -0.019554696159470 -0.000026315312725 -0.020764618626485
    1  (  1)  0.007062764805983 -0.009531924986358 -0.009339128927033  0.000585332180790  0.003536715168429  0.000717716075619 -0.020997702724249  0.003197609391351  0.007543205543512
    2  (  2)  0.003273721751740  0.024127785964031  0.019803917811720 -0.021792459116371 -0.009225997376134  0.033280936125827  0.008357612340343 -0.004534634516307 -0.049752671416882
    3  (  3)  0.009467819551942 -0.109846311508404 -0.049077069367633  0.038067479932941 -0.041344367625140  0.023164857049037  0.023494777691075  0.015492414094237  0.057415728373657
    4  (  4) -0.087998529958976  0.166680738261636  0.040492236405002 -0.094854089814324  0.166732509205724 -0.071703004788147 -0.042087550115670 -0.037122017357385 -0.054342710816254
    5  (  5)  0.299229806384833  0.048658757637412  0.047129705508191 -0.086908947353479  0.109728878421159 -0.016789363694622 -0.035383410511227 -0.025335321798853 -0.020816334728403
    6  (  6) -0.066809370150497 -0.045194542069502  0.116536125285004 -0.010429907241056 -0.024187359417881 -0.082665971775639  0.044425337488759  0.096427706347339  0.099634759737873
    7  (  7)  0.040692585429759  0.010414403264802 -0.019197392610011  0.094603783550729 -0.099044516952079 -0.021567521219124  0.184530946012757  0.010140666187679  0.044429992592254
    8  (  8) -0.213871489715034 -0.016533777750857 -0.072796198856764  0.091991735556304 -0.195396773714742  0.059284334691121 -0.184339397234048  0.031894612177392  0.038856272223904
    9  (  9)  0.030682243425493 -0.041775517900723  0.024602058265109 -0.057287290352598  0.006772740305808 -0.055735826014970  0.097648839528159  0.011580457457775 -0.048271644809752
   10  ( 10)  0.033182564379351  0.014791814059305 -0.134627953545408  0.074303510334895 -0.072048571203469 -0.178297714298707 -0.018972497544843  0.029382172273843 -0.026191954957833
   11  ( 11) -0.065304385058577 -0.054065687693520 -0.058978656659205 -0.069527138454037  0.087278293902658 -0.031923026630317 -0.037244505698843 -0.006712268463202 -0.005721877737556

                         9     
                      (  9)    

    0  (  0)  0.007990021121370
    1  (  1)  0.003543862634333
    2  (  2)  0.051263654652949
    3  (  3) -0.026303130694794
    4  (  4) -0.059400171093529
    5  (  5) -0.033889468583245
    6  (  6)  0.063573026761318
    7  (  7)  0.010425863326151
    8  (  8)  0.056178737356358
    9  (  9)  0.060112542353545
   10  ( 10)  0.033303474306423
   11  ( 11) -0.026602109308180

	DPD File2: L_Y_IA
	DPD Parameters:
	------------------
	pnum = 0   qnum = 1   irrep = 0 
	Irreps = 1

	   Row and column dimensions for DPD Block:
	   ----------------------------------------
	   Irrep: 0 row =    12	col =    10

	File 101 DPD File2: L_Y_IA
	Matrix for Irrep 0
	----------------------------------------

                         0                  1                  2                  3                  4                  5                  6                  7                  8     
                      (  0)              (  1)              (  2)              (  3)              (  4)              (  5)              (  6)              (  7)              (  8)    

    0  (  0)  0.023607177483865  0.019696612050350  0.037221211945526 -0.015590319681851  0.002020189849750  0.021016653575377 -0.007873916133275  0.003448340629441  0.079821954481224
    1  (  1) -0.007327805275203 -0.018867534326453  0.042212469144301 -0.001447360465532  0.028939866678105 -0.077938653104404 -0.061948383301308  0.004945505815260  0.075894556811833
    2  (  2) -0.009007071715096 -0.016177005924136 -0.068312932686748  0.041184857002216  0.003023256807849 -0.009849571069341  0.004290386827853  0.004340519663190  0.085840789731863
    3  (  3)  0.026077186018055  0.012520558394145  0.023360353442700 -0.029787599504995  0.027312833899651  0.081100061988488  0.033406666036684 -0.054430078269502 -0.042036783058541
    4  (  4)  0.044521029957529  0.101548028764322  0.092152577122571 -0.036969660657302 -0.235975964924228 -0.022489799881426 -0.018037809360952  0.163273258170446  0.255997686615180
    5  (  5) -0.075082806289986  0.059495558659760 -0.178951166973208  0.134634824363461 -0.237022621988907  0.054772185738093  0.024504277003574 -0.150049663195548  0.003365655807109
    6  (  6) -0.075564373647752  0.030719217801270  0.086498148613717 -0.160325933851217  0.064234285092624 -0.161900908530192  0.266146706542153  0.238096935193116  0.054011663967104
    7  (  7) -0.117049393823037 -0.184359826703192  0.154835474509428 -0.196676570903303  0.209716028095710 -0.429620861269250 -0.096138950371930  0.371356958948909  0.058084061228422
    8  (  8) -0.116322044864514  0.134673176538693 -0.115490121491504 -0.372419146713619  0.134366058873495  0.090977059951167 -0.047847125804466 -0.349531731310837  0.026343643607400
    9  (  9)  0.016166361412955 -0.064655468424710  0.096603309805783 -0.102141195710319 -0.004689543808592 -0.174053615011917  0.096535422597884  0.179574162994057 -0.093140031283508
   10  ( 10)  0.038118656883478 -0.011712936799337 -0.109233641239291  0.041948680381288  0.067033242191683  0.043789144743712  0.119198983912611  0.019961916632166  0.046236231464485
   11  ( 11)  0.202537936910801  0.041865412884917 -0.001109843387752 -0.036047997614731 -0.209039172740832 -0.039634162251909  0.042796450053911 -0.037154632582305  0.094709860787926

                         9     
                      (  9)    

    0  (  0) -0.001464671774640
    1  (  1)  0.092168971819861
    2  (  2) -0.096834154812683
    3  (  3) -0.085232004192971
    4  (  4)  0.224276823174076
    5  (  5) -0.037070718029539
    6  (  6) -0.017788678159702
    7  (  7)  0.125655013977349
    8  (  8) -0.036753749846806
    9  (  9)  0.104788947224558
   10  ( 10) -0.055723652782664
   11  ( 11)  0.029086171638151

	DPD File2: L_YBAR_MI
	DPD Parameters:
	------------------
	pnum = 0   qnum = 0   irrep = 0 
	Irreps = 1

	   Row and column dimensions for DPD Block:
	   ----------------------------------------
	   Irrep: 0 row =    12	col =    12

	File 101 DPD File2: L_YBAR_MI
	Matrix for Irrep 0
	----------------------------------------

                         0                  1                  2                  3                  4                  5                  6                  7                  8     
[...]
    8  (  8) -0.036832911515778
    9  (  9)  0.106598069168896
   10  ( 10) -0.058544237697866
   11  ( 11)  0.029477471633377

	DPD File2: L*_Z_IA
	DPD Parameters:
	------------------
	pnum = 0   qnum = 1   irrep = 0 
	Irreps = 1

	   Row and column dimensions for DPD Block:
	   ----------------------------------------
	   Irrep: 0 row =    12	col =    10

	File 101 DPD File2: L*_Z_IA
	Matrix for Irrep 0
	----------------------------------------

                         0                  1                  2                  3                  4                  5                  6                  7                  8     
                      (  0)              (  1)              (  2)              (  3)              (  4)              (  5)              (  6)              (  7)              (  8)    

    0  (  0)  0.089840465236639  0.055253526017384  0.050839656500763 -0.011592120097125 -0.028453073802327 -0.033272498519552 -0.013123122113661 -0.010376152801018 -0.046773274895258
    1  (  1) -0.019180458662013  0.004406050250095 -0.021028155503753 -0.011538680382493  0.014109247025544  0.033202867544624 -0.146724711866026  0.006291497825136 -0.032816512716536
    2  (  2) -0.008004935687722 -0.083588166037919  0.024500417897545  0.004976479382603  0.015361678805521 -0.027030028692481  0.075999531450662 -0.040388417846691 -0.092155828533891
    3  (  3)  0.072751395954341  0.101339872302237  0.027554632233369  0.017104143830219 -0.009883810195933 -0.054325029361303  0.038424568332321  0.007564948810792  0.050859249504332
    4  (  4)  0.116869612229803  0.168448689691655  0.076045170334971 -0.039076911577592  0.141061895684279 -0.082089594479219  0.096305838512663 -0.090937592316891 -0.089867596007060
    5  (  5) -0.362411548480784 -0.116301468889953 -0.067304641124103 -0.178833394151972  0.120526935184403  0.077690766339247 -0.087853646674527  0.131583743314614 -0.005449986970992
    6  (  6) -0.023022244008255  0.091878290674892 -0.168295716426445 -0.360782087251449 -0.197772285526073  0.118427120680981  0.100301553922799  0.545992767652645 -0.002274268666032
    7  (  7) -0.332469089134894 -0.094037896879569 -0.021326282879130  0.202588446944902  0.003095263600251  0.074773576402020  0.261809753275033 -0.312310926216482  0.101271338065191
    8  (  8) -0.102262443471909 -0.018323432615219  0.030286707768777  0.141132963119011 -0.140087132389199 -0.016144892427068 -0.105178803081718  0.077042517755010  0.061204404958325
    9  (  9)  0.062921845411998  0.223934495787571  0.055471944735373  0.006791304506009 -0.142947280979747 -0.007991932671726  0.047858231040920  0.145718178747439 -0.072195393087747
   10  ( 10) -0.062281497189920 -0.059385022143838 -0.196384148856299 -0.042900612559580  0.059951865155366  0.109494755984367  0.025377609949434  0.255425379639498 -0.006903138064635
   11  ( 11) -0.109893815228951 -0.036299338743559 -0.008950290629737 -0.103979082481223  0.089663281920591  0.076642658651264  0.017386558504572  0.075203105289193 -0.110232824471243

                         9     
                      (  9)    

    0  (  0) -0.015115955046398
    1  (  1) -0.030649150866623
    2  (  2)  0.004117081662055
    3  (  3)  0.011275331990733
    4  (  4) -0.082379096710391
    5  (  5) -0.010925397549841
    6  (  6) -0.209001724886826
    7  (  7)  0.094421017161976
    8  (  8)  0.009881568205146
    9  (  9) -0.113416879940065
   10  ( 10) -0.045856944610088
   11  ( 11)  0.007202279241956

	DPD File2: L*_ZBAR_MI
	DPD Parameters:
	------------------
	pnum = 0   qnum = 0   irrep = 0 
	Irreps = 1

	   Row and column dimensions for DPD Block:
	   ----------------------------------------
	   Irrep: 0 row =    12	col =    12

	File 101 DPD File2: L*_ZBAR_MI
	Matrix for Irrep 0
	----------------------------------------

                         0                  1                  2                  3                  4                  5                  6                  7                  8     
                      (  0)              (  1)              (  2)              (  3)              (  4)              (  5)              (  6)              (  7)              (  8)    

    0  (  0) -0.000220708951805  0.002285125175691  0.191707004410362 -0.079176547230168 -0.015343724365778 -0.090762857026817 -0.035966370657945 -0.080228715282467  0.022632088923674
    1  (  1) -0.002270884967208  0.000127565394324 -0.181504505054825  0.084301623031763 -0.019134286262134  0.136527597707722  0.291828838766679 -0.086935165965798 -0.003153353843646
    2  (  2) -0.190790178849082  0.181286631657181 -0.000456958938887  0.098736144947958  0.201937120870640  0.060858986052918 -0.102547416095399  0.128157455485049 -0.052263022410096
    3  (  3)  0.078674978478168 -0.083802623654260 -0.098399673796323 -0.000007811364455 -0.051373438140211 -0.073262817803903 -0.213681674745525  0.159362252726371  0.021801220428997
    4  (  4)  0.014664072628992  0.019624839010675 -0.200908806179136  0.051706138320979  0.000345872121954 -0.060049554605665 -0.188299165842275  0.122222076042617  0.002767653955199
    5  (  5)  0.090883158339688 -0.136634125859830 -0.061672946935338  0.074085610454942  0.059059222250386 -0.000127348530381 -0.089421360589723  0.068061408936865 -0.127845689309188
    6  (  6)  0.036070137407576 -0.291478881031241  0.101913218796355  0.213840026037065  0.188217301174188  0.090313292784378  0.000227988241868  0.211121150778618  0.048790729114232
    7  (  7)  0.080292928876427  0.086502244241271 -0.129683190149122 -0.159077087024269 -0.122727489519760 -0.066634459778768 -0.210168861690353  0.000749252033967 -0.114771568829848
    8  (  8) -0.022833189398746  0.003149552747661  0.051809982420443 -0.021432628937826 -0.002600755789320  0.127892598714043 -0.048118708989006  0.114794510188292  0.000092800281915
    9  (  9) -0.153861672291139  0.063959309572082  0.276686697924627  0.018129236987163  0.051934403975125  0.023341508127444  0.078386885603966  0.038564733347267  0.117925762997827
   10  ( 10)  0.030779229939776 -0.047764824698552 -0.139550834112229  0.058848096717218  0.072156859030427  0.071321440673974 -0.120905085316662  0.006516750888115  0.144681807491212
   11  ( 11) -0.005585664159590  0.000647324075896  0.016353426253031  0.045937924647003  0.003353712021932 -0.138994412534850 -0.062414172701736 -0.018128246159897  0.112476762941694

                         9                 10                 11     
                      (  9)              ( 10)              ( 11)    

    0  (  0)  0.154066231987270 -0.030728257834738  0.006318091479172
    1  (  1) -0.063643818172858  0.047463639084029 -0.000566548313789
    2  (  2) -0.275258773103156  0.138888616733709 -0.015969350040422
    3  (  3) -0.017345671248467 -0.059189082392597 -0.046475381788770
    4  (  4) -0.050392875458834 -0.072424486863889 -0.004459708568474
    5  (  5) -0.026836133605254 -0.070805990255275  0.140760690262586
    6  (  6) -0.078585377264235  0.120742725930369  0.064292230626142
    7  (  7) -0.041858894506429 -0.005665298604977  0.017186389787201
    8  (  8) -0.118429783592071 -0.144155117910051 -0.113213712273090
    9  (  9)  0.000756388020611 -0.455654621536171 -0.231432581033621
   10  ( 10)  0.453567840008678  0.001497567838831  0.172275686182811
   11  ( 11)  0.230120704926829 -0.175050207678076  0.001480251752528

	DPD File2: L*_ZBAR_AE
	DPD Parameters:
	------------------
	pnum = 1   qnum = 1   irrep = 0 
	Irreps = 1

	   Row and column dimensions for DPD Block:
	   ----------------------------------------
	   Irrep: 0 row =    10	col =    10

	File 101 DPD File2: L*_ZBAR_AE
	Matrix for Irrep 0
	----------------------------------------

                         0                  1                  2                  3                  4                  5                  6                  7                  8     
                      (  0)              (  1)              (  2)              (  3)              (  4)              (  5)              (  6)              (  7)              (  8)    

    0  (  0) -0.000516219710096 -0.034778633625922 -0.032999546866604  0.009629039882851 -0.052966719597983  0.030450001600331  0.014875222122687  0.072128990206276 -0.048218822339291
    1  (  1)  0.030877691789689 -0.001883540901179 -0.071434334048178  0.019325009776762  0.017452039121573  0.158145751836249  0.010537309439012  0.021583100197258  0.169934651293508
    2  (  2)  0.033565318739450  0.071200997487134 -0.000581071491158  0.036850040125033 -0.007310816565813  0.008797900774729  0.029229532993811  0.016744128442162  0.070455787123224
    3  (  3) -0.011004884869740 -0.019179310747322 -0.034909262988306 -0.000523661129316  0.007125267641875  0.017666281518929  0.025274953340875 -0.006048522487174  0.042959205778588
    4  (  4)  0.052383681514372 -0.016788640459188  0.007028507016727 -0.007472760876711  0.000164741621459  0.026820745290060 -0.000005495283156  0.022752424404740 -0.031410113584903
    5  (  5) -0.028924597809930 -0.155705177706769 -0.009708873708520 -0.016613543857388 -0.026890889204890 -0.000863820477871  0.026461589355365 -0.030900210912207 -0.024762473016695
    6  (  6) -0.014335467745063 -0.010396285620574 -0.029624823660145 -0.025462090601774 -0.000149096465101 -0.026996065191939  0.000042625650505  0.107465667989374 -0.101121105144746
    7  (  7) -0.071280711678364 -0.021473260355675 -0.016888851187688  0.005990055426137 -0.022650874062886  0.030884846924827 -0.107059671389619 -0.000085380716595 -0.001222830543939
    8  (  8)  0.049124632808806 -0.169889327978826 -0.068826403347454 -0.044339001058681  0.031493314638166  0.025080049747617  0.100845039739511  0.001167614834563 -0.000278385839059
    9  (  9) -0.004591463520428 -0.224641690086804 -0.054391854456248  0.000520714687594 -0.041379699359941  0.035041097284916  0.048865193680492  0.034233303843191 -0.002323551140103

                         9     
                      (  9)    

    0  (  0)  0.004372643574272
    1  (  1)  0.225448428909756
    2  (  2)  0.053543340072739
    3  (  3) -0.000029286284314
    4  (  4)  0.041473098585631
    5  (  5) -0.035500700265343
    6  (  6) -0.049415178822761
    7  (  7) -0.033722251569785
    8  (  8)  0.002108270902990
    9  (  9)  0.000059855092839

	DPD File2: L*_ZBAR_IA
	DPD Parameters:
	------------------
	pnum = 0   qnum = 1   irrep = 0 
	Irreps = 1

	   Row and column dimensions for DPD Block:
	   ----------------------------------------
	   Irrep: 0 row =    12	col =    10

	File 101 DPD File2: L*_ZBAR_IA
	Matrix for Irrep 0
	----------------------------------------

                         0                  1                  2                  3                  4                  5                  6                  7                  8     
                      (  0)              (  1)              (  2)              (  3)              (  4)              (  5)              (  6)              (  7)              (  8)    

    0  (  0) -0.083178189243420 -0.063320502846334 -0.053448860213087  0.010119942405249  0.027962494693060  0.033408156863920  0.016646686337575  0.009688142950422  0.047753876853561
    1  (  1)  0.015436953882993 -0.001484194604435  0.023035398827938  0.013457869465682 -0.013993527180594 -0.033943979571173  0.150850131149685 -0.006054179283712  0.032861778007630
    2  (  2)  0.007416631834165  0.085535883780140 -0.031035920823063 -0.004414026000245 -0.010136741015808  0.029006493092665 -0.078308410582325  0.042862582950124  0.094615352204321
    3  (  3) -0.060864804478309 -0.107990348476254 -0.029334440888372 -0.017074561190796  0.006770815028719  0.056161219910802 -0.038880978015892 -0.007186858315357 -0.050898617231613
    4  (  4) -0.109193273372521 -0.178421304609536 -0.074992060959098  0.038015102993590 -0.147910228685056  0.087181398739485 -0.098582275805430  0.093570766725671  0.088687564594969
    5  (  5)  0.362309556713353  0.121304099608105  0.074968023430465  0.180660703395883 -0.122438585566692 -0.079096894607399  0.085876030950081 -0.136109863707099  0.002214631202559
    6  (  6)  0.026835628590284 -0.104282390245910  0.172843582901342  0.372105341674331  0.200623349099705 -0.124556824195978 -0.101871864021157 -0.564196461998156  0.000688785098812
    7  (  7)  0.344945182177458  0.095060217927020  0.019692892152525 -0.208607223053674 -0.002627648630858 -0.075715664508426 -0.273373001775474  0.322679649727354 -0.103750880827708
    8  (  8)  0.103243578200218  0.018995126377011 -0.033613347734984 -0.143946559405160  0.146180680761779  0.017308359506557  0.107684620423524 -0.078982837400636 -0.062496256308537
    9  (  9) -0.085648241685080 -0.209611729703363 -0.056224829258403 -0.004822853442674  0.155473341191696  0.012971266662010 -0.058097898390268 -0.150335378791943  0.078057323668847
   10  ( 10)  0.070132628390254  0.074702785017989  0.209329817989324  0.042566216826648 -0.058034324607334 -0.102370727340101 -0.025801003388656 -0.264561180001205  0.017482708292352
   11  ( 11)  0.113963029550224  0.045073297924837  0.000413588614935  0.112463923652261 -0.089423608939245 -0.081287727697488 -0.019439635757843 -0.076622184934281  0.114273036565733

                         9     
                      (  9)    

    0  (  0)  0.015270950298847
    1  (  1)  0.030946721914646
    2  (  2) -0.003707642092631
    3  (  3) -0.011960041366510
    4  (  4)  0.086083869639040
    5  (  5)  0.009867768019920
    6  (  6)  0.209680707258061
    7  (  7) -0.097843271202036
    8  (  8) -0.010325909433648
    9  (  9)  0.121632164182268
   10  ( 10)  0.058275044776127
   11  ( 11) -0.003021331500267

	Computing Mu_X-Perturbed Wave Function (0.128 E_h).
	Iter   Pseudopolarizability       RMS 
	----   --------------------   -----------
	   0        16.768400635603
	   1        22.238899320822    7.657e-01
	   2        26.326603027689    3.442e-01
	   3        26.402828133466    5.204e-02
	   4        26.436612029925    2.459e-02
	   5        26.441960303425    4.103e-03
	   6        26.440596198915    1.628e-03
	   7        26.440721957995    5.123e-04
	   8        26.440796402162    2.487e-04
	   9        26.440755965697    1.070e-04
	  10        26.440741557320    4.242e-05
	  11        26.440753209254    1.114e-05
	  12        26.440764467696    3.188e-06
	  13        26.440767806127    1.225e-06
	  14        26.440768083858    4.406e-07
	  15        26.440767750211    2.032e-07
	-----------------------------------------
	Converged Mu_X-Perturbed Wfn to 7.696e-08

	Computing L*_X-Perturbed Wave Function (-0.128 E_h).
	Iter   Pseudopolarizability       RMS 
	----   --------------------   -----------
	   0         1.926105631171
	   1         2.501393275440    2.028e-01
	   2         2.834079249121    7.722e-02
	   3         2.838350733184    9.377e-03
	   4         2.839897252762    3.735e-03
	   5         2.839974124857    8.176e-04
	   6         2.839961789072    1.986e-04
	   7         2.839965280195    3.975e-05
	   8         2.839964830889    1.141e-05
	   9         2.839964548158    2.885e-06
	  10         2.839964458464    9.825e-07
	  11         2.839964534135    1.402e-07
	-----------------------------------------
	Converged L*_X-Perturbed Wfn to 4.466e-08

	Computing Mu_Y-Perturbed Wave Function (0.128 E_h).
	Iter   Pseudopolarizability       RMS 
	----   --------------------   -----------
	   0        13.791920316705
	   1        16.799278106721    5.100e-01
	   2        18.450083175980    1.931e-01
	   3        18.566084737760    4.406e-02
	   4        18.584310423545    1.722e-02
	   5        18.587536224858    3.424e-03
	   6        18.587011344649    1.160e-03
	   7        18.587126793673    3.058e-04
	   8        18.587161117217    1.080e-04
	   9        18.587156885826    4.128e-05
	  10        18.587157300472    2.114e-05
	  11        18.587158831307    7.210e-06
	  12        18.587162024549    2.847e-06
	  13        18.587162378704    1.013e-06
	  14        18.587162487796    4.203e-07
	  15        18.587162333649    1.752e-07
	-----------------------------------------
	Converged Mu_Y-Perturbed Wfn to 6.350e-08

	Computing L*_Y-Perturbed Wave Function (-0.128 E_h).
	Iter   Pseudopolarizability       RMS 
	----   --------------------   -----------
	   0         5.491473815678
	   1         6.979859581644    2.986e-01
	   2         7.683240637438    1.049e-01
	   3         7.697438041442    1.990e-02
	   4         7.702325633185    6.916e-03
	   5         7.702390793917    1.115e-03
	   6         7.702332324907    2.339e-04
	   7         7.702339286648    5.198e-05
	   8         7.702338399125    1.155e-05
	   9         7.702338304016    2.547e-06
	  10         7.702338208910    8.454e-07
	  11         7.702338298365    1.431e-07
	-----------------------------------------
	Converged L*_Y-Perturbed Wfn to 4.269e-08

	Computing Mu_Z-Perturbed Wave Function (0.128 E_h).
	Iter   Pseudopolarizability       RMS 
	----   --------------------   -----------
	   0        13.624759065767
	   1        17.300274785227    5.349e-01
	   2        19.191725175573    1.939e-01
	   3        19.236330688642    3.405e-02
	   4        19.254798302945    1.757e-02
	   5        19.257236320246    2.512e-03
	   6        19.256952057512    1.061e-03
	   7        19.257006071054    3.749e-04
	   8        19.257011182619    1.438e-04
	   9        19.257003263117    4.440e-05
	  10        19.257001938484    1.593e-05
	  11        19.257003899419    3.739e-06
	  12        19.257005419547    1.240e-06
	  13        19.257005819512    5.354e-07
	  14        19.257005950098    2.664e-07
	  15        19.257005917211    1.205e-07
	-----------------------------------------
	Converged Mu_Z-Perturbed Wfn to 4.553e-08

	Computing L*_Z-Perturbed Wave Function (-0.128 E_h).
	Iter   Pseudopolarizability       RMS 
	----   --------------------   -----------
	   0         5.581975925525
	   1         7.067898008865    3.046e-01
	   2         7.794265032687    1.062e-01
	   3         7.808016254083    1.466e-02
	   4         7.810897755823    5.344e-03
	   5         7.811100119149    1.188e-03
	   6         7.811024708289    3.499e-04
	   7         7.811038480881    5.690e-05
	   8         7.811038897776    1.440e-05
	   9         7.811038613288    3.086e-06
	  10         7.811038593025    1.047e-06
	  11         7.811038683657    2.223e-07
	-----------------------------------------
	Converged L*_Z-Perturbed Wfn to 6.177e-08

	Computing 1/2 <<Mu;L*>>_(0.128) tensor.

            CC2 Optical Rotation Tensor (Length Gauge):
  -------------------------------------------------------------------------
   Evaluated at omega = 0.128347 E_h (355.00 nm, 3.493 eV, 28169.01 cm-1)
  -------------------------------------------------------------------------

                   0                     1                     2        

    0      0.199315154850503    -0.236145105170774    -0.075627034637323
    1      0.033233678793611     0.078305709646626    -0.216237850278404
    2     -0.318543396947316     0.348340079132529    -0.247304234743443

   Specific rotation using length-gauge electric-dipole Rosenfeld tensor.
	[alpha]_(0.128) = -144.48475 deg/[dm (g/cm^3)]

   ------------------------------------------
       CC2 Length-Gauge Optical Rotation
   ------------------------------------------
       Omega           alpha
    E_h      nm   deg/[dm (g/cm^3)]
   -----   ------ ------------------
   0.077   589.00       -49.62375
   0.128   355.00      -144.48475

*** tstop() called on ds1.sherrill.chemistry.gatech.edu at Mon Apr  4 10:21:04 2016
Module time:
	user time   =       0.94 seconds =       0.02 minutes
	system time =       1.05 seconds =       0.02 minutes
	total time  =          2 seconds =       0.03 minutes
Total time:
	user time   =       1.17 seconds =       0.02 minutes
	system time =       1.25 seconds =       0.02 minutes
	total time  =          3 seconds =       0.05 minutes

*** PSI4 exiting successfully. Buy a developer a beer!
