
    -----------------------------------------------------------------------
          Psi4: An Open-Source Ab Initio Electronic Structure Package
                               Psi4 1.1rc3.dev5 

                         Git: Rev {master} 3fbd859 


    R. M. Parrish, L. A. Burns, D. G. A. Smith, A. C. Simmonett,
    A. E. DePrince III, E. G. Hohenstein, U. Bozkaya, A. Yu. Sokolov,
    R. Di Remigio, R. M. Richard, J. F. Gonthier, A. M. James,
    H. R. McAlexander, A. Kumar, M. Saitow, X. Wang, B. P. Pritchard,
    P. Verma, H. F. Schaefer III, K. Patkowski, R. A. King, E. F. Valeev,
    F. A. Evangelista, J. M. Turney, T. D. Crawford, and C. D. Sherrill,
    J. Chem. Theory Comput. in press (2017).
    (doi: 10.1021/acs.jctc.7b00174)

    -----------------------------------------------------------------------


    Psi4 started on: Monday, 15 May 2017 03:34PM

    Process ID:  12876
    PSIDATADIR: /home/psilocaluser/gits/hrw-direct/objdir4/stage/usr/local/psi4/share/psi4
    Memory:     500.0 MiB
    Threads:    1
    
  ==> Input File <==

--------------------------------------------------------------------------
#! RHF-CC2-LR/STO-3G optical rotation of (S)-methyloxirane.  gauge =
#! length, omega = (589 355 nm)

molecule smo {
  0 1
# structure from Pederson et al., CPL, submitted
  C  0.152133 -0.035800  0.485797
  C -1.039475  0.615938 -0.061249
  C  1.507144  0.097806 -0.148460
  O -0.828215 -0.788248 -0.239431
  H  0.153725 -0.249258  1.552136
  H -1.863178  0.881921  0.593333
  H -0.949807  1.214210 -0.962771
  H  2.076806 -0.826189 -0.036671
  H  2.074465  0.901788  0.325106
  H  1.414895  0.315852 -1.212218
}

set {
  basis "STO-3G"
  freeze_core true
  gauge length
  omega [589, 355, nm]
}

property('cc2',properties=['rotation'])
--------------------------------------------------------------------------

*** tstart() called on psinet
*** at Mon May 15 15:34:41 2017

   => Loading Basis Set <=

    Name: STO-3G
    Role: ORBITAL
    Keyword: BASIS
    atoms 1-3  entry C          line    60 file /home/psilocaluser/gits/hrw-direct/objdir4/stage/usr/local/psi4/share/psi4/basis/sto-3g.gbs 
    atoms 4    entry O          line    80 file /home/psilocaluser/gits/hrw-direct/objdir4/stage/usr/local/psi4/share/psi4/basis/sto-3g.gbs 
    atoms 5-10 entry H          line    18 file /home/psilocaluser/gits/hrw-direct/objdir4/stage/usr/local/psi4/share/psi4/basis/sto-3g.gbs 


         ---------------------------------------------------------
                                   SCF
            by Justin Turney, Rob Parrish, and Andy Simmonett
                              RHF Reference
                        1 Threads,    500 MiB Core
         ---------------------------------------------------------

  ==> Geometry <==

    Molecular point group: c1
    Full point group: C1

    Geometry (in Angstrom), charge = 0, multiplicity = 1:

       Center              X                  Y                   Z               Mass       
    ------------   -----------------  -----------------  -----------------  -----------------
           C          0.201751522566     0.002392992405     0.490202120079    12.000000000000
           C         -0.989856477434     0.654130992405    -0.056843879921    12.000000000000
           C          1.556762522566     0.135998992405    -0.144054879921    12.000000000000
           O         -0.778596477434    -0.750055007595    -0.235025879921    15.994914619560
           H          0.203343522566    -0.211065007595     1.556541120079     1.007825032070
           H         -1.813559477434     0.920113992405     0.597738120079     1.007825032070
           H         -0.900188477434     1.252402992405    -0.958365879921     1.007825032070
           H          2.126424522566    -0.787996007595    -0.032265879921     1.007825032070
           H          2.124083522566     0.939980992405     0.329511120079     1.007825032070
           H          1.464513522566     0.354044992405    -1.207812879921     1.007825032070

  Running in c1 symmetry.

  Rotational constants: A =      0.60799  B =      0.22239  C =      0.19815 [cm^-1]
  Rotational constants: A =  18226.99774  B =   6666.95622  C =   5940.33276 [MHz]
  Nuclear repulsion =  124.788534121264803

  Charge       = 0
  Multiplicity = 1
  Electrons    = 32
  Nalpha       = 16
  Nbeta        = 16

  ==> Algorithm <==

  SCF Algorithm Type is PK.
  DIIS enabled.
  MOM disabled.
  Fractional occupation disabled.
  Guess Type is SAD.
  Energy threshold   = 1.00e-10
  Density threshold  = 1.00e-10
  Integral threshold = 0.00e+00

  ==> Primary Basis <==

  Basis Set: STO-3G
    Blend: STO-3G
    Number of shells: 18
    Number of basis function: 26
    Number of Cartesian functions: 26
    Spherical Harmonics?: true
    Max angular momentum: 1

  ==> Pre-Iterations <==

   -------------------------------------------------------
    Irrep   Nso     Nmo     Nalpha   Nbeta   Ndocc  Nsocc
   -------------------------------------------------------
     A         26      26       0       0       0       0
   -------------------------------------------------------
    Total      26      26      16      16      16       0
   -------------------------------------------------------

  ==> Integral Setup <==

  Using in-core PK algorithm.
   Calculation information:
      Number of atoms:                  10
      Number of AO shells:              18
      Number of primitives:             54
      Number of atomic orbitals:        26
      Number of basis functions:        26

      Integral cutoff                 1.00e-12
      Number of threads:                 1

  Performing in-core PK
  Using 123552 doubles for integral storage.
  We computed 14355 shell quartets total.
  Whereas there are 14706 unique shell quartets.
  ==> DiskJK: Disk-Based J/K Matrices <==

    J tasked:                  Yes
    K tasked:                  Yes
    wK tasked:                  No
    Memory (MB):               375
    Schwarz Cutoff:          1E-12

    OpenMP threads:              1
  Minimum eigenvalue in the overlap matrix is 2.0902507179E-01.
  Using Symmetric Orthogonalization.

  SCF Guess: Superposition of Atomic Densities via on-the-fly atomic UHF.

  ==> Iterations <==

                        Total Energy        Delta E     RMS |[F,P]|

   @RHF iter   0:  -189.41976534870165   -1.89420e+02   1.12671e-01 
   @RHF iter   1:  -189.30558765724510    1.14178e-01   1.85610e-02 
   @RHF iter   2:  -189.48177566679436   -1.76188e-01   8.26145e-03 DIIS
   @RHF iter   3:  -189.51053786197357   -2.87622e-02   1.68511e-03 DIIS
   @RHF iter   4:  -189.51325091536503   -2.71305e-03   3.54210e-04 DIIS
   @RHF iter   5:  -189.51339254673462   -1.41631e-04   1.35641e-04 DIIS
   @RHF iter   6:  -189.51341598866529   -2.34419e-05   3.17752e-05 DIIS
   @RHF iter   7:  -189.51341716329620   -1.17463e-06   7.70830e-06 DIIS
   @RHF iter   8:  -189.51341723494519   -7.16490e-08   1.60970e-06 DIIS
   @RHF iter   9:  -189.51341723731156   -2.36636e-09   4.74878e-07 DIIS
   @RHF iter  10:  -189.51341723756769   -2.56136e-10   9.86183e-08 DIIS
   @RHF iter  11:  -189.51341723757949   -1.17950e-11   2.15603e-08 DIIS
   @RHF iter  12:  -189.51341723758003   -5.40012e-13   4.05424e-09 DIIS
   @RHF iter  13:  -189.51341723758009   -5.68434e-14   7.10239e-10 DIIS
   @RHF iter  14:  -189.51341723758000    8.52651e-14   2.10640e-10 DIIS
   @RHF iter  15:  -189.51341723758000    0.00000e+00   6.72374e-11 DIIS

  ==> Post-Iterations <==

    Orbital Energies (a.u.)
    -----------------------

    Doubly Occupied:                                                      

       1A    -20.280858     2A    -11.097188     3A    -11.087381  
       4A    -11.052915     5A     -1.350987     6A     -0.970429  
       7A     -0.859865     8A     -0.772265     9A     -0.652106  
      10A     -0.586045    11A     -0.550913    12A     -0.519890  
      13A     -0.483933    14A     -0.444905    15A     -0.370357  
      16A     -0.356780  

    Virtual:                                                              

      17A      0.452981    18A      0.575949    19A      0.620340  
      20A      0.661293    21A      0.688922    22A      0.701322  
      23A      0.731008    24A      0.743161    25A      0.833770  
      26A      0.855193  

    Final Occupation by Irrep:
              A 
    DOCC [    16 ]

  Energy converged.

  @RHF Final Energy:  -189.51341723758000

   => Energetics <=

    Nuclear Repulsion Energy =            124.7885341212648029
    One-Electron Energy =                -505.7302694787643986
    Two-Electron Energy =                 191.4283181199196235
    DFT Exchange-Correlation Energy =       0.0000000000000000
    Empirical Dispersion Energy =           0.0000000000000000
    PCM Polarization Energy =               0.0000000000000000
    EFP Energy =                            0.0000000000000000
    Total Energy =                       -189.5134172375800006



Properties will be evaluated at   0.000000,   0.000000,   0.000000 Bohr

Properties computed using the SCF density matrix

  Nuclear Dipole Moment: (a.u.)
     X:     3.0005      Y:     2.3096      Z:     0.2664

  Electronic Dipole Moment: (a.u.)
     X:    -2.7337      Y:    -1.8166      Z:    -0.0674

  Dipole Moment: (a.u.)
     X:     0.2668      Y:     0.4930      Z:     0.1990     Total:     0.5948

  Dipole Moment: (Debye)
     X:     0.6781      Y:     1.2530      Z:     0.5057     Total:     1.5118


*** tstop() called on psinet at Mon May 15 15:34:42 2017
Module time:
	user time   =       0.67 seconds =       0.01 minutes
	system time =       0.02 seconds =       0.00 minutes
	total time  =          1 seconds =       0.02 minutes
Total time:
	user time   =       0.67 seconds =       0.01 minutes
	system time =       0.02 seconds =       0.00 minutes
	total time  =          1 seconds =       0.02 minutes
 MINTS: Wrapper to libmints.
   by Justin Turney

   Calculation information:
      Number of threads:                 1
      Number of atoms:                  10
      Number of AO shells:              18
      Number of SO shells:              18
      Number of primitives:             54
      Number of atomic orbitals:        26
      Number of basis functions:        26

      Number of irreps:                  1
      Integral cutoff                 0.00e+00
      Number of functions per irrep: [  26 ]

 OEINTS: Overlap, kinetic, potential, dipole, and quadrupole integrals
         stored in file 35.

      Computing two-electron integrals...done
      Computed 61560 non-zero two-electron integrals.
        Stored in file 33.


*** tstart() called on psinet
*** at Mon May 15 15:34:42 2017


	Wfn Parameters:
	--------------------
	Wavefunction         = CC2
	Number of irreps     = 1
	Number of MOs        = 26
	Number of active MOs = 22
	AO-Basis             = NONE
	Semicanonical        = false
	Reference            = RHF
	Print Level          = 1

	IRREP	# MOs	# FZDC	# DOCC	# SOCC	# VIRT	# FZVR
	-----	-----	------	------	------	------	------
	 A	   26	    4	    12	    0	    10	    0
	Transforming integrals...
	IWL integrals will be deleted.
	(OO|OO)...
	Presorting SO-basis two-electron integrals.
	Sorting File: SO Ints (nn|nn) nbuckets = 1
	Transforming the one-electron integrals and constructing Fock matrices
	Starting first half-transformation.
	Sorting half-transformed integrals.
	First half integral transformation complete.
	Starting second half-transformation.
	Two-electron integral transformation complete.
	(OO|OV)...
	Starting second half-transformation.
	Two-electron integral transformation complete.
	(OO|VV)...
	Starting second half-transformation.
	Two-electron integral transformation complete.
	(OV|OO)...
	Starting first half-transformation.
	Sorting half-transformed integrals.
	First half integral transformation complete.
	Starting second half-transformation.
	Two-electron integral transformation complete.
	(OV|OV)...
	Starting second half-transformation.
	Two-electron integral transformation complete.
	(OV|VV)...
	Starting second half-transformation.
	Two-electron integral transformation complete.
	(VV|OO)...
	Starting first half-transformation.
	Sorting half-transformed integrals.
	First half integral transformation complete.
	Starting second half-transformation.
	Two-electron integral transformation complete.
	(VV|OV)...
	Starting second half-transformation.
	Two-electron integral transformation complete.
	(VV|VV)...
	Starting second half-transformation.
	Two-electron integral transformation complete.
	Frozen core energy     =   -209.07983613514321

	Size of irrep 0 of <ab|cd> integrals:      0.010 (MW) /      0.080 (MB)
	Total:                                     0.010 (MW) /      0.080 (MB)

	Size of irrep 0 of <ia|bc> integrals:      0.012 (MW) /      0.096 (MB)
	Total:                                     0.012 (MW) /      0.096 (MB)

	Size of irrep 0 of tijab amplitudes:       0.014 (MW) /      0.115 (MB)
	Total:                                     0.014 (MW) /      0.115 (MB)

	Nuclear Rep. energy          =    124.78853412126480
	SCF energy                   =   -189.51341723758000
	One-electron energy          =   -194.60728307304521
	Two-electron energy          =     89.38516784934311
	Reference energy             =   -189.51341723758051

*** tstop() called on psinet at Mon May 15 15:34:42 2017
Module time:
	user time   =       0.04 seconds =       0.00 minutes
	system time =       0.04 seconds =       0.00 minutes
	total time  =          0 seconds =       0.00 minutes
Total time:
	user time   =       0.83 seconds =       0.01 minutes
	system time =       0.06 seconds =       0.00 minutes
	total time  =          1 seconds =       0.02 minutes

*** tstart() called on psinet
*** at Mon May 15 15:34:42 2017

            **************************
            *                        *
            *        CCENERGY        *
            *                        *
            **************************

    Nuclear Rep. energy (wfn)     =  124.788534121264803
    SCF energy          (wfn)     = -189.513417237580001
    Reference energy    (file100) = -189.513417237580512

    Input parameters:
    -----------------
    Wave function   =     CC2
    Reference wfn   =     RHF
    Brueckner       =     No
    Memory (Mbytes) =     524.3
    Maxiter         =     50
    R_Convergence   =     1.0e-07
    E_Convergence   =     1.0e-08
    Restart         =     Yes
    DIIS            =     Yes
    AO Basis        =     NONE
    ABCD            =     NEW
    Cache Level     =     2
    Cache Type      =     LOW
    Print Level     =     1
    Num. of threads =     1
    # Amps to Print =     10
    Print MP2 Amps? =     No
    Analyze T2 Amps =     No
    Print Pair Ener =     No
    Local CC        =     No
    SCS-MP2         =     False
    SCSN-MP2        =     False
    SCS-CCSD        =     False

MP2 correlation energy -0.1984983538101992
                Solving CC Amplitude Equations
                ------------------------------
  Iter             Energy              RMS        T1Diag      D1Diag    New D1Diag    D2Diag
  ----     ---------------------    ---------   ----------  ----------  ----------   --------
     0        -0.198498353810199    0.000e+00    0.000000    0.000000    0.000000    0.124632
     1        -0.198386689299877    2.456e-02    0.005013    0.019208    0.019208    0.124632
     2        -0.199744020160671    7.393e-03    0.005756    0.022873    0.022873    0.125832
     3        -0.200084920619632    3.729e-03    0.006768    0.027963    0.027963    0.126111
     4        -0.200115319676321    6.852e-04    0.006878    0.028762    0.028762    0.126089
     5        -0.200118669301748    1.694e-04    0.006896    0.028947    0.028947    0.126086
     6        -0.200118439802851    3.259e-05    0.006898    0.028967    0.028967    0.126084
     7        -0.200118408188058    1.039e-05    0.006898    0.028968    0.028968    0.126083
     8        -0.200118429865298    3.934e-06    0.006898    0.028968    0.028968    0.126083
     9        -0.200118429204316    1.144e-06    0.006898    0.028968    0.028968    0.126083
    10        -0.200118431545464    4.391e-07    0.006898    0.028968    0.028968    0.126083
    11        -0.200118431235805    9.823e-08    0.006898    0.028968    0.028968    0.126083

    Iterations converged.


    Largest TIA Amplitudes:
             11   2         0.0197255943
             11   3        -0.0114902911
             11   5         0.0092063278
             11   1        -0.0075665081
              9   0         0.0074808409
              4   2        -0.0071415173
              2   1         0.0060498066
             10   2        -0.0059927841
             10   1        -0.0055990860
             11   4        -0.0047844227

    Largest TIjAb Amplitudes:
     10  10   0   0        -0.0499696178
      9   9   0   0        -0.0472348458
      6   6   6   6        -0.0323415531
      9  10   0   1         0.0282266083
     10   9   1   0         0.0282266083
     10  10   1   1        -0.0276616351
      0   0   1   1        -0.0190922677
      9  10   1   0         0.0182861875
     10   9   0   1         0.0182861875
      8   8   8   8        -0.0174521682

    SCF energy       (wfn)                    = -189.513417237580001
    Reference energy (file100)                = -189.513417237580512

    Opposite-spin MP2 correlation energy      =   -0.172369086880245
    Same-spin MP2 correlation energy          =   -0.026129266929954
    MP2 correlation energy                    =   -0.198498353810199
      * MP2 total energy                      = -189.711915591390721
    CC2 correlation energy                    =   -0.200118431235805
      * CC2 total energy                      = -189.713535668816320


*** tstop() called on psinet at Mon May 15 15:34:43 2017
Module time:
	user time   =       0.13 seconds =       0.00 minutes
	system time =       0.18 seconds =       0.00 minutes
	total time  =          1 seconds =       0.02 minutes
Total time:
	user time   =       0.97 seconds =       0.02 minutes
	system time =       0.24 seconds =       0.00 minutes
	total time  =          2 seconds =       0.03 minutes

*** tstart() called on psinet
*** at Mon May 15 15:34:43 2017


			**************************
			*                        *
			*         CCHBAR         *
			*                        *
			**************************


*** tstop() called on psinet at Mon May 15 15:34:43 2017
Module time:
	user time   =       0.01 seconds =       0.00 minutes
	system time =       0.02 seconds =       0.00 minutes
	total time  =          0 seconds =       0.00 minutes
Total time:
	user time   =       0.98 seconds =       0.02 minutes
	system time =       0.26 seconds =       0.00 minutes
	total time  =          2 seconds =       0.03 minutes

*** tstart() called on psinet
*** at Mon May 15 15:34:43 2017


			**************************
			*        CCLAMBDA        *
			**************************


	Nuclear Rep. energy (wfn)     =  124.788534121264803
	Reference           (wfn)     =                    0
	SCF energy          (wfn)     = -189.513417237580001
	Reference energy    (CC_INFO) = -189.513417237580512
	CC2 energy          (CC_INFO) =   -0.200118431235805
	Total CC2 energy    (CC_INFO) = -189.713535668816320

	Input parameters:
	-----------------
	Maxiter           =     50
	Convergence       = 1.0e-07
	Restart           =     No
	Cache Level       =     2
	Model III         =     No
	DIIS              =     Yes
	AO Basis          =     No
	ABCD              =     NEW
	Local CC          =     No
	Paramaters for left-handed eigenvectors:
	    Irr   Root  Ground-State?    EOM energy        R0
	  1   0     0        Yes       0.0000000000   1.0000000000
	Labels for eigenvector 1:
	LIA 0 -1, Lia 0 -1, LIJAB 0 -1, Lijab 0 -1, LIjAb 0 -1, 2LIjAb - LIjbA 0 -1
	Deleting old CC_LAMBDA data.
	Symmetry of left-hand state: A
	Symmetry of left-hand eigenvector: A

	          Solving Lambda Equations
	          ------------------------
	Iter     PseudoEnergy or Norm         RMS  
	----     ---------------------     --------
	   0        -0.200255252097002    0.000e+00
	   1        -0.200237820765584    1.045e-02
	   2        -0.199973107551451    1.485e-03
	   3        -0.199954623633709    4.864e-04
	   4        -0.199946897293502    1.053e-04
	   5        -0.199946308537976    2.929e-05
	   6        -0.199946157936786    6.703e-06
	   7        -0.199946138584980    1.596e-06
	   8        -0.199946137030889    5.076e-07
	   9        -0.199946135249655    1.768e-07
	  10        -0.199946134664678    6.638e-08

	Largest LIA Amplitudes:
	         11   2         0.0187278535
	         11   3        -0.0108160630
	         11   5         0.0086709062
	          4   2        -0.0067631543
	         11   1        -0.0064539502
	          2   1         0.0057797146
	         10   2        -0.0046309835
	         11   4        -0.0044345897
	          1   1         0.0039297406
	          0   1        -0.0038896347

	Largest LIjAb Amplitudes:
	 10  10   0   0        -0.0498652177
	  9   9   0   0        -0.0470033203
	  6   6   6   6        -0.0323371349
	  9  10   0   1         0.0281551854
	 10   9   1   0         0.0281551854
	 10  10   1   1        -0.0276581001
	  0   0   1   1        -0.0190238470
	  9  10   1   0         0.0181945355
	 10   9   0   1         0.0181945355
	  8   8   8   8        -0.0174424905

	Iterations converged.

	Overlap <L|e^T> =        0.91534388508

*** tstop() called on psinet at Mon May 15 15:34:43 2017
Module time:
	user time   =       0.03 seconds =       0.00 minutes
	system time =       0.02 seconds =       0.00 minutes
	total time  =          0 seconds =       0.00 minutes
Total time:
	user time   =       1.01 seconds =       0.02 minutes
	system time =       0.28 seconds =       0.00 minutes
	total time  =          2 seconds =       0.03 minutes

*** tstart() called on psinet
*** at Mon May 15 15:34:43 2017

			**************************
			*                        *
			*       ccresponse       *
			*                        *
			**************************

	Input parameters:
	-----------------
	Property         =    ROTATION
	Reference wfn    =    RHF
	Memory (Mbytes)  =    524.3
	Cache Level      =    0
	Print Level      =    1
	Maxiter          =    50
	Convergence      =    1.0e-07
	Restart          =    Allowed
	DIIS             =    Yes
	Model III        =    No
	Linear Model     =    No
	ABCD             =    NEW
	Irrep X          =    A
	Irrep Y          =    A
	Irrep Z          =    A
	Irrep RX         =    A
	Irrep RY         =    A
	Irrep RZ         =    A
	Gauge            =    LENGTH
	Applied field  0 =    0.077 E_h (589.00 nm, 2.105 eV, 16977.93 cm-1)
	Applied field  1 =    0.128 E_h (355.00 nm, 3.493 eV, 28169.01 cm-1)
	Analyze X2 Amps  =    No
	Local CC         =    No


	DPD File2: Mu_X_IA
	DPD Parameters:
	------------------
	pnum = 0   qnum = 1   irrep = 0 
	Irreps = 1

	   Row and column dimensions for DPD Block:
	   ----------------------------------------
	   Irrep: 0 row =    12	col =    10

	File 101 DPD File2: Mu_X_IA
	Matrix for Irrep 0
	----------------------------------------

                         0                  1                  2                  3                  4                  5                  6                  7                  8     
                      (  0)              (  1)              (  2)              (  3)              (  4)              (  5)              (  6)              (  7)              (  8)    

    0  (  0) -0.008614927932901 -0.046442352400056  0.027924113420848 -0.003342105613042 -0.019198187280149 -0.043605993010684  0.000124507843934 -0.017903232775755 -0.064037761769677
    1  (  1) -0.004023859954382  0.002812567241188 -0.015355365220565  0.063211982369858  0.033868800032563 -0.011581015700219 -0.004465574115878 -0.047030919129079 -0.048793907716228
    2  (  2)  0.028525640721225  0.068120190051797 -0.016739332483522 -0.005073216914996  0.071940864110972 -0.066733646998345 -0.019605473406179 -0.001610556181541  0.004701378003057
    3  (  3) -0.054155290592472 -0.054244334984755 -0.021962628004576 -0.018282485083091 -0.037028274309951  0.016786978556275  0.022024618578561  0.004302299401540 -0.167953274084101
    4  (  4) -0.063182596929128 -0.128748808697011  0.121465113794596  0.160938411624414 -0.233917278334855  0.054052147786148  0.025334190025568  0.127021105025468 -0.261448831371970
    5  (  5)  0.148864678539144  0.254187426901849 -0.169654893765005  0.284620623487219  0.104152411510991  0.359543809296571  0.133744009364038  0.041861549395911  0.169452799563311
    6  (  6) -0.084956716693293  0.126613830958100 -0.017431389376921 -0.048281125785785  0.083267553859489 -0.206713853889007  0.428812335356187  0.005011018790693  0.061186511244325
    7  (  7)  0.173630436499038  0.181276581467465 -0.440332497406727 -0.059456065314793  0.303618967332177  0.080016792150091 -0.104444652264320  0.251866044362601  0.089940979754426
    8  (  8)  0.057697740265636  0.070180597319316 -0.383387445877903  0.514874723728167  0.465292274425094 -0.060917787458673  0.016262524997932  0.068972295825028 -0.265391565564862
    9  (  9) -0.279247635392508  0.560707539445326  0.044547355247966  0.161505455840491 -0.002588377300620  0.219223272852673  0.096307931275233  0.176467158787115 -0.104344971075325
   10  ( 10) -0.977075550189082  0.176418272338824  0.228294317792423 -0.099370607761785  0.027777959043915 -0.149348953174007  0.027413414685573 -0.102632226214496  0.005531527026329
   11  ( 11) -0.211429004068205  0.082644794913083 -0.055680052865830  0.289018099852967 -0.067789578528906  0.064107786895450  0.141855082713117  0.071186757345684 -0.332576681432119

                         9     
                      (  9)    

    0  (  0) -0.071990946341156
    1  (  1)  0.010142476746200
    2  (  2) -0.112423878596356
    3  (  3) -0.059253840833002
    4  (  4) -0.014639189231197
    5  (  5)  0.248038168374966
    6  (  6) -0.055159646937661
    7  (  7)  0.115432903674626
    8  (  8) -0.135363224547124
    9  (  9)  0.174678345310946
   10  ( 10) -0.086140984938274
   11  ( 11)  0.161723358519153

	DPD File2: Mu_XBAR_MI
	DPD Parameters:
	------------------
	pnum = 0   qnum = 0   irrep = 0 
	Irreps = 1

	   Row and column dimensions for DPD Block:
	   ----------------------------------------
	   Irrep: 0 row =    12	col =    12

	File 101 DPD File2: Mu_XBAR_MI
	Matrix for Irrep 0
	----------------------------------------

                         0                  1                  2                  3                  4                  5                  6                  7                  8     
                      (  0)              (  1)              (  2)              (  3)              (  4)              (  5)              (  6)              (  7)              (  8)    

    0  (  0)  1.197572413114517 -0.541318632877371  0.139927415914873 -0.359578444130330 -0.398937843975486 -0.026586872167534 -0.139627977382516 -0.005896246491228 -0.003746644388905
    1  (  1) -0.541058731973333 -2.034801242188507  0.920540457917585  1.016218584629480  0.729164689940962  0.054412526301737  0.235971924521468  0.315223615831553  0.096208087340554
    2  (  2)  0.139828960639396  0.920734025049694  1.243601677781983 -0.974300649425054 -0.758553357750500  0.024609548649431  0.513266755137957 -0.116926330823923  0.094501440802452
    3  (  3) -0.358970389612551  1.015833032444632 -0.974440229907822 -0.266348920037382 -0.133799224826450 -1.276907891719884  0.042984364188955 -0.410608972745146 -0.602345206758872
    4  (  4) -0.398323035382104  0.727797072638099 -0.759857932028957 -0.133858878725855  0.575448485405805  0.056475665846990 -0.484493838094732 -1.583666059960473 -0.976878960945650
    5  (  5) -0.027166282529876  0.055084907439528  0.024891154244808 -1.275543890392068  0.058746221115305  0.155399297624787 -0.236023461595880  0.812878944882876 -1.048535633945681
    6  (  6) -0.139452284652001  0.236223353106611  0.513262677276795  0.042879631015553 -0.482819583744289 -0.235933155306163 -2.554180022039243  0.492117808091915  0.545404391969618
    7  (  7) -0.005841417486080  0.316274368087248 -0.116163386132942 -0.410094172620351 -1.579571504351393  0.813774264702327  0.492423579055058 -1.700719634572147  0.685529426222534
    8  (  8) -0.003628131523111  0.096035529406495  0.094131958822655 -0.602680558554738 -0.970206233042967 -1.045482011639248  0.544249830480973  0.683514460656999 -0.254958894521937
    9  (  9)  0.326098978034070 -0.130935443755898 -0.379595166178810 -0.575990923913880 -0.393471965772156 -0.365686482354661 -1.227740649572571 -0.905826585766955  0.039987575439783
   10  ( 10)  0.008103557010829 -0.039575543043785 -0.358664813530415  0.339232504235094  0.207222390004838  0.025784782686722 -0.874465143496950  0.752110557173402  0.140644707838520
   11  ( 11)  0.161744201604777 -0.084371238126416 -0.371150000615002 -0.062082553987999 -0.264710244109502 -0.257261524594595 -0.444570825837596  0.002821912169167 -0.878431482758543

                         9                 10                 11     
                      (  9)              ( 10)              ( 11)    

    0  (  0)  0.327854256723191  0.009019714201806  0.162710661594080
    1  (  1) -0.133091859401188 -0.040697608916971 -0.085480013261477
    2  (  2) -0.381849466582258 -0.359835698966555 -0.372555502654032
    3  (  3) -0.579249329460985  0.337242930789026 -0.062083381101115
    4  (  4) -0.396591932227294  0.208613968377681 -0.263534161447186
    5  (  5) -0.365098796840620  0.027806203875135 -0.265146511184336
    6  (  6) -1.230804866141472 -0.879767261427487 -0.448789926588722
    7  (  7) -0.904635210810701  0.753869376128870 -0.007723762422951
    8  (  8)  0.040323953888643  0.145561462630237 -0.894627985530935
    9  (  9)  0.423095730032689 -0.296000598729972 -0.177730944535255
   10  ( 10) -0.299463152132731  0.634536265412446 -0.073348108781663
   11  ( 11) -0.175836972560684 -0.076105887981834  1.184769463941312

	DPD File2: Mu_XBAR_AE
	DPD Parameters:
	------------------
	pnum = 1   qnum = 1   irrep = 0 
	Irreps = 1

	   Row and column dimensions for DPD Block:
	   ----------------------------------------
	   Irrep: 0 row =    10	col =    10

	File 101 DPD File2: Mu_XBAR_AE
	Matrix for Irrep 0
	----------------------------------------

                         0                  1                  2                  3                  4                  5                  6                  7                  8     
                      (  0)              (  1)              (  2)              (  3)              (  4)              (  5)              (  6)              (  7)              (  8)    

    0  (  0)  0.567008918440454  0.722443194224100  0.422402078329773  0.057554368538511 -0.068012024097596 -0.451975147608540  0.709419418128490 -0.110422168786063  0.095704108927647
    1  (  1)  0.720885472964738  0.332527211352729  0.737390933664557  0.281750515995843  0.280761290393686 -0.598548871078422 -1.146750917560074 -0.177301134607867  0.234694928374046
    2  (  2)  0.422183102929830  0.736485274543817  0.007829109729841 -0.365399185160488 -0.965501991519851  1.065090224342325 -0.394390877157068  0.239359282041345 -1.218182428400336
    3  (  3)  0.059687201587689  0.280769829516347 -0.363255319277090 -0.833720445234328 -1.345952507284314 -0.189309823206009 -0.179890587463359  1.060334267261244  0.772514544005070
    4  (  4) -0.069257393950461  0.281296543593726 -0.966923508415862 -1.344162403478837  1.514830798821686  0.013670590813123  0.227285042195308 -0.333966365834383  0.386248727994588
    5  (  5) -0.449135841837750 -0.599397616398023  1.066820631137579 -0.189649110609729  0.013795397601274 -0.565008204089947  0.487292179201877  0.306200785308481  0.347063761059997
    6  (  6)  0.708465668575064 -1.146562417015747 -0.391890894794961 -0.180811610825629  0.226633708337573  0.487729597603209 -2.767088081148377 -0.044613761228256 -0.000972346438746
    7  (  7) -0.108981479701481 -0.177538422258191  0.240499334967173  1.059842333943978 -0.334391646412731  0.306249622802239 -0.044471110656761 -3.232660954268523  0.514839123397967
    8  (  8)  0.094277588726801  0.235043460722862 -1.221823739304416  0.774952681271118  0.386077819008107  0.344858044218004 -0.000341133693178  0.514916107143190  0.507086715271392
    9  (  9) -0.063381219775898  0.233965663654109 -0.093343357924906 -0.360354041999586 -1.006820146552738  1.344825106449130  0.268434803850821  0.315156353069794 -0.332938610236887

                         9     
                      (  9)    

    0  (  0) -0.063808920787530
    1  (  1)  0.235710820172182
    2  (  2) -0.096202914418848
    3  (  3) -0.360121798161892
    4  (  4) -1.006476097602190
    5  (  5)  1.343619008167611
    6  (  6)  0.268106090274240
    7  (  7)  0.315242334513133
    8  (  8) -0.332481313383264
    9  (  9) -0.175400025059932

	DPD File2: Mu_XBAR_IA
	DPD Parameters:
	------------------
	pnum = 0   qnum = 1   irrep = 0 
	Irreps = 1

	   Row and column dimensions for DPD Block:
	   ----------------------------------------
	   Irrep: 0 row =    12	col =    10

	File 101 DPD File2: Mu_XBAR_IA
	Matrix for Irrep 0
	----------------------------------------

                         0                  1                  2                  3                  4                  5                  6                  7                  8     
                      (  0)              (  1)              (  2)              (  3)              (  4)              (  5)              (  6)              (  7)              (  8)    

    0  (  0) -0.010284048494255 -0.022581971135931  0.025184528241746  0.002553505114185 -0.007866760216735 -0.035704112150886 -0.002766394497905 -0.015588851752449 -0.054894237910669
    1  (  1)  0.001129370063260 -0.004341567056713 -0.012471737690510  0.068518821494219  0.037428649672491 -0.002857552975536 -0.002731409738209 -0.051935588474977 -0.049204102006071
    2  (  2)  0.045340581598934  0.060774626672080 -0.014665202394902 -0.013163382447340  0.085552378847967 -0.055885373659009 -0.012884187954087 -0.000025912808653  0.007546289398551
    3  (  3) -0.053518724373857 -0.051858316930917 -0.015829576226974  0.002308038466593 -0.033376912491914  0.026566608759227  0.020736863226261  0.017163432001033 -0.156611857939886
    4  (  4) -0.057073647917578 -0.121620677730040  0.116559461318180  0.152459611673760 -0.224360677266659  0.063635487600126  0.025109630293686  0.123561544969923 -0.260705677431782
    5  (  5)  0.132736043071323  0.228873275971275 -0.157588806451895  0.278203525609905  0.112411249713211  0.339424025956772  0.132778586915835  0.041442079822076  0.144607854949093
    6  (  6) -0.099037108772820  0.133050971019321 -0.016390463092699 -0.047994853534082  0.082590754367535 -0.196599146843337  0.423704532236322  0.002588517799838  0.062442412924455
    7  (  7)  0.164573996270568  0.174187584517111 -0.442718231735592 -0.055107629768529  0.292277213599590  0.090352016025029 -0.100915507153634  0.242008735185081  0.079009239652453
    8  (  8)  0.059450407301305  0.065508844735816 -0.375580889101448  0.518979554864539  0.457917802055341 -0.070408637451188  0.013466768623613  0.072872586601375 -0.257559025462184
    9  (  9) -0.246894722162695  0.551859769243373  0.044670824987361  0.162240888664295 -0.012774136938901  0.203595879781061  0.102036778576897  0.168067562706153 -0.111682944808914
   10  ( 10) -0.913654455951997  0.155328532380750  0.215519674293101 -0.100970035089767  0.021969337557273 -0.148862369984030  0.046525143909590 -0.100083990349210  0.020780587060978
   11  ( 11) -0.198781019683999  0.090074442467030 -0.050453210014304  0.292395282220077 -0.068054938936099  0.077531780115388  0.149511822875939  0.072921096134366 -0.357789764657410

                         9     
                      (  9)    

    0  (  0) -0.062212803584986
    1  (  1)  0.008222801612735
    2  (  2) -0.107232253166961
    3  (  3) -0.058083892735771
    4  (  4) -0.001519088368734
    5  (  5)  0.232883930798086
    6  (  6) -0.056471183426688
    7  (  7)  0.097796104480775
    8  (  8) -0.126488666884472
    9  (  9)  0.156849504238605
   10  ( 10) -0.081446420280763
   11  ( 11)  0.176341903152824

	DPD File2: Mu_Y_IA
	DPD Parameters:
	------------------
	pnum = 0   qnum = 1   irrep = 0 
	Irreps = 1

	   Row and column dimensions for DPD Block:
	   ----------------------------------------
	   Irrep: 0 row =    12	col =    10

	File 101 DPD File2: Mu_Y_IA
	Matrix for Irrep 0
	----------------------------------------

                         0                  1                  2                  3                  4                  5                  6                  7                  8     
                      (  0)              (  1)              (  2)              (  3)              (  4)              (  5)              (  6)              (  7)              (  8)    

    0  (  0)  0.007749096020893 -0.085883219860789 -0.036741821640513 -0.003365465554254 -0.013826624434967  0.045778129863205  0.040669337017936  0.010509742963645  0.029540605017242
    1  (  1) -0.033323633544771  0.071013231293301  0.009381535649954  0.001865195819276 -0.004385218315905 -0.001145589403992 -0.107240463714063 -0.004928891794835 -0.020784313339082
    2  (  2)  0.052107391808055  0.092519548352413  0.009858355445846  0.037319719751115 -0.023857034470632 -0.010135084101246  0.037769988668842 -0.015917832336735  0.090581268987334
    3  (  3) -0.109820166860700  0.034268818868662  0.003318299125654 -0.047343590144125  0.049224764312370 -0.055554817528594  0.048303583350885 -0.021295778567536 -0.056731125392159
    4  (  4) -0.007052162455570 -0.070092516335627 -0.001616209300804  0.100452686687340 -0.017125496300488  0.011804649620296  0.317168773449601 -0.015679790140276  0.134810835290821
    5  (  5) -0.101789034987347  0.450242114045570  0.095257897029759  0.154575128248214 -0.107484330343030 -0.276349446627330 -0.224432437333530  0.138878619319231 -0.069374899620443
    6  (  6)  0.129481070378189  0.190214182802185 -0.111482363704469 -0.289845791886638 -0.214082604248960  0.130539668518305  0.176627871859896  0.507792819613372 -0.145016045312478
    7  (  7) -0.031015915682170  0.467808966358201  0.323231774623313  0.163051942437066 -0.027878152128557 -0.222130149400228  0.355582804042090 -0.345169178258104 -0.117503613032291
    8  (  8) -0.081114418656010 -0.129458136695794  0.321266021811150 -0.116738859709862  0.112997348404402  0.150149613835924  0.100022037588641 -0.009859219508172 -0.185497355865147
    9  (  9) -0.840897499603665 -0.103193956572518 -0.262141263376961 -0.179652800220136  0.091540284698060  0.263027818637292  0.232988427097700  0.132664590100508  0.080643129784317
   10  ( 10)  0.396138270139100  0.527358178663247  0.115585436142149 -0.350404487392900  0.098592337861551  0.056041756240516 -0.132708614971811  0.130232826037073  0.024142145251939
   11  ( 11)  0.048038049575401  0.184019168140566 -0.243899393243605  0.184449948512382  0.067903231499648 -0.173184976481832  0.074519873620110  0.122524072160336  0.175482839393722

                         9     
                      (  9)    

    0  (  0)  0.029757291821339
    1  (  1) -0.000721108481725
    2  (  2)  0.081115665687732
    3  (  3)  0.028764622397233
    4  (  4) -0.020368316409772
    5  (  5) -0.173632225317480
    6  (  6) -0.281328230047800
    7  (  7) -0.030401209370270
    8  (  8)  0.093738850403327
    9  (  9)  0.138017132925940
   10  ( 10)  0.057334975405403
   11  ( 11) -0.087072361680799

	DPD File2: Mu_YBAR_MI
	DPD Parameters:
	------------------
	pnum = 0   qnum = 0   irrep = 0 
	Irreps = 1

	   Row and column dimensions for DPD Block:
	   ----------------------------------------
	   Irrep: 0 row =    12	col =    12

	File 101 DPD File2: Mu_YBAR_MI
	Matrix for Irrep 0
	----------------------------------------

                         0                  1                  2                  3                  4                  5                  6                  7                  8     
                      (  0)              (  1)              (  2)              (  3)              (  4)              (  5)              (  6)              (  7)              (  8)    

    0  (  0)  0.718905282963311 -0.301300066815098 -0.767801784865940  0.078512808825352 -0.203134864329395  0.241932163232250  0.058076631858574  0.196398858308336 -0.039008858124194
    1  (  1) -0.301256490728193 -0.157440548180653 -0.036029555945222  0.243436823804201 -0.005929795652985  0.115486356935965  0.826228436942721 -0.465135369554618  0.058491264513800
    2  (  2) -0.767289827428610 -0.036275730111077 -0.756926663794728  0.450133498634738  0.207784604973971 -0.828712724024022 -0.324647417359493 -0.353270502638369  0.092835605795882
    3  (  3)  0.078579571414042  0.243310568002833  0.450095063336851 -0.208139431363607 -0.062202704649669  0.279001105370900 -0.076077558481815  0.262112030046533 -0.378810215172718
    4  (  4) -0.202510304245595 -0.006692039856945  0.206011713498273 -0.062773519685661 -0.370731419489490 -0.256994084769574 -0.019543706164301  0.220490721787851  0.607096866069924
    5  (  5)  0.239969372403163  0.117504635997786 -0.825053657412313  0.279484173569987 -0.255386254541418 -0.397595357673452 -0.135369610755389  0.236221247146237  0.269522215039686
    6  (  6)  0.058390572588279  0.825859124407247 -0.324193078352693 -0.076854690390370 -0.019228317672495 -0.137735601227498 -0.351485727273275 -0.487761380462257 -0.103056409920122
    7  (  7)  0.194458563409000 -0.463590717501173 -0.349817673328107  0.262678828099312  0.220495817360137  0.236701749060628 -0.486100377719484  0.043036203375607 -0.169360995578035
    8  (  8) -0.038844766636175  0.058006360789407  0.092452034322386 -0.377838465048525  0.603441383275525  0.267460191997309 -0.103192305796676 -0.168696834715057 -0.618488124049516
    9  (  9) -0.174642021637819  0.179686913958803  0.584519432729807 -0.531375857305351 -0.237827440080434  0.122408493834100 -0.350613084838644 -0.156778679126698 -0.027661506214973
   10  ( 10)  0.043298420781037 -0.218837511618004 -0.611680553974653 -0.687832529301005 -0.249683832986975  0.553064660821027 -0.144105807777605  0.115245275900936 -0.084193131593124
   11  ( 11)  0.061064657985430 -0.108300572115386 -0.188797311905296 -0.022208683609426 -0.827900622936499 -0.341922472618851  0.022718392329079  0.232401592689427  0.164619669402136

                         9                 10                 11     
                      (  9)              ( 10)              ( 11)    

    0  (  0) -0.175684511601603  0.045513516298602  0.061672515006080
    1  (  1)  0.179323083833167 -0.221567937419786 -0.109140577543022
    2  (  2)  0.587827397093136 -0.616289532030193 -0.190305864672640
    3  (  3) -0.534590179358002 -0.689583787093839 -0.022209033963942
    4  (  4) -0.239000891867221 -0.249187499059157 -0.832603923332527
    5  (  5)  0.122010791877518  0.553620901013401 -0.348332351708050
    6  (  6) -0.352732495297565 -0.145056644635348  0.023781601660354
    7  (  7) -0.157242165562723  0.112854519200918  0.232190589319976
    8  (  8) -0.027709907045481 -0.086030263039170  0.172274707819854
    9  (  9)  0.207109600584589  0.096837430686223 -0.023218950236813
   10  ( 10)  0.100164655230671  0.138181178066476 -0.148224446144570
   11  ( 11) -0.022320179734203 -0.148849259998097  0.901205762410303

	DPD File2: Mu_YBAR_AE
	DPD Parameters:
	------------------
	pnum = 1   qnum = 1   irrep = 0 
	Irreps = 1

	   Row and column dimensions for DPD Block:
	   ----------------------------------------
	   Irrep: 0 row =    10	col =    10

	File 101 DPD File2: Mu_YBAR_AE
	Matrix for Irrep 0
	----------------------------------------

                         0                  1                  2                  3                  4                  5                  6                  7                  8     
                      (  0)              (  1)              (  2)              (  3)              (  4)              (  5)              (  6)              (  7)              (  8)    

    0  (  0) -0.179939828491769 -0.273263983919761 -0.077241939802207 -0.131310571537764 -0.452108955794121 -0.373710053222736  0.012756857043078  0.188686131296855 -0.281717657996437
    1  (  1) -0.271865636595074  0.080204205184229  0.237736668579935  0.053954037181141  0.088144371186311  0.094298665169508 -0.396703489007358 -0.164374392009126 -0.012743809563993
    2  (  2) -0.076549157175288  0.237611423410488 -0.235916884249811  0.330279805489172  0.156363656188217 -0.135525945480897  0.113532621668593 -0.192996543934043  0.505097349395040
    3  (  3) -0.133008481204441  0.051978470711429  0.330705317892875 -0.689079279022158  0.681025162416434  0.230126506813665  0.220012049909173 -0.221793013382862 -0.415574431905058
    4  (  4) -0.450299145657576  0.087908600365275  0.156309970041408  0.681002122520780 -1.360248251424318  0.202273753159192 -0.167570810051337  0.246051223487190  0.206738411458247
    5  (  5) -0.373567193155845  0.094555329734040 -0.136731584498100  0.229377893488984  0.202581599883435 -0.322498154757568 -0.226671631570763  0.408374954790996  0.307423751717641
    6  (  6)  0.013230492577454 -0.395220303624150  0.113830041131736  0.218897296842682 -0.167381205612527 -0.226319762003687 -0.422981172464967 -0.882122931150610  0.208582936748456
    7  (  7)  0.187587553988559 -0.164973338711578 -0.192266029819867 -0.222193739599766  0.245811643454060  0.408813624326959 -0.882511768104148 -0.161881530949274 -0.197931622292553
    8  (  8) -0.280045996340605 -0.013187886145669  0.507423753200987 -0.417462155137855  0.206022606034107  0.308302993473083  0.207495521066743 -0.198012373935716 -0.598880759668382
    9  (  9) -0.299128216307527  0.222289305708678 -0.374826664894612 -0.022250761597490  0.198104512558476 -0.291885255576850  0.011569749529353 -0.150670269953426  0.186378706038956

                         9     
                      (  9)    

    0  (  0) -0.301492091129213
    1  (  1)  0.222023461274417
    2  (  2) -0.373275862159688
    3  (  3) -0.022769731837422
    4  (  4)  0.197531018509810
    5  (  5) -0.291038388606400
    6  (  6)  0.011766677818707
    7  (  7) -0.150956367275849
    8  (  8)  0.186282415361357
    9  (  9) -0.408641391244209

	DPD File2: Mu_YBAR_IA
	DPD Parameters:
	------------------
	pnum = 0   qnum = 1   irrep = 0 
	Irreps = 1

	   Row and column dimensions for DPD Block:
	   ----------------------------------------
	   Irrep: 0 row =    12	col =    10

	File 101 DPD File2: Mu_YBAR_IA
	Matrix for Irrep 0
	----------------------------------------

                         0                  1                  2                  3                  4                  5                  6                  7                  8     
                      (  0)              (  1)              (  2)              (  3)              (  4)              (  5)              (  6)              (  7)              (  8)    

    0  (  0)  0.006541040222368 -0.029135588169222 -0.017330822595744  0.002628911660037 -0.012344009141809  0.034496132624923  0.021629830242309  0.010441885402291  0.025478364815458
    1  (  1) -0.038275138470075  0.054424566886903  0.005683589031010  0.001642391288003 -0.005493648653247  0.001124544236485 -0.102028934451313 -0.004961744404475 -0.019198498257850
    2  (  2)  0.053024456913342  0.083754722151204  0.014366999014575  0.045684709272444 -0.045425854355333 -0.015659092798954  0.035306515857362 -0.013688960188417  0.082596341754868
    3  (  3) -0.125696090540634  0.031717757592640 -0.000802365038104 -0.050871771309593  0.061705711345850 -0.045742890419344  0.045450419445688 -0.021064845035616 -0.054716959844684
    4  (  4) -0.016613018731749 -0.059371668786672 -0.003754167403423  0.095982620955076 -0.007240466240122  0.008043456529988  0.296808016923276 -0.015369394286441  0.136610478911713
    5  (  5) -0.093091489377706  0.398657588863068  0.074430182364354  0.149030211928108 -0.108745535372234 -0.256250392240536 -0.205814737045222  0.134201000957220 -0.055103512993348
    6  (  6)  0.103501697780443  0.185147067962843 -0.104829304475355 -0.273669393328239 -0.199802423052909  0.136710211986565  0.166053639619828  0.483268157942075 -0.135434527757446
    7  (  7) -0.041456689404135  0.416662529525886  0.296499443846860  0.151835770270295 -0.027648961071683 -0.196853254585748  0.346148931870815 -0.324194030503122 -0.108656389838073
    8  (  8) -0.069099920157317 -0.122455303618133  0.312946042218845 -0.115185983609626  0.104240832235501  0.145175805702234  0.095088539986730 -0.010672631592564 -0.187147060865154
    9  (  9) -0.712671855893174 -0.096350152389786 -0.234711067777686 -0.171596024164591  0.065322769896798  0.213466874289907  0.226529390715592  0.118201066093080  0.055528795004367
   10  ( 10)  0.365512212430565  0.443597144956858  0.088760713787529 -0.336294489487780  0.089380999156301  0.050585935158758 -0.112358935032342  0.122526344346197  0.011836823928278
   11  ( 11)  0.046393846223224  0.165011629057398 -0.228781961279396  0.178941949643574  0.063752947031584 -0.164789871590981  0.073726138142668  0.117333811839271  0.181371275992210

                         9     
                      (  9)    

    0  (  0)  0.026880621041360
    1  (  1) -0.000642066544117
    2  (  2)  0.075046583216661
    3  (  3)  0.030887223304929
    4  (  4) -0.027083357083367
    5  (  5) -0.161323349919549
    6  (  6) -0.260652499025702
    7  (  7) -0.019658118713907
    8  (  8)  0.093794795124770
    9  (  9)  0.110456626093643
   10  ( 10)  0.048798146100140
   11  ( 11) -0.097571556382824

	DPD File2: Mu_Z_IA
	DPD Parameters:
	------------------
	pnum = 0   qnum = 1   irrep = 0 
	Irreps = 1

	   Row and column dimensions for DPD Block:
	   ----------------------------------------
	   Irrep: 0 row =    12	col =    10

	File 101 DPD File2: Mu_Z_IA
	Matrix for Irrep 0
	----------------------------------------

                         0                  1                  2                  3                  4                  5                  6                  7                  8     
                      (  0)              (  1)              (  2)              (  3)              (  4)              (  5)              (  6)              (  7)              (  8)    

    0  (  0) -0.001432746297450 -0.032810674091764 -0.033331937480253  0.023032547083763 -0.002808019310921 -0.039246266926320  0.018692018505171  0.008842597191367 -0.029091078569617
    1  (  1) -0.008821922403183 -0.001742272088788  0.082771016704519 -0.022297486221974  0.039163604166239 -0.010818853488427 -0.047294425339584  0.013135326021221  0.049034393857867
    2  (  2)  0.024274942916815  0.027096978669207  0.097516386902391 -0.041392368694666 -0.004119390757880  0.075691552303805 -0.023677742397495 -0.003953261558318 -0.122163189427397
    3  (  3) -0.047038460283817 -0.039422636027069  0.017791086341758  0.115660160117630 -0.067224158887899  0.095036576800958  0.032022129167533  0.022732157345389  0.120912741709036
    4  (  4) -0.041035802352368  0.001934742020068 -0.201409668003493 -0.406246991276172  0.228435905047063 -0.366034413601436  0.036563318346743 -0.036692328708082 -0.082010843429842
    5  (  5)  0.098338733570095  0.243746073973362  0.282884501181602 -0.425804208023662  0.108408993563040  0.505586602390370  0.102717653176241 -0.183779423720787  0.023433267817945
    6  (  6)  0.135336854760563 -0.062874421564495  0.076338309095403 -0.023002937162434 -0.130902824611473 -0.185164583438217  0.398907643233867  0.217551510448046 -0.032105677017803
    7  (  7) -0.035062191357078 -0.113858796831119  0.431604299875852 -0.029482805357536 -0.029652466640804 -0.242847719350325 -0.077765311277989  0.367073496056810  0.139022006906444
    8  (  8) -0.068272847454715  0.294672021175633 -0.568959581650588 -0.125921031197012 -0.707592810771387  0.017806583156209 -0.015845746565047 -0.212947645825718  0.125196335187716
    9  (  9) -0.288858276698774  0.093713692739213  0.209035012311688  0.075382622510660  0.083405488851542  0.016184965058288  0.000548295704545  0.266294088315547  0.380874642506837
   10  ( 10) -0.378738518488000  0.204837316203508 -0.069415360994347  0.062065163074324  0.029622876137723 -0.058750752587050 -0.120574645247794  0.008130897374692  0.009265965929469
   11  ( 11) -0.080018520143771  0.225808316863723 -0.312311376663230 -0.316597637367698  0.125757542829493 -0.146130016020174  0.016179298260010 -0.136308703902615 -0.120756904157899

                         9     
                      (  9)    

    0  (  0) -0.036093305578397
    1  (  1) -0.001707679185378
    2  (  2)  0.005295607540268
    3  (  3) -0.304573937377439
    4  (  4) -0.014287077020118
    5  (  5) -0.068885443054321
    6  (  6)  0.111979958895137
    7  (  7)  0.321243115116497
    8  (  8)  0.158205355334404
    9  (  9) -0.080091690471286
   10  ( 10) -0.065074315967804
   11  ( 11)  0.075517488980888

	DPD File2: Mu_ZBAR_MI
	DPD Parameters:
	------------------
	pnum = 0   qnum = 0   irrep = 0 
	Irreps = 1

	   Row and column dimensions for DPD Block:
	   ----------------------------------------
	   Irrep: 0 row =    12	col =    12

	File 101 DPD File2: Mu_ZBAR_MI
	Matrix for Irrep 0
	----------------------------------------

                         0                  1                  2                  3                  4                  5                  6                  7                  8     
                      (  0)              (  1)              (  2)              (  3)              (  4)              (  5)              (  6)              (  7)              (  8)    

    0  (  0)  0.151581395944457 -0.159877768539019 -0.191397517423370 -0.495232284867177  0.365561840480614  0.240680277087037 -0.079714342464060 -0.017889526464511  0.054577038131019
    1  (  1) -0.159795957250344 -0.047735218799445 -0.125025973520529 -0.592230248738643  0.329204795623399 -0.563899565056737  0.474518384859258  0.371816427010336 -0.204007450193307
    2  (  2) -0.191333337555164 -0.125299228178318  0.032743525999057 -0.248173196102997  0.424015573762028  0.373304795371779 -0.124367805075759 -0.383343230710404 -0.176623528718579
    3  (  3) -0.494849488362154 -0.592714843248357 -0.248959287226432 -0.423717062956694  0.236470791317215 -0.415768039926139 -0.007927078894393 -0.295339114007336  1.138817517977087
    4  (  4)  0.365842786381904  0.329912791129377  0.425309312530905  0.236284335454773 -0.297797609245548  0.287162197148014 -0.015195390583447  0.149575460395682 -0.352881082019632
    5  (  5)  0.239666720470004 -0.562521840762128  0.375748994888085 -0.414021321385147  0.283842862620087  0.299376587010529 -0.122721640145877 -0.329969308300871  0.156494792176823
    6  (  6) -0.079132044596257  0.473605179791134 -0.125255855635513 -0.008774504854422 -0.015965010341322 -0.123144104694353 -0.040262615853229  0.053291869268360 -0.230047243580867
    7  (  7) -0.018210362041773  0.371975596266125 -0.382949144540519 -0.295062546320220  0.147969605902060 -0.330844143538271  0.053247875304319  0.437054225002062 -0.295575334707162
    8  (  8)  0.054384972764257 -0.203042333758326 -0.176317356102570  1.137981680675850 -0.349930528471567  0.158219435758802 -0.229361079354617 -0.295174183029699 -0.201170965133917
    9  (  9)  0.162593186917498 -0.096068090323904 -0.131721885594255 -0.537260876669133  0.048165192812382 -0.386108653062500  0.083321052788424  0.067822247358744  0.259623842469249
   10  ( 10)  0.093086276325347 -0.110390627511003 -0.528311347000350  0.014888006239538 -0.100997055269664  0.192126958830561  0.038787614394956  0.063975054988451  0.077127488930246
   11  ( 11) -0.248608674285678  0.166558436146830  0.438779225583925  0.334557445644043 -0.324782623645273  0.179928478753780  0.012126762707773  0.006418605871888 -0.316369462085207

                         9                 10                 11     
                      (  9)              ( 10)              ( 11)    

    0  (  0)  0.163245257155421  0.094276717552644 -0.249582936616881
    1  (  1) -0.097089753942058 -0.112180528774260  0.167323530234027
    2  (  2) -0.131901378869784 -0.530116652654623  0.440616284282449
    3  (  3) -0.539218683643804  0.014310072965047  0.335266942696954
    4  (  4)  0.048635984706568 -0.103433325040069 -0.331331261588337
    5  (  5) -0.385516013729792  0.187104305011894  0.193398800890046
    6  (  6)  0.082991815026247  0.037352860323020  0.011014682786961
    7  (  7)  0.067841455828072  0.062642922337485  0.014204699225385
    8  (  8)  0.258473930207162  0.077886035701004 -0.325054438919389
    9  (  9)  0.001773142889432 -0.053105768300802  0.034600115019000
   10  ( 10) -0.053689547832438 -0.018246255837546 -0.196162567936867
   11  ( 11)  0.031756575503292 -0.193298510202671  0.164652237069869

	DPD File2: Mu_ZBAR_AE
	DPD Parameters:
	------------------
	pnum = 1   qnum = 1   irrep = 0 
	Irreps = 1

	   Row and column dimensions for DPD Block:
	   ----------------------------------------
	   Irrep: 0 row =    10	col =    10

	File 101 DPD File2: Mu_ZBAR_AE
	Matrix for Irrep 0
	----------------------------------------

                         0                  1                  2                  3                  4                  5                  6                  7                  8     
                      (  0)              (  1)              (  2)              (  3)              (  4)              (  5)              (  6)              (  7)              (  8)    

    0  (  0) -0.236069150423928  0.221583137218639  0.087467481976269 -0.023767225350154 -0.157884977853517 -0.128673956390029 -0.176595879969474  0.001131012317203 -0.181143452404233
    1  (  1)  0.220430431059073  0.112052435313968  0.015869249151473  0.264485428778921 -0.165982030219470  0.159260926468858 -0.018854654828287 -0.249502649443057  0.052130725228418
    2  (  2)  0.087694752982164  0.015013031218300 -0.683310722703039 -0.454889777527338  0.270539149606414 -0.876133156261866  0.064372104092668  0.069959767509230 -0.359585122327188
    3  (  3) -0.022349867884997  0.265917774305981 -0.459885376820098  0.156118351029157 -0.442698949429053 -0.633164352365545 -0.123599096035318 -0.000681276488754  0.329408685832541
    4  (  4) -0.157925484616889 -0.166044552973515  0.271218387113143 -0.443885849212600 -0.013362398764761 -0.176284165832649 -0.004716950323026  0.078109759941717 -0.609000288591445
    5  (  5) -0.127616278770967  0.158011849801079 -0.876037618276795 -0.629854882079848 -0.177186230678137  0.012211398531521  0.059425698366986 -0.774979266274861 -0.486618182967767
    6  (  6) -0.178241606252947 -0.017090192450387  0.064522373941146 -0.124240074207901 -0.004293285267873  0.059087683211698 -0.104000927528902 -0.330829052901522 -0.038045687603335
    7  (  7)  0.002208432976113 -0.248689840257510  0.068573896371648  0.000014323070255  0.078530114044465 -0.775881123063332 -0.330687300606162  0.375687386105441  0.140607455827148
    8  (  8) -0.178615853440425  0.052090468900394 -0.360562489485138  0.330978975217506 -0.607342070790934 -0.487347100955227 -0.037705399031252  0.140808054960246 -0.394251292282697
    9  (  9) -0.046812023124734 -0.356025366669854  0.690811815119252  0.312933605279832  0.666333150435849  0.222468929331266  0.069111321865738  0.559435147572457  0.132671563084754

                         9     
                      (  9)    

    0  (  0) -0.045842278134109
    1  (  1) -0.355929482932053
    2  (  2)  0.690401613030498
    3  (  3)  0.314450068453419
    4  (  4)  0.667992312261241
    5  (  5)  0.221641972273241
    6  (  6)  0.069286377187356
    7  (  7)  0.560338391968248
    8  (  8)  0.132249466359632
    9  (  9) -0.305201514350595

	DPD File2: Mu_ZBAR_IA
	DPD Parameters:
	------------------
	pnum = 0   qnum = 1   irrep = 0 
	Irreps = 1

	   Row and column dimensions for DPD Block:
	   ----------------------------------------
	   Irrep: 0 row =    12	col =    10

	File 101 DPD File2: Mu_ZBAR_IA
	Matrix for Irrep 0
	----------------------------------------

                         0                  1                  2                  3                  4                  5                  6                  7                  8     
                      (  0)              (  1)              (  2)              (  3)              (  4)              (  5)              (  6)              (  7)              (  8)    

    0  (  0) -0.003531322887475 -0.011853964282953 -0.013997173425702  0.018382792154192  0.000899996441170 -0.027829789222902  0.010946278656521  0.009416135608630 -0.023987807904262
    1  (  1) -0.006388621957170 -0.005171201061298  0.075116414644925 -0.012351518893597  0.041297277094542 -0.006441657661851 -0.042094675941536  0.014500044658877  0.045272474380981
    2  (  2)  0.036883171135873  0.025743377437805  0.085964964522995 -0.036572128405842  0.000741779132517  0.071901849285639 -0.017612259522947 -0.002857549793791 -0.114428225581804
    3  (  3) -0.050379148878904 -0.038280516537017  0.018275237269774  0.118578575241743 -0.057964689431887  0.100743381549064  0.031817975653707  0.026538904209037  0.119963525599056
    4  (  4) -0.040259568572502  0.011229705198348 -0.188809172609568 -0.380757486353216  0.215445879830049 -0.344569392827444  0.033187603168238 -0.033507608911701 -0.079582925346094
    5  (  5)  0.087141198545524  0.216785041786672  0.270610048744647 -0.398997177058604  0.102170025016676  0.478625848854116  0.098949415070036 -0.170373600936987  0.015652914812384
    6  (  6)  0.115394650619668 -0.055172374414511  0.068645251662214 -0.021005537436634 -0.120222938768552 -0.172201054646963  0.377862520931175  0.205771786365183 -0.028486300590321
    7  (  7) -0.040171141537119 -0.121048023653740  0.403132598347777 -0.027760474590503 -0.026374510769541 -0.228317794220799 -0.070878790612320  0.346601006753617  0.129893637962627
    8  (  8) -0.063034884678852  0.280866798080653 -0.540496031356204 -0.119391576371009 -0.673073389093966  0.010663808807394 -0.016147690801371 -0.200745867995305  0.117394935881043
    9  (  9) -0.239823863619059  0.087614347419962  0.205995256328994  0.074059708937832  0.068748575207548 -0.000454096504958  0.003028317523563  0.249475422318809  0.352711368821821
   10  ( 10) -0.336588165834448  0.173514331887659 -0.070029614207528  0.058791676167547  0.024501304819872 -0.052124336325614 -0.104213155529188  0.008639636736157  0.013496509549194
   11  ( 11) -0.070036515714458  0.195530601320237 -0.305644951639726 -0.322831866596268  0.121530762471617 -0.141977993846978  0.021998928318675 -0.134440837975978 -0.127122644721006

                         9     
                      (  9)    

    0  (  0) -0.030353030422789
    1  (  1) -0.003358262791905
    2  (  2)  0.006176160600104
    3  (  3) -0.295046081788652
    4  (  4) -0.003816440522472
    5  (  5) -0.074325961201587
    6  (  6)  0.109014636987132
    7  (  7)  0.303731536940852
    8  (  8)  0.152250258689580
    9  (  9) -0.089511140585649
   10  ( 10) -0.060789805292351
   11  ( 11)  0.082293619260989

	DPD File2: L_X_IA
	DPD Parameters:
	------------------
	pnum = 0   qnum = 1   irrep = 0 
	Irreps = 1

	   Row and column dimensions for DPD Block:
	   ----------------------------------------
	   Irrep: 0 row =    12	col =    10

	File 101 DPD File2: L_X_IA
	Matrix for Irrep 0
	----------------------------------------

                         0                  1                  2                  3                  4                  5                  6                  7                  8     
                      (  0)              (  1)              (  2)              (  3)              (  4)              (  5)              (  6)              (  7)              (  8)    

    0  (  0)  0.057770723551805  0.007686176362995 -0.037676874102239  0.021875314889184 -0.005506967440553 -0.033731453254856  0.019605915987929  0.000153810358456  0.020480209762043
    1  (  1) -0.007936092328855  0.008454757012618  0.010966637507272 -0.001712970012603 -0.003491085971866  0.000515536715359  0.020166951580993 -0.003537118918414 -0.007401819292438
    2  (  2) -0.004823273660701 -0.024918096949402 -0.013456316532648  0.018061040723257  0.007928867774181 -0.029348077247204 -0.008305651855965  0.003787093111853  0.048173394734837
    3  (  3) -0.011675775125104  0.107663431050362  0.048399528007616 -0.036525102270435  0.040730641356466 -0.022154401905676 -0.022459222262206 -0.014732815012435 -0.056193647103106
    4  (  4)  0.087218313447135 -0.162702625594382 -0.040016358931151  0.090893257640902 -0.161526551014906  0.070532962320029  0.041494660476799  0.036307465283525  0.053954994619678
    5  (  5) -0.299080380154522 -0.047071149143854 -0.050599107356677  0.086076035660096 -0.105747613370625  0.016291716828988  0.035370479977499  0.024570880182810  0.019740472062472
    6  (  6)  0.064660820062842  0.041897488689090 -0.115036198620178  0.009494466980017  0.021741244197439  0.082050622741463 -0.041036304002792 -0.093842813724870 -0.099009311380003
    7  (  7) -0.041406109005398 -0.013292096025031  0.015299070066933 -0.090658889471223  0.096664535474361  0.020138730803122 -0.181635797654581 -0.008096043748855 -0.043219320460348
    8  (  8)  0.213166983290885  0.019961961605909  0.071163032757987 -0.089566388255459  0.187567657300030 -0.059322694628756  0.181371262434162 -0.031805535782928 -0.037438192749058
    9  (  9) -0.029081682004423  0.052377114086944 -0.016598919354525  0.054121123864817 -0.005943121322964  0.052845962329270 -0.099913404453613 -0.011257505074012  0.046946017590445
   10  ( 10) -0.029775807936917 -0.011144658296549  0.123616713069900 -0.069048925266029  0.072425392135727  0.175724644218768  0.020473761865880 -0.027329304597195  0.030635509122054
   11  ( 11)  0.065686621670288  0.046175058814983  0.054739230530016  0.067089838730126 -0.085213076503212  0.033327993779702  0.039100303871838  0.006432393458887  0.004793440843030

                         9     
                      (  9)    

    0  (  0) -0.007846989553355
    1  (  1) -0.003599492488651
    2  (  2) -0.050462951485827
    3  (  3)  0.025590884562196
    4  (  4)  0.058023095683205
    5  (  5)  0.032774222915836
    6  (  6) -0.063967275967677
    7  (  7) -0.008682341559207
    8  (  8) -0.054096899442108
    9  (  9) -0.060114344610370
   10  ( 10) -0.027778486812577
   11  ( 11)  0.026791075407401

	DPD File2: L_XBAR_MI
	DPD Parameters:
	------------------
	pnum = 0   qnum = 0   irrep = 0 
	Irreps = 1

	   Row and column dimensions for DPD Block:
	   ----------------------------------------
	   Irrep: 0 row =    12	col =    12

	File 101 DPD File2: L_XBAR_MI
	Matrix for Irrep 0
	----------------------------------------

                         0                  1                  2                  3                  4                  5                  6                  7                  8     
                      (  0)              (  1)              (  2)              (  3)              (  4)              (  5)              (  6)              (  7)              (  8)    

    0  (  0)  0.000027040423887 -0.011060683872803 -0.004793456647899 -0.073481718860181  0.071504628495016  0.043329380984548 -0.025554578097106 -0.020981780177699  0.009741644195740
    1  (  1)  0.011009750762997  0.000007607240151 -0.023558132508086  0.077101510719000 -0.072464798814331 -0.012890143420536  0.005683277430906  0.006920173400283 -0.002574145843753
    2  (  2)  0.004842956248702  0.023538681455719 -0.000165226839542  0.207870652255993 -0.210753100259611 -0.104860036207310  0.066732822825146  0.046426833468215  0.005606364639263
    3  (  3)  0.072846425542822 -0.076633967419021 -0.207131819599136  0.000363002499158  0.003747206858118  0.078444561827851  0.135702906183535 -0.013002670417717 -0.066080178603036
    4  (  4) -0.070600283658190  0.071629978927021  0.209426851727876 -0.004131403945752 -0.000622007773293 -0.030404083775686 -0.072573499649568  0.005804369418180 -0.017256603820917
    5  (  5) -0.042938103533211  0.012767138266668  0.104089521411634 -0.078509088982138  0.031589837534126  0.000702189622727  0.234416668036359  0.006073164073880  0.085676616502380
    6  (  6)  0.025301081140471 -0.005670371975564 -0.066621493148361 -0.135369815380962  0.072186642283625 -0.233429156027521 -0.000193153533248  0.257186865053465 -0.080618496507255
    7  (  7)  0.020822354558258 -0.006724508724119 -0.045993762455479  0.012965367547761 -0.005443358605263 -0.006173477804865 -0.257050229473736 -0.000107746294773  0.140355654948263
    8  (  8) -0.009433315806276  0.002386871891496 -0.004905034102302  0.065444732417879  0.016877777772437 -0.086229493149666  0.079936884810997 -0.140925849197376  0.000032973152365
    9  (  9) -0.050122316171813  0.043792237275169  0.089139695085719  0.017498120874682  0.031599257819379  0.003933044438540  0.023956851013655 -0.023591093022906 -0.231355322027963
   10  ( 10) -0.021733936110572  0.028861084661254  0.012680330783905  0.120427356784394 -0.061995107162282 -0.110107780731446 -0.044522956915282 -0.044154909833586 -0.092344585382497
   11  ( 11)  0.054009861310889 -0.049060128861341 -0.116101359422429 -0.043743279836749 -0.090347856826429  0.186254068915307 -0.010091097621831  0.182439821622372 -0.003662369325971

                         9                 10                 11     
                      (  9)              ( 10)              ( 11)    

    0  (  0)  0.050351452990167  0.022080091821478 -0.055614920128739
    1  (  1) -0.043523152379598 -0.028913570586242  0.049281187081852
    2  (  2) -0.088800989050704 -0.012387284429283  0.115844546053497
    3  (  3) -0.017174780224652 -0.120766108673226  0.043936127494914
    4  (  4) -0.030870076304731  0.062251132422338  0.090680792727787
    5  (  5) -0.006295822004517  0.109602420736026 -0.187179028172583
    6  (  6) -0.023342165877015  0.045357751936196  0.008109043414047
    7  (  7)  0.023116687534610  0.043892116907456 -0.180954962224114
    8  (  8)  0.233341712412303  0.091442003006516  0.004136900096905
    9  (  9) -0.000301754743843 -0.311200434843549  0.071746006250031
   10  ( 10)  0.310579381122594 -0.001146128096000 -0.337175845358798
   11  ( 11) -0.071759110731455  0.341710402101474  0.000514995746851

	DPD File2: L_XBAR_AE
	DPD Parameters:
	------------------
	pnum = 1   qnum = 1   irrep = 0 
	Irreps = 1

	   Row and column dimensions for DPD Block:
	   ----------------------------------------
	   Irrep: 0 row =    10	col =    10

	File 101 DPD File2: L_XBAR_AE
	Matrix for Irrep 0
	----------------------------------------

                         0                  1                  2                  3                  4                  5                  6                  7                  8     
                      (  0)              (  1)              (  2)              (  3)              (  4)              (  5)              (  6)              (  7)              (  8)    

    0  (  0)  0.000373475564698 -0.036374284715410  0.020675408038120  0.041938611278043 -0.014954064130636  0.008670693741941  0.001941666498966 -0.002175213653671  0.081223953533966
    1  (  1)  0.035409311090430  0.000583412494499 -0.021912114995751 -0.019686191919175 -0.001337756516393  0.101410043872272  0.013539530463413  0.021085032009130  0.104140442794578
    2  (  2) -0.022476650279619  0.020869170321065 -0.000623148668542 -0.026925059222749  0.022600045203783  0.054500059821995  0.019747085432266  0.002197258536137  0.059803959084815
    3  (  3) -0.040527884961938  0.020785023904239  0.026269813130118  0.000471315833621 -0.011435927824319 -0.005094359128676 -0.021078069661848  0.001900689912103 -0.049285996887456
    4  (  4)  0.014876995236008  0.001935832477363 -0.021280417512247  0.011112950356736 -0.000010954074914  0.001375736589678  0.021071346294591 -0.002540388393255  0.057176443725449
    5  (  5) -0.009413911140341 -0.101590521816804 -0.054440250203052  0.004479146413684 -0.000983185589705 -0.000044886603863 -0.008942266041566  0.007734744988056  0.012623227871857
    6  (  6) -0.001228199632690 -0.013460754514196 -0.019370737847276  0.021147815413154 -0.021180440912387  0.009078596190780  0.000060187992369 -0.021757615671251 -0.021546696625458
    7  (  7)  0.002386621109668 -0.020697715049428 -0.002142304032572 -0.001889845237358  0.002502377714011 -0.007891184567460  0.021671667697211 -0.000014467640044 -0.019485620614445
    8  (  8) -0.082726042327291 -0.104120679625015 -0.059410287861643  0.049170685661379 -0.057558349352742 -0.011952514103015  0.021313492463386  0.019559674827960  0.000280085719614
    9  (  9)  0.081272328726009 -0.110754135563007 -0.028218762900775 -0.005318083145326  0.020981856638396  0.014567561104212  0.097856532501808  0.003185861516469  0.003396420233766

                         9     
                      (  9)    

    0  (  0) -0.080531031337273
    1  (  1)  0.111220099551316
    2  (  2)  0.028332370195928
    3  (  3)  0.005372945270244
    4  (  4) -0.020768901638641
    5  (  5) -0.014982546342664
    6  (  6) -0.097582479807565
    7  (  7) -0.003277826561639
    8  (  8) -0.003260780284830
    9  (  9) -0.000186812021876

	DPD File2: L_XBAR_IA
	DPD Parameters:
	------------------
	pnum = 0   qnum = 1   irrep = 0 
	Irreps = 1

	   Row and column dimensions for DPD Block:
	   ----------------------------------------
	   Irrep: 0 row =    12	col =    10

	File 101 DPD File2: L_XBAR_IA
	Matrix for Irrep 0
	----------------------------------------

                         0                  1                  2                  3                  4                  5                  6                  7                  8     
                      (  0)              (  1)              (  2)              (  3)              (  4)              (  5)              (  6)              (  7)              (  8)    

    0  (  0) -0.055078142867828 -0.005804719299681  0.036780646353647 -0.020745008939831  0.005631321838333  0.032388434299089 -0.019554696167851 -0.000026315290494 -0.020764618651157
    1  (  1)  0.007062764870854 -0.009531925050962 -0.009339128991500  0.000585332198702  0.003536715157378  0.000717716084393 -0.020997702694190  0.003197609406412  0.007543205569196
    2  (  2)  0.003273721829615  0.024127785783056  0.019803917766004 -0.021792459075320 -0.009225997435944  0.033280936086821  0.008357612389432 -0.004534634518823 -0.049752671423908
    3  (  3)  0.009467819748219 -0.109846311430058 -0.049077069582499  0.038067479834844 -0.041344367688361  0.023164856965512  0.023494777837550  0.015492414054440  0.057415728354703
    4  (  4) -0.087998530211411  0.166680738017738  0.040492236619192 -0.094854089537164  0.166732509395464 -0.071703004448668 -0.042087550249065 -0.037122017300705 -0.054342710801435
    5  (  5)  0.299229806278301  0.048658757713325  0.047129705842446 -0.086908947365866  0.109728878663932 -0.016789363568018 -0.035383410684614 -0.025335321764417 -0.020816334753998
    6  (  6) -0.066809370303780 -0.045194542515417  0.116536125053039 -0.010429907504714 -0.024187359392906 -0.082665971873618  0.044425337546003  0.096427706292236  0.099634759729367
    7  (  7)  0.040692585686945  0.010414403444448 -0.019197392244389  0.094603783326762 -0.099044517012418 -0.021567521501408  0.184530946067710  0.010140666068000  0.044429992698867
    8  (  8) -0.213871489773344 -0.016533777636027 -0.072796199007045  0.091991735348903 -0.195396773842710  0.059284334625803 -0.184339397290396  0.031894612373968  0.038856272349111
    9  (  9)  0.030682243044227 -0.041775517875249  0.024602057980135 -0.057287290343526  0.006772740334119 -0.055735826221076  0.097648839100779  0.011580457295414 -0.048271645082472
   10  ( 10)  0.033182564179255  0.014791814568441 -0.134627953730393  0.074303509883212 -0.072048570540947 -0.178297714606306 -0.018972497943516  0.029382172234938 -0.026191954922422
   11  ( 11) -0.065304385216644 -0.054065687922946 -0.058978656197155 -0.069527138693935  0.087278294466894 -0.031923025189413 -0.037244505404452 -0.006712268565440 -0.005721877407454

                         9     
                      (  9)    

    0  (  0)  0.007990021156235
    1  (  1)  0.003543862611170
    2  (  2)  0.051263654644270
    3  (  3) -0.026303130686066
    4  (  4) -0.059400171065937
    5  (  5) -0.033889468632128
    6  (  6)  0.063573026890197
    7  (  7)  0.010425863419296
    8  (  8)  0.056178737365981
    9  (  9)  0.060112542127891
   10  ( 10)  0.033303474011037
   11  ( 11) -0.026602109435667

	DPD File2: L_Y_IA
	DPD Parameters:
	------------------
	pnum = 0   qnum = 1   irrep = 0 
	Irreps = 1

	   Row and column dimensions for DPD Block:
	   ----------------------------------------
	   Irrep: 0 row =    12	col =    10

	File 101 DPD File2: L_Y_IA
	Matrix for Irrep 0
	----------------------------------------

                         0                  1                  2                  3                  4                  5                  6                  7                  8     
                      (  0)              (  1)              (  2)              (  3)              (  4)              (  5)              (  6)              (  7)              (  8)    

    0  (  0)  0.023607177491195  0.019696611969885  0.037221212000385 -0.015590319696057  0.002020189842990  0.021016653547429 -0.007873916136755  0.003448340610807  0.079821954504390
    1  (  1) -0.007327805297828 -0.018867534486269  0.042212469078496 -0.001447360534353  0.028939866752754 -0.077938653083341 -0.061948383376365  0.004945505795557  0.075894556663474
    2  (  2) -0.009007071740861 -0.016177005802987 -0.068312932673240  0.041184857036759  0.003023256838844 -0.009849571097863  0.004290386808972  0.004340519661127  0.085840789796801
    3  (  3)  0.026077185963910  0.012520558385893  0.023360353465929 -0.029787599349062  0.027312833784239  0.081100062029021  0.033406666012159 -0.054430078300136 -0.042036783131155
    4  (  4)  0.044521029970710  0.101548028530885  0.092152577419686 -0.036969661342643 -0.235975964790827 -0.022489800485005 -0.018037809327809  0.163273258200919  0.255997686637622
    5  (  5) -0.075082806179399  0.059495559215694 -0.178951166772656  0.134634824114366 -0.237022622504406  0.054772185517501  0.024504277147484 -0.150049663229407  0.003365655895118
    6  (  6) -0.075564373604390  0.030719217759732  0.086498148733354 -0.160325933966896  0.064234285643905 -0.161900908445555  0.266146706738358  0.238096934941697  0.054011663901563
    7  (  7) -0.117049393955643 -0.184359827232724  0.154835473828309 -0.196676571259727  0.209716028817009 -0.429620861048445 -0.096138950091600  0.371356959007903  0.058084061024513
    8  (  8) -0.116322044765828  0.134673176933366 -0.115490121530453 -0.372419146214479  0.134366059259054  0.090977060566167 -0.047847126119104 -0.349531731511066  0.026343643532612
    9  (  9)  0.016166361653787 -0.064655468388956  0.096603309196917 -0.102141195994536 -0.004689543577322 -0.174053614560893  0.096535422651742  0.179574162178272 -0.093140031286430
   10  ( 10)  0.038118657992317 -0.011712936317703 -0.109233641260348  0.041948680427994  0.067033240911419  0.043789144467457  0.119198984082488  0.019961916251994  0.046236232124822
   11  ( 11)  0.202537936665755  0.041865413038804 -0.001109842658197 -0.036047997932446 -0.209039172907281 -0.039634162843452  0.042796449278664 -0.037154632643052  0.094709860395635

                         9     
                      (  9)    

[...]
    7  (  7)  0.127376470092273
    8  (  8) -0.036832911731868
    9  (  9)  0.106598068979743
   10  ( 10) -0.058544237541584
   11  ( 11)  0.029477471817291

	DPD File2: L*_Z_IA
	DPD Parameters:
	------------------
	pnum = 0   qnum = 1   irrep = 0 
	Irreps = 1

	   Row and column dimensions for DPD Block:
	   ----------------------------------------
	   Irrep: 0 row =    12	col =    10

	File 101 DPD File2: L*_Z_IA
	Matrix for Irrep 0
	----------------------------------------

                         0                  1                  2                  3                  4                  5                  6                  7                  8     
                      (  0)              (  1)              (  2)              (  3)              (  4)              (  5)              (  6)              (  7)              (  8)    

    0  (  0)  0.089840465204225  0.055253525883540  0.050839656601929 -0.011592120168853 -0.028453073767485 -0.033272498563027 -0.013123122183092 -0.010376152774617 -0.046773274930095
    1  (  1) -0.019180458750845  0.004406050242553 -0.021028155566967 -0.011538680320289  0.014109247012132  0.033202867729220 -0.146724711919951  0.006291497986158 -0.032816512639240
    2  (  2) -0.008004935891454 -0.083588166091295  0.024500417662889  0.004976479402859  0.015361678869856 -0.027030028650554  0.075999531355577 -0.040388417899799 -0.092155828534757
    3  (  3)  0.072751395760345  0.101339872261880  0.027554632505315  0.017104143799594 -0.009883810143648 -0.054325029446985  0.038424568195001  0.007564948769101  0.050859249479548
    4  (  4)  0.116869612062058  0.168448689602172  0.076045170807919 -0.039076911238534  0.141061895780680 -0.082089594379007  0.096305838370831 -0.090937592520626 -0.089867596085833
    5  (  5) -0.362411548066203 -0.116301468610581 -0.067304641586918 -0.178833394354847  0.120526935264372  0.077690766748935 -0.087853646530869  0.131583743921650 -0.005449987066682
    6  (  6) -0.023022243577310  0.091878291587840 -0.168295716396468 -0.360782087280141 -0.197772285105134  0.118427120672179  0.100301554555422  0.545992767837121 -0.002274268616602
    7  (  7) -0.332469089310140 -0.094037896803367 -0.021326282942452  0.202588446745432  0.003095262967230  0.074773576198707  0.261809753005545 -0.312310926113466  0.101271338039676
    8  (  8) -0.102262443511968 -0.018323432973791  0.030286707735275  0.141132962784100 -0.140087132441384 -0.016144892573022 -0.105178803101546  0.077042517784067  0.061204405030880
    9  (  9)  0.062921845500970  0.223934495766079  0.055471945329417  0.006791304491310 -0.142947280894142 -0.007991932919943  0.047858230706461  0.145718178913241 -0.072195393114585
   10  ( 10) -0.062281498028430 -0.059385022217194 -0.196384149116451 -0.042900612771916  0.059951865879116  0.109494756681462  0.025377610533051  0.255425379720525 -0.006903138405362
   11  ( 11) -0.109893814765672 -0.036299338598219 -0.008950289795172 -0.103979082032925  0.089663281746559  0.076642658317109  0.017386558594104  0.075203103677764 -0.110232824290932

                         9     
                      (  9)    

    0  (  0) -0.015115955084904
    1  (  1) -0.030649150844450
    2  (  2)  0.004117081641871
    3  (  3)  0.011275331966881
    4  (  4) -0.082379096749867
    5  (  5) -0.010925397739678
    6  (  6) -0.209001724905895
    7  (  7)  0.094421017044117
    8  (  8)  0.009881568354141
    9  (  9) -0.113416879853688
   10  ( 10) -0.045856944277529
   11  ( 11)  0.007202279712064

	DPD File2: L*_ZBAR_MI
	DPD Parameters:
	------------------
	pnum = 0   qnum = 0   irrep = 0 
	Irreps = 1

	   Row and column dimensions for DPD Block:
	   ----------------------------------------
	   Irrep: 0 row =    12	col =    12

	File 101 DPD File2: L*_ZBAR_MI
	Matrix for Irrep 0
	----------------------------------------

                         0                  1                  2                  3                  4                  5                  6                  7                  8     
                      (  0)              (  1)              (  2)              (  3)              (  4)              (  5)              (  6)              (  7)              (  8)    

    0  (  0) -0.000220708940429  0.002285125103983  0.191707004311250 -0.079176547202062 -0.015343724284655 -0.090762856917070 -0.035966370439669 -0.080228715251931  0.022632088832219
    1  (  1) -0.002270884902228  0.000127565392507 -0.181504505051190  0.084301622984598 -0.019134286473150  0.136527597935967  0.291828838790707 -0.086935165867290 -0.003153353795357
    2  (  2) -0.190790178739451  0.181286631653937 -0.000456958950263  0.098736144982791  0.201937120878681  0.060858985812145 -0.102547416191644  0.128157455079926 -0.052263022287278
    3  (  3)  0.078674978461285 -0.083802623610643 -0.098399673810258 -0.000007811365746 -0.051373438075815 -0.073262818066183 -0.213681674768555  0.159362252554929  0.021801220424175
    4  (  4)  0.014664072597960  0.019624839214450 -0.200908806156840  0.051706138267892  0.000345872163641 -0.060049554881332 -0.188299165959522  0.122222075869351  0.002767654097179
    5  (  5)  0.090883158144736 -0.136634126073923 -0.061672946710902  0.074085610649007  0.059059222367226 -0.000127348357414 -0.089421360456473  0.068061409120582 -0.127845689145142
    6  (  6)  0.036070137194869 -0.291478881075219  0.101913218910275  0.213840026067922  0.188217301311726  0.090313292624869  0.000227988253159  0.211121150654972  0.048790729392591
    7  (  7)  0.080292928774450  0.086502244153537 -0.129683189759572 -0.159077086898913 -0.122727489493275 -0.066634459735053 -0.210168861536432  0.000749252129634 -0.114771568876213
    8  (  8) -0.022833189301314  0.003149552694449  0.051809982276026 -0.021432628906503 -0.002600755913054  0.127892598520278 -0.048118709288206  0.114794510187460  0.000092800261922
    9  (  9) -0.153861672366712  0.063959309581427  0.276686698038017  0.018129236980868  0.051934404023196  0.023341508326279  0.078386885605064  0.038564733458116  0.117925763161383
   10  ( 10)  0.030779230036139 -0.047764824598951 -0.139550834348758  0.058848096986720  0.072156858928456  0.071321440087986 -0.120905085647966  0.006516751215124  0.144681807612295
   11  ( 11) -0.005585664265456  0.000647324323586  0.016353426872082  0.045937924242292  0.003353711579607 -0.138994412824604 -0.062414171800322 -0.018128246119697  0.112476761917092

                         9                 10                 11     
                      (  9)              ( 10)              ( 11)    

    0  (  0)  0.154066232086317 -0.030728257975556  0.006318091498164
    1  (  1) -0.063643818147584  0.047463638962418 -0.000566548572565
    2  (  2) -0.275258773270295  0.138888616959566 -0.015969350630016
    3  (  3) -0.017345671201066 -0.059189082677904 -0.046475381464176
    4  (  4) -0.050392875387071 -0.072424486885238 -0.004459708301674
    5  (  5) -0.026836133802329 -0.070805989588457  0.140760690762251
    6  (  6) -0.078585377266712  0.120742726291724  0.064292229739042
    7  (  7) -0.041858894695365 -0.005665298794286  0.017186389956069
    8  (  8) -0.118429783701800 -0.144155118064025 -0.113213711259466
    9  (  9)  0.000756388118591 -0.455654623157072 -0.231432578787543
   10  ( 10)  0.453567841489266  0.001497567906129  0.172275686133391
   11  ( 11)  0.230120702539645 -0.175050207490782  0.001480251815160

	DPD File2: L*_ZBAR_AE
	DPD Parameters:
	------------------
	pnum = 1   qnum = 1   irrep = 0 
	Irreps = 1

	   Row and column dimensions for DPD Block:
	   ----------------------------------------
	   Irrep: 0 row =    10	col =    10

	File 101 DPD File2: L*_ZBAR_AE
	Matrix for Irrep 0
	----------------------------------------

                         0                  1                  2                  3                  4                  5                  6                  7                  8     
                      (  0)              (  1)              (  2)              (  3)              (  4)              (  5)              (  6)              (  7)              (  8)    

    0  (  0) -0.000516219946816 -0.034778633659956 -0.032999546928151  0.009629039776278 -0.052966719633617  0.030450001531878  0.014875222246015  0.072128990177077 -0.048218822417803
    1  (  1)  0.030877691560804 -0.001883541097772 -0.071434334115879  0.019325009721534  0.017452039030100  0.158145751795333  0.010537309557875  0.021583100108147  0.169934651056250
    2  (  2)  0.033565318682613  0.071200997372983 -0.000581071534985  0.036850040138101 -0.007310816547227  0.008797901115406  0.029229533057666  0.016744128499400  0.070455787497455
    3  (  3) -0.011004884819686 -0.019179310791618 -0.034909263032370 -0.000523661128158  0.007125267622899  0.017666281606150  0.025274953349027 -0.006048522524524  0.042959205727090
    4  (  4)  0.052383681601535 -0.016788640224883  0.007028507044452 -0.007472760866637  0.000164741631073  0.026820745242549 -0.000005495327564  0.022752424410877 -0.031410113616428
    5  (  5) -0.028924597602342 -0.155705177520586 -0.009708873936879 -0.016613543931604 -0.026890889200954 -0.000863820528475  0.026461589325309 -0.030900211040800 -0.024762473040831
    6  (  6) -0.014335467827216 -0.010396285650159 -0.029624823660296 -0.025462090585912 -0.000149096444494 -0.026996065218364  0.000042625626758  0.107465667965402 -0.101121105248233
    7  (  7) -0.071280711647029 -0.021473260264964 -0.016888851213230  0.005990055447048 -0.022650874097521  0.030884846999677 -0.107059671381934 -0.000085380718295 -0.001222830424055
    8  (  8)  0.049124632890092 -0.169889327710618 -0.068826403708743 -0.044339001017875  0.031493314676472  0.025080049766767  0.100845039831255  0.001167614688641 -0.000278385825403
    9  (  9) -0.004591463397670 -0.224641690035662 -0.054391854978822  0.000520714575472 -0.041379699430161  0.035041097267503  0.048865193892848  0.034233303767760 -0.002323551097466

                         9     
                      (  9)    

    0  (  0)  0.004372643490859
    1  (  1)  0.225448428944350
    2  (  2)  0.053543340635201
    3  (  3) -0.000029286176363
    4  (  4)  0.041473098636741
    5  (  5) -0.035500700267141
    6  (  6) -0.049415179037896
    7  (  7) -0.033722251526408
    8  (  8)  0.002108270875613
    9  (  9)  0.000059855095180

	DPD File2: L*_ZBAR_IA
	DPD Parameters:
	------------------
	pnum = 0   qnum = 1   irrep = 0 
	Irreps = 1

	   Row and column dimensions for DPD Block:
	   ----------------------------------------
	   Irrep: 0 row =    12	col =    10

	File 101 DPD File2: L*_ZBAR_IA
	Matrix for Irrep 0
	----------------------------------------

                         0                  1                  2                  3                  4                  5                  6                  7                  8     
                      (  0)              (  1)              (  2)              (  3)              (  4)              (  5)              (  6)              (  7)              (  8)    

    0  (  0) -0.083178189184036 -0.063320502543375 -0.053448860291133  0.010119942476578  0.027962494700737  0.033408156898410  0.016646686372055  0.009688142905594  0.047753876913682
    1  (  1)  0.015436953954369 -0.001484194684011  0.023035398887205  0.013457869405466 -0.013993527195521 -0.033943979767543  0.150850131221437 -0.006054179455746  0.032861777904130
    2  (  2)  0.007416632072171  0.085535883632607 -0.031035920631781 -0.004414026005139 -0.010136741110915  0.029006493089287 -0.078308410406643  0.042862583013635  0.094615352193845
    3  (  3) -0.060864804294684 -0.107990348400789 -0.029334441164075 -0.017074561166948  0.006770814971091  0.056161219994893 -0.038880977880177 -0.007186858274067 -0.050898617184209
    4  (  4) -0.109193273208522 -0.178421304573120 -0.074992061457995  0.038015102633012 -0.147910228795514  0.087181398607820 -0.098582275644141  0.093570766915846  0.088687564658624
    5  (  5)  0.362309556227904  0.121304099182945  0.074968023841376  0.180660703600124 -0.122438585672172 -0.079096894998506  0.085876030826778 -0.136109864287558  0.002214631278523
    6  (  6)  0.026835628168075 -0.104282391359254  0.172843582770517  0.372105341696267  0.200623348657875 -0.124556824110224 -0.101871864602057 -0.564196462169744  0.000688785089474
    7  (  7)  0.344945182303497  0.095060217852336  0.019692892185405 -0.208607222836184 -0.002627647973779 -0.075715664253568 -0.273373001503080  0.322679649636761 -0.103750880742886
    8  (  8)  0.103243578213400  0.018995126733818 -0.033613347666093 -0.143946559071139  0.146180680800982  0.017308359580339  0.107684620440504 -0.078982837453949 -0.062496256435255
    9  (  9) -0.085648241806344 -0.209611729409149 -0.056224829650480 -0.004822853433113  0.155473341074989  0.012971266670028 -0.058097898147224 -0.150335378963730  0.078057323449305
   10  ( 10)  0.070132629148842  0.074702785463534  0.209329818275843  0.042566217114534 -0.058034325280006 -0.102370728009941 -0.025801004099357 -0.264561180085366  0.017482708757363
   11  ( 11)  0.113963029107499  0.045073298009464  0.000413587765283  0.112463923253522 -0.089423608765749 -0.081287727377731 -0.019439635907878 -0.076622183257520  0.114273036439508

                         9     
                      (  9)    

    0  (  0)  0.015270950350973
    1  (  1)  0.030946721870550
    2  (  2) -0.003707642076146
    3  (  3) -0.011960041321321
    4  (  4)  0.086083869661608
    5  (  5)  0.009867768215709
    6  (  6)  0.209680707316341
    7  (  7) -0.097843271017668
    8  (  8) -0.010325909660635
    9  (  9)  0.121632163838855
   10  ( 10)  0.058275044600178
   11  ( 11) -0.003021331907582

	Computing Mu_X-Perturbed Wave Function (0.128 E_h).
	Iter   Pseudopolarizability       RMS 
	----   --------------------   -----------
	   0        16.768400636718
	   1        22.238899323198    7.657e-01
	   2        26.326603032135    3.442e-01
	   3        26.402828138172    5.204e-02
	   4        26.436612034770    2.459e-02
	   5        26.441960308295    4.103e-03
	   6        26.440596203782    1.628e-03
	   7        26.440721962866    5.123e-04
	   8        26.440796407034    2.487e-04
	   9        26.440755970568    1.070e-04
	  10        26.440741562191    4.242e-05
	  11        26.440753214125    1.114e-05
	  12        26.440764472568    3.188e-06
	  13        26.440767810998    1.225e-06
	  14        26.440768088730    4.406e-07
	  15        26.440767755083    2.032e-07
	-----------------------------------------
	Converged Mu_X-Perturbed Wfn to 7.696e-08

	Computing L*_X-Perturbed Wave Function (-0.128 E_h).
	Iter   Pseudopolarizability       RMS 
	----   --------------------   -----------
	   0         1.926105631328
	   1         2.501393275744    2.028e-01
	   2         2.834079249600    7.722e-02
	   3         2.838350733665    9.377e-03
	   4         2.839897253245    3.735e-03
	   5         2.839974125340    8.176e-04
	   6         2.839961789554    1.986e-04
	   7         2.839965280678    3.975e-05
	   8         2.839964831372    1.141e-05
	   9         2.839964548641    2.885e-06
	  10         2.839964458947    9.825e-07
	  11         2.839964534618    1.402e-07
	-----------------------------------------
	Converged L*_X-Perturbed Wfn to 4.466e-08

	Computing Mu_Y-Perturbed Wave Function (0.128 E_h).
	Iter   Pseudopolarizability       RMS 
	----   --------------------   -----------
	   0        13.791920319186
	   1        16.799278109459    5.100e-01
	   2        18.450083178728    1.931e-01
	   3        18.566084740683    4.406e-02
	   4        18.584310426486    1.722e-02
	   5        18.587536227798    3.424e-03
	   6        18.587011347588    1.160e-03
	   7        18.587126796613    3.058e-04
	   8        18.587161120157    1.080e-04
	   9        18.587156888766    4.128e-05
	  10        18.587157303412    2.114e-05
	  11        18.587158834247    7.210e-06
	  12        18.587162027489    2.847e-06
	  13        18.587162381644    1.013e-06
	  14        18.587162490736    4.203e-07
	  15        18.587162336589    1.752e-07
	-----------------------------------------
	Converged Mu_Y-Perturbed Wfn to 6.350e-08

	Computing L*_Y-Perturbed Wave Function (-0.128 E_h).
	Iter   Pseudopolarizability       RMS 
	----   --------------------   -----------
	   0         5.491473815782
	   1         6.979859581709    2.986e-01
	   2         7.683240637464    1.049e-01
	   3         7.697438041472    1.990e-02
	   4         7.702325633219    6.916e-03
	   5         7.702390793952    1.115e-03
	   6         7.702332324942    2.339e-04
	   7         7.702339286683    5.198e-05
	   8         7.702338399160    1.155e-05
	   9         7.702338304051    2.547e-06
	  10         7.702338208944    8.454e-07
	  11         7.702338298400    1.431e-07
	-----------------------------------------
	Converged L*_Y-Perturbed Wfn to 4.269e-08

	Computing Mu_Z-Perturbed Wave Function (0.128 E_h).
	Iter   Pseudopolarizability       RMS 
	----   --------------------   -----------
	   0        13.624759066304
	   1        17.300274786165    5.349e-01
	   2        19.191725177085    1.939e-01
	   3        19.236330690295    3.405e-02
	   4        19.254798304655    1.757e-02
	   5        19.257236321965    2.512e-03
	   6        19.256952059230    1.061e-03
	   7        19.257006072772    3.749e-04
	   8        19.257011184337    1.438e-04
	   9        19.257003264835    4.440e-05
	  10        19.257001940202    1.593e-05
	  11        19.257003901137    3.739e-06
	  12        19.257005421265    1.240e-06
	  13        19.257005821231    5.354e-07
	  14        19.257005951816    2.664e-07
	  15        19.257005918929    1.205e-07
	-----------------------------------------
	Converged Mu_Z-Perturbed Wfn to 4.553e-08

	Computing L*_Z-Perturbed Wave Function (-0.128 E_h).
	Iter   Pseudopolarizability       RMS 
	----   --------------------   -----------
	   0         5.581975924718
	   1         7.067898007904    3.046e-01
	   2         7.794265031693    1.062e-01
	   3         7.808016253108    1.466e-02
	   4         7.810897754854    5.344e-03
	   5         7.811100118181    1.188e-03
	   6         7.811024707321    3.499e-04
	   7         7.811038479913    5.690e-05
	   8         7.811038896808    1.440e-05
	   9         7.811038612320    3.086e-06
	  10         7.811038592057    1.047e-06
	  11         7.811038682689    2.223e-07
	-----------------------------------------
	Converged L*_Z-Perturbed Wfn to 6.177e-08

	Computing 1/2 <<Mu;L*>>_(0.128) tensor.

            CC2 Optical Rotation Tensor (Length Gauge):
  -------------------------------------------------------------------------
   Evaluated at omega = 0.128347 E_h (355.00 nm, 3.493 eV, 28169.01 cm-1)
  -------------------------------------------------------------------------

                   0                     1                     2        

    0      0.199315154813160    -0.236145105691945    -0.075627034598294
    1      0.033233678625649     0.078305709819069    -0.216237849937923
    2     -0.318543396835040     0.348340079087816    -0.247304234560634

   Specific rotation using length-gauge electric-dipole Rosenfeld tensor.
	[alpha]_(0.128) = -144.48475 deg/[dm (g/cm^3)]

   ------------------------------------------
       CC2 Length-Gauge Optical Rotation
   ------------------------------------------
       Omega           alpha
    E_h      nm   deg/[dm (g/cm^3)]
   -----   ------ ------------------
   0.077   589.00       -49.62375
   0.128   355.00      -144.48475

*** tstop() called on psinet at Mon May 15 15:34:46 2017
Module time:
	user time   =       1.33 seconds =       0.02 minutes
	system time =       1.37 seconds =       0.02 minutes
	total time  =          3 seconds =       0.05 minutes
Total time:
	user time   =       2.34 seconds =       0.04 minutes
	system time =       1.65 seconds =       0.03 minutes
	total time  =          5 seconds =       0.08 minutes

*** Psi4 exiting successfully. Buy a developer a beer!
