    -----------------------------------------------------------------------
          Psi4: An Open-Source Ab Initio Electronic Structure Package
                              Psi4 0.5 Driver

                          Git: Rev {master} dbe9080

    J. M. Turney, A. C. Simmonett, R. M. Parrish, E. G. Hohenstein,
    F. A. Evangelista, J. T. Fermann, B. J. Mintz, L. A. Burns, J. J. Wilke,
    M. L. Abrams, N. J. Russ, M. L. Leininger, C. L. Janssen, E. T. Seidl,
    W. D. Allen, H. F. Schaefer, R. A. King, E. F. Valeev, C. D. Sherrill,
    and T. D. Crawford, WIREs Comput. Mol. Sci. 2, 556-565 (2012)
    (doi: 10.1002/wcms.93)

                         Additional Contributions by
    A. E. DePrince, M. Saitow, U. Bozkaya, A. Yu. Sokolov
    -----------------------------------------------------------------------


    Psi4 started on: Mon Mar 14 15:24:24 2016

    Process ID:  11610
    PSI4DATADIR: /home/dsmith/Gits/dgas_psi/share
    Memory level set to 256.000 MB

  ==> Input File <==

--------------------------------------------------------------------------
#! DCFT calculation for the NH3+ radical using the ODC-12 and ODC-13 functionals. This performs both
#! simultaneous and QC update of the orbitals and cumulant using DIIS extrapolation.
#! Four-virtual integrals are first handled in the MO Basis for the first two energy computations.
#! In the next computation ao_basis=disk algorithm is used, where the transformation of integrals for 
#! four-virtual case is avoided. 

memory 250 mb

refscf      = -55.185167931335101  #TEST
refmp2      = -55.231284743677058  #TEST

# ODC-12                              #TEST
refodc12scf       = -55.086226756314794   #TEST
refodc12          = -55.2508135884410478 #TEST
refodc12_lambda_3 =  -0.0002588245379959  #TEST
refodc12_total    = -55.2510724129790134 #TEST

# ODC-13
refodc13scf       = -55.082458005628837 #TEST
refodc13          = -55.2513190823393856 #TEST
refodc13_lambda_3 =  -0.0002684062910043  #TEST
refodc13_total    = -55.2515874886303919 #TEST

molecule NH3 {
1 2
N
X 1 r
H 1 r 2 TDA
H 1 r 2 TDA 3 120
H 1 r 2 TDA 4 120

r = 1.09
}

set globals {
    r_convergence 12
    d_convergence 12
    ao_basis    disk
    algorithm   simultaneous
    basis       sto-3g
    reference   uhf 
}

#ODC-12 (Lambda_3)
set three_particle perturbative
set dcft_functional odc-12
set ao_basis none
set algorithm simultaneous
energy('dcft')

compare_values(refscf, get_variable("SCF TOTAL ENERGY"), 10, "SCF Energy");                                       #TEST
compare_values(refmp2, get_variable("MP2 TOTAL ENERGY"), 10, "MP2 Energy");                                             #TEST

compare_values(refodc12scf, get_variable("DCFT SCF ENERGY"), 10, "ODC-12 SCF Energy (simultaneous, ao_basis=none)");     #TEST
compare_values(refodc12, get_variable("DCFT TOTAL ENERGY"), 10, "ODC-12 Energy (simultaneous, ao_basis=none)");                #TEST
compare_values(refodc12_lambda_3, get_variable("DCFT THREE-PARTICLE ENERGY"), 10, "ODC-12 Lambda_3 Energy (simultaneous, ao_basis=none)");     #TEST
compare_values(refodc12_total, get_variable("CURRENT ENERGY"), 10, "ODC-12 Total Energy (simultaneous, ao_basis=none)");                #TEST

set ao_basis disk
set algorithm simultaneous
energy('dcft')
compare_values(refodc12scf, get_variable("DCFT SCF ENERGY"), 10, "ODC-12 SCF Energy (simultaneous, ao_basis=disk)");     #TEST
compare_values(refodc12, get_variable("DCFT TOTAL ENERGY"), 10, "ODC-12 Energy (simultaneous, ao_basis=disk)");                #TEST
compare_values(refodc12_lambda_3, get_variable("DCFT THREE-PARTICLE ENERGY"), 10, "ODC-12 Lambda_3 Energy (simultaneous, ao_basis=disk)");     #TEST
compare_values(refodc12_total, get_variable("CURRENT ENERGY"), 10, "ODC-12 Total Energy (simultaneous, ao_basis=disk)");                #TEST

set ao_basis none
set algorithm qc
set qc_type simultaneous
energy('dcft')

compare_values(refodc12scf, get_variable("DCFT SCF ENERGY"), 10, "ODC-12 SCF Energy (qc, qc_type=simultaneous, ao_basis=none)");     #TEST
compare_values(refodc12, get_variable("DCFT TOTAL ENERGY"), 10, "ODC-12 Energy (qc, qc_type=simultaneous, ao_basis=none)");                #TEST
compare_values(refodc12_lambda_3, get_variable("DCFT THREE-PARTICLE ENERGY"), 10, "ODC-12 Lambda_3 Energy (qc, qc_type=simultaneous, ao_basis=none)");  #TEST
compare_values(refodc12_total, get_variable("CURRENT ENERGY"), 10, "ODC-12 Total Energy (qc, qc_type=simultaneous, ao_basis=none)");                #TEST

#ODC-13 (Lambda_3)
set three_particle perturbative
set dcft_functional odc-13
set ao_basis none
set algorithm simultaneous
energy('dcft')

compare_values(refodc13scf, get_variable("DCFT SCF ENERGY"), 10, "ODC-13 SCF Energy (simultaneous, ao_basis=none)");     #TEST
compare_values(refodc13, get_variable("DCFT TOTAL ENERGY"), 10, "ODC-13 Energy (simultaneous, ao_basis=none)");                #TEST
compare_values(refodc13_lambda_3, get_variable("DCFT THREE-PARTICLE ENERGY"), 10, "ODC-13 Lambda_3 Energy (simultaneous, ao_basis=none)");     #TEST
compare_values(refodc13_total, get_variable("CURRENT ENERGY"), 10, "ODC-13 Total Energy (simultaneous, ao_basis=none)");                #TEST

set ao_basis disk
set algorithm simultaneous
energy('dcft')
compare_values(refodc13scf, get_variable("DCFT SCF ENERGY"), 10, "ODC-13 SCF Energy (simultaneous, ao_basis=disk)");     #TEST
compare_values(refodc13, get_variable("DCFT TOTAL ENERGY"), 10, "ODC-13 Energy (simultaneous, ao_basis=disk)");                #TEST
compare_values(refodc13_lambda_3, get_variable("DCFT THREE-PARTICLE ENERGY"), 10, "ODC-13 Lambda_3 Energy (simultaneous, ao_basis=disk)");     #TEST
compare_values(refodc13_total, get_variable("CURRENT ENERGY"), 10, "ODC-13 Total Energy (simultaneous, ao_basis=disk)");                #TEST

set ao_basis none
set algorithm qc
set qc_type simultaneous
energy('dcft')

compare_values(refodc13scf, get_variable("DCFT SCF ENERGY"), 10, "ODC-13 SCF Energy (qc, qc_type=simultaneous, ao_basis=none)");     #TEST
compare_values(refodc13, get_variable("DCFT TOTAL ENERGY"), 10, "ODC-13 Energy (qc, qc_type=simultaneous, ao_basis=none)");                #TEST
compare_values(refodc13_lambda_3, get_variable("DCFT THREE-PARTICLE ENERGY"), 10, "ODC-13 Lambda_3 Energy (qc, qc_type=simultaneous, ao_basis=none)");  #TEST
compare_values(refodc13_total, get_variable("CURRENT ENERGY"), 10, "ODC-13 Total Energy (qc, qc_type=simultaneous, ao_basis=none)");                #TEST
--------------------------------------------------------------------------

  Memory set to 250.000 MiB by Python script.

*** tstart() called on ds1.sherrill.chemistry.gatech.edu
*** at Mon Mar 14 15:24:24 2016


         ---------------------------------------------------------
                                   SCF
            by Justin Turney, Rob Parrish, and Andy Simmonett
                              UHF Reference
                        1 Threads,    250 MiB Core
         ---------------------------------------------------------

  ==> Geometry <==

    Molecular point group: cs
    Full point group: C3v

    Geometry (in Angstrom), charge = 1, multiplicity = 2:

       Center              X                  Y                   Z               Mass       
    ------------   -----------------  -----------------  -----------------  -----------------
           N          0.000000000000     0.064518610227     0.000000000000    14.003074004780
           H         -0.513830927662    -0.298814723106     0.889981273211     1.007825032070
           H         -0.513830927662    -0.298814723106    -0.889981273211     1.007825032070
           H          1.027661855324    -0.298814723106     0.000000000000     1.007825032070

  Running in cs symmetry.

  Rotational constants: A =      8.75818  B =      8.75818  C =      5.27946 [cm^-1]
  Rotational constants: A = 262563.74356  B = 262563.74356  C = 158274.27281 [MHz]
  Nuclear repulsion =   11.087047696153101

  Charge       = 1
  Multiplicity = 2
  Electrons    = 9
  Nalpha       = 5
  Nbeta        = 4

  ==> Algorithm <==

  SCF Algorithm Type is PK.
  DIIS enabled.
  MOM disabled.
  Fractional occupation disabled.
  Guess Type is CORE.
  Energy threshold   = 1.00e-08
  Density threshold  = 1.00e-12
  Integral threshold = 0.00e+00

  ==> Primary Basis <==

  Basis Set: STO-3G
    Number of shells: 6
    Number of basis function: 8
    Number of Cartesian functions: 8
    Spherical Harmonics?: true
    Max angular momentum: 1

  ==> Pre-Iterations <==

   -------------------------------------------------------
    Irrep   Nso     Nmo     Nalpha   Nbeta   Ndocc  Nsocc
   -------------------------------------------------------
     A'         6       6       0       0       0       0
     A"         2       2       0       0       0       0
   -------------------------------------------------------
    Total       8       8       5       4       4       1
   -------------------------------------------------------

  ==> Integral Setup <==

	Batch   1 pq = [       0,      24] index = [             0,300]
  ==> DiskJK: Disk-Based J/K Matrices <==

    J tasked:                  Yes
    K tasked:                  Yes
    wK tasked:                  No
    Memory (MB):               178
    Schwarz Cutoff:          1E-12

  Minimum eigenvalue in the overlap matrix is 3.1845019414E-01.
  Using Symmetric Orthogonalization.
  SCF Guess: Core (One-Electron) Hamiltonian.

  ==> Iterations <==

                        Total Energy        Delta E     RMS |[F,P]|

   @UHF iter   1:   -53.27594853162467   -5.32759e+01   1.73080e-01 
   @UHF iter   2:   -55.15151993103486   -1.87557e+00   3.54518e-02 DIIS
   @UHF iter   3:   -55.18383682116791   -3.23169e-02   4.57083e-03 DIIS
   @UHF iter   4:   -55.18500083557219   -1.16401e-03   1.51013e-03 DIIS
   @UHF iter   5:   -55.18514170729539   -1.40872e-04   5.45609e-04 DIIS
   @UHF iter   6:   -55.18516187848832   -2.01712e-05   2.46844e-04 DIIS
   @UHF iter   7:   -55.18516702001163   -5.14152e-06   9.82434e-05 DIIS
   @UHF iter   8:   -55.18516793023388   -9.10222e-07   4.52005e-06 DIIS
   @UHF iter   9:   -55.18516793133180   -1.09792e-09   3.36005e-07 DIIS
   @UHF iter  10:   -55.18516793133499   -3.19744e-12   1.71604e-08 DIIS
   @UHF iter  11:   -55.18516793133505   -5.68434e-14   2.00183e-09 DIIS
   @UHF iter  12:   -55.18516793133504    1.42109e-14   3.15982e-11 DIIS
   @UHF iter  13:   -55.18516793133504    0.00000e+00   3.46916e-13 DIIS

  ==> Post-Iterations <==

   @Spin Contamination Metric:   1.043752011E-02
   @S^2 Expected:                7.500000000E-01
   @S^2 Observed:                7.604375201E-01
   @S   Expected:                5.000000000E-01
   @S   Observed:                5.000000000E-01

    Orbital Energies (a.u.)
    -----------------------

    Alpha Occupied:                                                       

       1Ap   -15.918391     2Ap    -1.562330     3Ap    -1.011156  
       1App   -1.011156     4Ap    -0.945772  

    Alpha Virtual:                                                        

       5Ap     0.134344     6Ap     0.203343     2App    0.203343  

    Beta Occupied:                                                        

       1Ap   -15.886508     2Ap    -1.428101     3Ap    -0.971048  
       1App   -0.971048  

    Beta Virtual:                                                         

       4Ap    -0.181875     5Ap     0.167535     6Ap     0.238002  
       2App    0.238002  

    Final Occupation by Irrep:
             Ap   App 
    DOCC [     3,    1 ]
    SOCC [     1,    0 ]

  Energy converged.

  @UHF Final Energy:   -55.18516793133504

   => Energetics <=

    Nuclear Repulsion Energy =             11.0870476961531015
    One-Electron Energy =                 -92.8389235247138629
    Two-Electron Energy =                  26.5667078972257258
    DFT Exchange-Correlation Energy =       0.0000000000000000
    Empirical Dispersion Energy =           0.0000000000000000
    PCM Polarization Energy =               0.0000000000000000
    EFP Energy =                            0.0000000000000000
    Total Energy =                        -55.1851679313350303

    Alert: EFP and PCM quantities not currently incorporated into SCF psivars.

Properties will be evaluated at   0.000000,   0.000000,   0.000000 Bohr
  ==> Properties <==


Properties computed using the SCF density matrix

  Nuclear Dipole Moment: (a.u.)
     X:    -0.0000      Y:    -0.8406      Z:     0.0000

  Electronic Dipole Moment: (a.u.)
     X:     0.0000      Y:     0.2866      Z:     0.0000

  Dipole Moment: (a.u.)
     X:     0.0000      Y:    -0.5540      Z:     0.0000     Total:     0.5540

  Dipole Moment: (Debye)
     X:     0.0000      Y:    -1.4081      Z:     0.0000     Total:     1.4081


  Saving occupied orbitals to File 180.

  UHF NO Occupations:
  HONO-2 :    3 Ap 1.9980250
  HONO-1 :    1App 1.9980250
  HONO-0 :    4 Ap 1.0000000
  LUNO+0 :    2App 0.0019750
  LUNO+1 :    5 Ap 0.0019750
  LUNO+2 :    6 Ap 0.0012735


*** tstop() called on ds1.sherrill.chemistry.gatech.edu at Mon Mar 14 15:24:24 2016
Module time:
	user time   =       0.01 seconds =       0.00 minutes
	system time =       0.01 seconds =       0.00 minutes
	total time  =          0 seconds =       0.00 minutes
Total time:
	user time   =       0.01 seconds =       0.00 minutes
	system time =       0.01 seconds =       0.00 minutes
	total time  =          0 seconds =       0.00 minutes

*** tstart() called on ds1.sherrill.chemistry.gatech.edu
*** at Mon Mar 14 15:24:24 2016



	***********************************************************************************
	*                        Density Cumulant Functional Theory                       *
	*                by Alexander Sokolov, Andy Simmonett, and Xiao Wang              *
	***********************************************************************************


	Transforming two-electron integrals (transformation type: unrestricted)...
	Computing MP2 amplitude guess...

	*Total Hartree-Fock energy        =  -55.185167931335037
	 Alpha - Alpha MP2 energy         =   -0.001575783744851
	 Alpha - Beta  MP2 energy         =   -0.042670073711189
	 Beta  - Beta  MP2 energy         =   -0.001870954885902
	 Total MP2 correlation energy     =   -0.046116812341942
	*Total MP2 energy                 =  -55.231284743676980

	DCFT Functional:    		 ODC-12
	DCFT Type:          		 CONV
	Algorithm:          		 SIMULTANEOUS
	AO-Basis Integrals: 		 NONE

	*=================================================================================*
	* Cycle   Max Orb Grad    RMS Lambda Error   delta E        Total Energy     DIIS *
	*---------------------------------------------------------------------------------*
	* 1        2.359e-02         7.902e-03     -3.995e-02    -55.271239108210793      *
	* 2        6.945e-03         3.313e-03      1.184e-02    -55.259396167525843      *
	* 3        3.915e-03         1.657e-03      5.053e-03    -55.254342890830806      *
	* 4        2.214e-03         9.900e-04      1.727e-03    -55.252616306894808      *
	* 5        1.593e-03         6.391e-04      7.988e-04    -55.251817542314647      *
	* 6        1.071e-03         4.280e-04      3.906e-04    -55.251426988115810      *
	* 7        7.347e-04         2.908e-04      2.199e-04    -55.251207125878622  S   *
	* 8        5.024e-04         1.989e-04      1.329e-04    -55.251074222953683  S   *
	* 9        3.467e-04         1.364e-04      8.508e-05    -55.250989142619595  S   *
	* 10       2.401e-04         9.362e-05      5.619e-05    -55.250932957365720  S/E *
	* 11       1.375e-06         4.544e-07      1.193e-04    -55.250813669940705  S/E *
	* 12       4.049e-07         1.716e-07      3.368e-07    -55.250813333125834  S/E *
	* 13       1.597e-07         8.419e-08     -1.183e-07    -55.250813451377589  S/E *
	* 14       2.044e-08         1.024e-08     -1.234e-07    -55.250813574740853  S/E *
	* 15       1.298e-08         3.994e-09     -1.372e-08    -55.250813588456396  S/E *
	* 16       2.323e-09         9.404e-10     -1.020e-09    -55.250813589476614  S/E *
	* 17       6.281e-10         1.709e-10      7.432e-10    -55.250813588733429  S/E *
	* 18       3.554e-10         8.222e-11      1.723e-10    -55.250813588561158  S/E *
	* 19       6.328e-11         1.537e-11      1.250e-10    -55.250813588436202  S/E *
	* 20       1.844e-11         6.127e-12      9.379e-13    -55.250813588435264  S/E *
	* 21       9.805e-12         1.980e-12     -4.526e-12    -55.250813588439790  S/E *
	* 22       4.853e-12         1.114e-12     -5.755e-13    -55.250813588440366  S/E *
	* 23       1.783e-13         2.342e-13     -2.203e-13    -55.250813588440586  S/E *
	*=================================================================================*

	*   ODC-12 SCF Energy                                 =     -55.086226756311994
	*   ODC-12 Lambda Energy                              =      -0.164586832128595
	*   ODC-12 Total Energy                               =     -55.250813588440586

	Evaluating three-particle DCFT energy correction...

	Semicanonicalizing OVVV integrals ... 			DONE
	Semicanonicalizing OOOV integrals ... 			DONE
	Semicanonicalizing density cumulant ...			DONE

	*Lambda_3 Energy (AAA)                             =   -0.000000259395284
	*Lambda_3 Energy (AAB)                             =   -0.000124721011601
	*Lambda_3 Energy (ABB)                             =   -0.000133557188064
	*Lambda_3 Energy (BBB)                             =   -0.000000286943048

	*DCFT Three-particle Energy                        =   -0.000258824537997
	*DCFT Total Energy                                 =  -55.251072412978580

	Orbital occupations:
		Alpha occupied orbitals
		   1Ap       1.0000     2Ap       0.9957     3Ap       0.9916     4Ap       0.9866  
		   1App      0.9866  

		Beta occupied orbitals
		   1Ap       1.0000     2Ap       0.9910     1App      0.9845     3Ap       0.9845  
		

		Alpha virtual orbitals
		   5Ap       0.0142     2App      0.0142     6Ap       0.0112  

		Beta virtual orbitals
		   4Ap       0.0119     2App      0.0119     5Ap       0.0099     6Ap       0.0061  
		



Properties will be evaluated at   0.000000,   0.000000,   0.000000 Bohr

Properties computed using the ODC-12 density matrix

  Nuclear Dipole Moment: (a.u.)
     X:    -0.0000      Y:    -0.8406      Z:     0.0000

  Electronic Dipole Moment: (a.u.)
     X:     0.0000      Y:     0.3285      Z:     0.0000

  Dipole Moment: (a.u.)
     X:     0.0000      Y:    -0.5120      Z:     0.0000     Total:     0.5120

  Dipole Moment: (Debye)
     X:     0.0000      Y:    -1.3015      Z:     0.0000     Total:     1.3015


*** tstop() called on ds1.sherrill.chemistry.gatech.edu at Mon Mar 14 15:24:25 2016
Module time:
	user time   =       0.21 seconds =       0.00 minutes
	system time =       0.38 seconds =       0.01 minutes
	total time  =          1 seconds =       0.02 minutes
Total time:
	user time   =       0.22 seconds =       0.00 minutes
	system time =       0.39 seconds =       0.01 minutes
	total time  =          1 seconds =       0.02 minutes
	SCF Energy........................................................PASSED
	MP2 Energy........................................................PASSED
	ODC-12 SCF Energy (simultaneous, ao_basis=none)...................PASSED
	ODC-12 Energy (simultaneous, ao_basis=none).......................PASSED
	ODC-12 Lambda_3 Energy (simultaneous, ao_basis=none)..............PASSED
	ODC-12 Total Energy (simultaneous, ao_basis=none).................PASSED

*** tstart() called on ds1.sherrill.chemistry.gatech.edu
*** at Mon Mar 14 15:24:25 2016


         ---------------------------------------------------------
                                   SCF
            by Justin Turney, Rob Parrish, and Andy Simmonett
                              UHF Reference
                        1 Threads,    250 MiB Core
         ---------------------------------------------------------

  ==> Geometry <==

    Molecular point group: cs
    Full point group: C3v

    Geometry (in Angstrom), charge = 1, multiplicity = 2:

       Center              X                  Y                   Z               Mass       
    ------------   -----------------  -----------------  -----------------  -----------------
           N          0.000000000000     0.064518610227     0.000000000000    14.003074004780
           H         -0.513830927662    -0.298814723106     0.889981273211     1.007825032070
           H         -0.513830927662    -0.298814723106    -0.889981273211     1.007825032070
           H          1.027661855324    -0.298814723106     0.000000000000     1.007825032070

  Running in cs symmetry.

  Rotational constants: A =      8.75818  B =      8.75818  C =      5.27946 [cm^-1]
  Rotational constants: A = 262563.74356  B = 262563.74356  C = 158274.27281 [MHz]
  Nuclear repulsion =   11.087047696153101

  Charge       = 1
  Multiplicity = 2
  Electrons    = 9
  Nalpha       = 5
  Nbeta        = 4

  ==> Algorithm <==

  SCF Algorithm Type is PK.
  DIIS enabled.
  MOM disabled.
  Fractional occupation disabled.
  Guess Type is CORE.
  Energy threshold   = 1.00e-08
  Density threshold  = 1.00e-12
  Integral threshold = 0.00e+00

  ==> Primary Basis <==

  Basis Set: STO-3G
    Number of shells: 6
    Number of basis function: 8
    Number of Cartesian functions: 8
    Spherical Harmonics?: true
    Max angular momentum: 1

  ==> Pre-Iterations <==

   -------------------------------------------------------
    Irrep   Nso     Nmo     Nalpha   Nbeta   Ndocc  Nsocc
   -------------------------------------------------------
     A'         6       6       0       0       0       0
     A"         2       2       0       0       0       0
   -------------------------------------------------------
    Total       8       8       5       4       4       1
   -------------------------------------------------------

  ==> Integral Setup <==

	Batch   1 pq = [       0,      24] index = [             0,300]
  ==> DiskJK: Disk-Based J/K Matrices <==

    J tasked:                  Yes
    K tasked:                  Yes
    wK tasked:                  No
    Memory (MB):               178
    Schwarz Cutoff:          1E-12

  Minimum eigenvalue in the overlap matrix is 3.1845019414E-01.
  Using Symmetric Orthogonalization.
  SCF Guess: Core (One-Electron) Hamiltonian.

  ==> Iterations <==

                        Total Energy        Delta E     RMS |[F,P]|

   @UHF iter   1:   -53.27594853162467   -5.32759e+01   1.73080e-01 
   @UHF iter   2:   -55.15151993103485   -1.87557e+00   3.54518e-02 DIIS
   @UHF iter   3:   -55.18383682116791   -3.23169e-02   4.57083e-03 DIIS
   @UHF iter   4:   -55.18500083557219   -1.16401e-03   1.51013e-03 DIIS
   @UHF iter   5:   -55.18514170729539   -1.40872e-04   5.45609e-04 DIIS
   @UHF iter   6:   -55.18516187848834   -2.01712e-05   2.46844e-04 DIIS
   @UHF iter   7:   -55.18516702001163   -5.14152e-06   9.82434e-05 DIIS
   @UHF iter   8:   -55.18516793023388   -9.10222e-07   4.52005e-06 DIIS
   @UHF iter   9:   -55.18516793133178   -1.09790e-09   3.36005e-07 DIIS
   @UHF iter  10:   -55.18516793133502   -3.24007e-12   1.71604e-08 DIIS
   @UHF iter  11:   -55.18516793133504   -1.42109e-14   2.00183e-09 DIIS
   @UHF iter  12:   -55.18516793133502    1.42109e-14   3.15980e-11 DIIS
   @UHF iter  13:   -55.18516793133502    0.00000e+00   3.47120e-13 DIIS

  ==> Post-Iterations <==

   @Spin Contamination Metric:   1.043752011E-02
   @S^2 Expected:                7.500000000E-01
   @S^2 Observed:                7.604375201E-01
   @S   Expected:                5.000000000E-01
   @S   Observed:                5.000000000E-01

    Orbital Energies (a.u.)
    -----------------------

    Alpha Occupied:                                                       

       1Ap   -15.918391     2Ap    -1.562330     3Ap    -1.011156  
       1App   -1.011156     4Ap    -0.945772  

    Alpha Virtual:                                                        

       5Ap     0.134344     6Ap     0.203343     2App    0.203343  

    Beta Occupied:                                                        

       1Ap   -15.886508     2Ap    -1.428101     3Ap    -0.971048  
       1App   -0.971048  

    Beta Virtual:                                                         

       4Ap    -0.181875     5Ap     0.167535     6Ap     0.238002  
       2App    0.238002  

    Final Occupation by Irrep:
             Ap   App 
    DOCC [     3,    1 ]
    SOCC [     1,    0 ]

  Energy converged.

  @UHF Final Energy:   -55.18516793133502

   => Energetics <=

    Nuclear Repulsion Energy =             11.0870476961531015
    One-Electron Energy =                 -92.8389235247138345
    Two-Electron Energy =                  26.5667078972257045
    DFT Exchange-Correlation Energy =       0.0000000000000000
    Empirical Dispersion Energy =           0.0000000000000000
    PCM Polarization Energy =               0.0000000000000000
    EFP Energy =                            0.0000000000000000
    Total Energy =                        -55.1851679313350232

    Alert: EFP and PCM quantities not currently incorporated into SCF psivars.

Properties will be evaluated at   0.000000,   0.000000,   0.000000 Bohr
  ==> Properties <==


Properties computed using the SCF density matrix

  Nuclear Dipole Moment: (a.u.)
     X:    -0.0000      Y:    -0.8406      Z:     0.0000

  Electronic Dipole Moment: (a.u.)
     X:     0.0000      Y:     0.2866      Z:     0.0000

  Dipole Moment: (a.u.)
     X:     0.0000      Y:    -0.5540      Z:     0.0000     Total:     0.5540

  Dipole Moment: (Debye)
     X:     0.0000      Y:    -1.4081      Z:     0.0000     Total:     1.4081


  Saving occupied orbitals to File 180.

  UHF NO Occupations:
  HONO-2 :    3 Ap 1.9980250
  HONO-1 :    1App 1.9980250
  HONO-0 :    4 Ap 1.0000000
  LUNO+0 :    5 Ap 0.0019750
  LUNO+1 :    2App 0.0019750
  LUNO+2 :    6 Ap 0.0012735


*** tstop() called on ds1.sherrill.chemistry.gatech.edu at Mon Mar 14 15:24:25 2016
Module time:
	user time   =       0.02 seconds =       0.00 minutes
	system time =       0.01 seconds =       0.00 minutes
	total time  =          0 seconds =       0.00 minutes
Total time:
	user time   =       0.28 seconds =       0.00 minutes
	system time =       0.40 seconds =       0.01 minutes
	total time  =          1 seconds =       0.02 minutes

*** tstart() called on ds1.sherrill.chemistry.gatech.edu
*** at Mon Mar 14 15:24:25 2016



	***********************************************************************************
	*                        Density Cumulant Functional Theory                       *
	*                by Alexander Sokolov, Andy Simmonett, and Xiao Wang              *
	***********************************************************************************


	Transforming two-electron integrals (transformation type: unrestricted)...
	Computing MP2 amplitude guess...

	*Total Hartree-Fock energy        =  -55.185167931335023
	 Alpha - Alpha MP2 energy         =   -0.001541722101432
	 Alpha - Beta  MP2 energy         =   -0.041619189769289
	 Beta  - Beta  MP2 energy         =   -0.001824265537367
	 Total MP2 correlation energy     =   -0.044985177408088
	*Total MP2 energy                 =  -55.230153108743110

	DCFT Functional:    		 ODC-12
	DCFT Type:          		 CONV
	Algorithm:          		 SIMULTANEOUS
	AO-Basis Integrals: 		 DISK

	*=================================================================================*
	* Cycle   Max Orb Grad    RMS Lambda Error   delta E        Total Energy     DIIS *
	*---------------------------------------------------------------------------------*
	* 1        2.333e-02         8.315e-03     -4.155e-02    -55.271705204791914      *
	* 2        6.761e-03         3.524e-03      1.150e-02    -55.260202353841009      *
	* 3        3.893e-03         1.726e-03      5.607e-03    -55.254595721865137      *
	* 4        2.230e-03         1.019e-03      1.888e-03    -55.252707286507388      *
	* 5        1.607e-03         6.543e-04      8.507e-04    -55.251856537984025      *
	* 6        1.084e-03         4.372e-04      4.107e-04    -55.251445855907022      *
	* 7        7.444e-04         2.968e-04      2.285e-04    -55.251217364427930  S   *
	* 8        5.096e-04         2.029e-04      1.371e-04    -55.251080267938946  S   *
	* 9        3.510e-04         1.391e-04      8.734e-05    -55.250992931866904  S   *
	* 10       2.433e-04         9.546e-05      5.751e-05    -55.250935423084726  S/E *
	* 11       1.409e-06         4.579e-07      1.218e-04    -55.250813624847083  S/E *
	* 12       4.179e-07         1.841e-07      3.086e-07    -55.250813316224395  S/E *
	* 13       1.672e-07         8.933e-08     -1.322e-07    -55.250813448462345  S/E *
	* 14       1.960e-08         1.291e-08     -1.195e-07    -55.250813567938131  S/E *
	* 15       1.344e-08         4.182e-09     -2.050e-08    -55.250813588436586  S/E *
	* 16       2.683e-09         1.092e-09     -1.453e-09    -55.250813589890022  S/E *
	* 17       6.407e-10         1.696e-10      1.184e-09    -55.250813588706308  S/E *
	* 18       3.641e-10         8.654e-11      1.568e-10    -55.250813588549555  S/E *
	* 19       5.843e-11         1.479e-11      1.035e-10    -55.250813588446100  S/E *
	* 20       1.902e-11         6.214e-12      5.095e-12    -55.250813588441005  S/E *
	* 21       1.043e-11         2.135e-12      2.487e-13    -55.250813588440757  S/E *
	* 22       4.867e-12         1.064e-12      1.421e-13    -55.250813588440614  S/E *
	* 23       1.649e-13         2.340e-13      1.563e-13    -55.250813588440458  S/E *
	*=================================================================================*

	*   ODC-12 SCF Energy                                 =     -55.086226756311753
	*   ODC-12 Lambda Energy                              =      -0.164586832128707
	*   ODC-12 Total Energy                               =     -55.250813588440458

	Evaluating three-particle DCFT energy correction...

	Semicanonicalizing OVVV integrals ... 			DONE
	Semicanonicalizing OOOV integrals ... 			DONE
	Semicanonicalizing density cumulant ...			DONE

	*Lambda_3 Energy (AAA)                             =   -0.000000259395284
	*Lambda_3 Energy (AAB)                             =   -0.000124721011601
	*Lambda_3 Energy (ABB)                             =   -0.000133557188064
	*Lambda_3 Energy (BBB)                             =   -0.000000286943048

	*DCFT Three-particle Energy                        =   -0.000258824537997
	*DCFT Total Energy                                 =  -55.251072412978452

	Orbital occupations:
		Alpha occupied orbitals
		   1Ap       1.0000     2Ap       0.9957     3Ap       0.9916     1App      0.9866  
		   4Ap       0.9866  

		Beta occupied orbitals
		   1Ap       1.0000     2Ap       0.9910     1App      0.9845     3Ap       0.9845  
		

		Alpha virtual orbitals
		   5Ap       0.0142     2App      0.0142     6Ap       0.0112  

		Beta virtual orbitals
		   4Ap       0.0119     2App      0.0119     5Ap       0.0099     6Ap       0.0061  
		



Properties will be evaluated at   0.000000,   0.000000,   0.000000 Bohr

Properties computed using the ODC-12 density matrix

  Nuclear Dipole Moment: (a.u.)
     X:    -0.0000      Y:    -0.8406      Z:     0.0000

  Electronic Dipole Moment: (a.u.)
     X:     0.0000      Y:     0.3285      Z:     0.0000

  Dipole Moment: (a.u.)
     X:     0.0000      Y:    -0.5120      Z:     0.0000     Total:     0.5120

  Dipole Moment: (Debye)
     X:     0.0000      Y:    -1.3015      Z:     0.0000     Total:     1.3015


*** tstop() called on ds1.sherrill.chemistry.gatech.edu at Mon Mar 14 15:24:26 2016
Module time:
	user time   =       0.23 seconds =       0.00 minutes
	system time =       0.43 seconds =       0.01 minutes
	total time  =          1 seconds =       0.02 minutes
Total time:
	user time   =       0.51 seconds =       0.01 minutes
	system time =       0.83 seconds =       0.01 minutes
	total time  =          2 seconds =       0.03 minutes
	ODC-12 SCF Energy (simultaneous, ao_basis=disk)...................PASSED
	ODC-12 Energy (simultaneous, ao_basis=disk).......................PASSED
	ODC-12 Lambda_3 Energy (simultaneous, ao_basis=disk)..............PASSED
	ODC-12 Total Energy (simultaneous, ao_basis=disk).................PASSED

*** tstart() called on ds1.sherrill.chemistry.gatech.edu
*** at Mon Mar 14 15:24:26 2016


         ---------------------------------------------------------
                                   SCF
            by Justin Turney, Rob Parrish, and Andy Simmonett
                              UHF Reference
                        1 Threads,    250 MiB Core
         ---------------------------------------------------------

  ==> Geometry <==

    Molecular point group: cs
    Full point group: C3v

    Geometry (in Angstrom), charge = 1, multiplicity = 2:

       Center              X                  Y                   Z               Mass       
    ------------   -----------------  -----------------  -----------------  -----------------
           N          0.000000000000     0.064518610227     0.000000000000    14.003074004780
           H         -0.513830927662    -0.298814723106     0.889981273211     1.007825032070
           H         -0.513830927662    -0.298814723106    -0.889981273211     1.007825032070
           H          1.027661855324    -0.298814723106     0.000000000000     1.007825032070

  Running in cs symmetry.

  Rotational constants: A =      8.75818  B =      8.75818  C =      5.27946 [cm^-1]
  Rotational constants: A = 262563.74356  B = 262563.74356  C = 158274.27281 [MHz]
  Nuclear repulsion =   11.087047696153101

  Charge       = 1
  Multiplicity = 2
  Electrons    = 9
  Nalpha       = 5
  Nbeta        = 4

  ==> Algorithm <==

  SCF Algorithm Type is PK.
  DIIS enabled.
  MOM disabled.
  Fractional occupation disabled.
  Guess Type is CORE.
  Energy threshold   = 1.00e-08
  Density threshold  = 1.00e-12
  Integral threshold = 0.00e+00

  ==> Primary Basis <==

  Basis Set: STO-3G
    Number of shells: 6
    Number of basis function: 8
    Number of Cartesian functions: 8
    Spherical Harmonics?: true
    Max angular momentum: 1

  ==> Pre-Iterations <==

   -------------------------------------------------------
    Irrep   Nso     Nmo     Nalpha   Nbeta   Ndocc  Nsocc
   -------------------------------------------------------
     A'         6       6       0       0       0       0
     A"         2       2       0       0       0       0
   -------------------------------------------------------
    Total       8       8       5       4       4       1
   -------------------------------------------------------

  ==> Integral Setup <==

	Batch   1 pq = [       0,      24] index = [             0,300]
  ==> DiskJK: Disk-Based J/K Matrices <==

    J tasked:                  Yes
    K tasked:                  Yes
    wK tasked:                  No
    Memory (MB):               178
    Schwarz Cutoff:          1E-12

  Minimum eigenvalue in the overlap matrix is 3.1845019414E-01.
  Using Symmetric Orthogonalization.
  SCF Guess: Core (One-Electron) Hamiltonian.

  ==> Iterations <==

                        Total Energy        Delta E     RMS |[F,P]|

   @UHF iter   1:   -53.27594853162467   -5.32759e+01   1.73080e-01 
   @UHF iter   2:   -55.15151993103483   -1.87557e+00   3.54518e-02 DIIS
   @UHF iter   3:   -55.18383682116791   -3.23169e-02   4.57083e-03 DIIS
   @UHF iter   4:   -55.18500083557218   -1.16401e-03   1.51013e-03 DIIS
   @UHF iter   5:   -55.18514170729539   -1.40872e-04   5.45609e-04 DIIS
   @UHF iter   6:   -55.18516187848832   -2.01712e-05   2.46844e-04 DIIS
   @UHF iter   7:   -55.18516702001163   -5.14152e-06   9.82434e-05 DIIS
   @UHF iter   8:   -55.18516793023388   -9.10222e-07   4.52005e-06 DIIS
   @UHF iter   9:   -55.18516793133178   -1.09790e-09   3.36005e-07 DIIS
   @UHF iter  10:   -55.18516793133504   -3.25429e-12   1.71604e-08 DIIS
   @UHF iter  11:   -55.18516793133504    0.00000e+00   2.00183e-09 DIIS
   @UHF iter  12:   -55.18516793133502    1.42109e-14   3.15983e-11 DIIS
   @UHF iter  13:   -55.18516793133504   -1.42109e-14   3.46777e-13 DIIS

  ==> Post-Iterations <==

   @Spin Contamination Metric:   1.043752011E-02
   @S^2 Expected:                7.500000000E-01
   @S^2 Observed:                7.604375201E-01
   @S   Expected:                5.000000000E-01
   @S   Observed:                5.000000000E-01

    Orbital Energies (a.u.)
    -----------------------

    Alpha Occupied:                                                       

       1Ap   -15.918391     2Ap    -1.562330     3Ap    -1.011156  
       1App   -1.011156     4Ap    -0.945772  

    Alpha Virtual:                                                        

       5Ap     0.134344     6Ap     0.203343     2App    0.203343  

    Beta Occupied:                                                        

       1Ap   -15.886508     2Ap    -1.428101     3Ap    -0.971048  
       1App   -0.971048  

    Beta Virtual:                                                         

       4Ap    -0.181875     5Ap     0.167535     6Ap     0.238002  
       2App    0.238002  

    Final Occupation by Irrep:
             Ap   App 
    DOCC [     3,    1 ]
    SOCC [     1,    0 ]

  Energy converged.

  @UHF Final Energy:   -55.18516793133504

   => Energetics <=

    Nuclear Repulsion Energy =             11.0870476961531015
    One-Electron Energy =                 -92.8389235247138629
    Two-Electron Energy =                  26.5667078972257258
    DFT Exchange-Correlation Energy =       0.0000000000000000
    Empirical Dispersion Energy =           0.0000000000000000
    PCM Polarization Energy =               0.0000000000000000
    EFP Energy =                            0.0000000000000000
    Total Energy =                        -55.1851679313350303

    Alert: EFP and PCM quantities not currently incorporated into SCF psivars.

Properties will be evaluated at   0.000000,   0.000000,   0.000000 Bohr
  ==> Properties <==


Properties computed using the SCF density matrix

  Nuclear Dipole Moment: (a.u.)
     X:    -0.0000      Y:    -0.8406      Z:     0.0000

  Electronic Dipole Moment: (a.u.)
     X:     0.0000      Y:     0.2866      Z:     0.0000

  Dipole Moment: (a.u.)
     X:     0.0000      Y:    -0.5540      Z:     0.0000     Total:     0.5540

  Dipole Moment: (Debye)
     X:     0.0000      Y:    -1.4081      Z:     0.0000     Total:     1.4081


  Saving occupied orbitals to File 180.

  UHF NO Occupations:
  HONO-2 :    3 Ap 1.9980250
  HONO-1 :    1App 1.9980250
  HONO-0 :    4 Ap 1.0000000
  LUNO+0 :    2App 0.0019750
  LUNO+1 :    5 Ap 0.0019750
  LUNO+2 :    6 Ap 0.0012735


*** tstop() called on ds1.sherrill.chemistry.gatech.edu at Mon Mar 14 15:24:26 2016
Module time:
	user time   =       0.02 seconds =       0.00 minutes
	system time =       0.01 seconds =       0.00 minutes
	total time  =          0 seconds =       0.00 minutes
Total time:
	user time   =       0.56 seconds =       0.01 minutes
	system time =       0.84 seconds =       0.01 minutes
	total time  =          2 seconds =       0.03 minutes

*** tstart() called on ds1.sherrill.chemistry.gatech.edu
*** at Mon Mar 14 15:24:26 2016



	***********************************************************************************
	*                        Density Cumulant Functional Theory                       *
	*                by Alexander Sokolov, Andy Simmonett, and Xiao Wang              *
	***********************************************************************************


	Transforming two-electron integrals (transformation type: unrestricted)...
	Computing MP2 amplitude guess...

	*Total Hartree-Fock energy        =  -55.185167931335037
	 Alpha - Alpha MP2 energy         =   -0.001541722101432
	 Alpha - Beta  MP2 energy         =   -0.041619189769286
	 Beta  - Beta  MP2 energy         =   -0.001824265537367
	 Total MP2 correlation energy     =   -0.044985177408085
	*Total MP2 energy                 =  -55.230153108743124

	DCFT Functional:    		 ODC-12
	DCFT Type:          		 CONV
	Algorithm:          		 QC
	AO-Basis Integrals: 		 NONE
	QC type:            		 SIMULTANEOUS
	QC coupling:        		 FALSE

	*==========================================================================================*
	* Cycle   RMS Orb Grad   RMS Lambda Error    delta E         Total Energy     NI(NR)  DIIS *
	*------------------------------------------------------------------------------------------*
About to Copied C matrices
Copied C matrices
Compute scf_error_vector
	* 1        4.879e-03         3.091e-02     -1.262e-02    -55.242768911834432    16        *
	* 2        2.793e-03         1.536e-03     -7.962e-03    -55.250730925518511    14        *
	* 3        5.417e-04         6.645e-04     -7.878e-05    -55.250809707169715    14    S   *
	* 4        2.117e-04         1.266e-04     -3.581e-06    -55.250813288217508    13    S   *
	* 5        5.486e-05         5.337e-05     -2.724e-07    -55.250813560596519    12    S   *
	* 6        2.059e-05         1.271e-05     -2.506e-08    -55.250813585653198    12    S/E *
	* 7        2.744e-07         3.528e-07     -2.786e-09    -55.250813588439101     8    S/E *
	* 8        1.467e-07         3.505e-08     -1.592e-12    -55.250813588440693     7    S/E *
	* 9        3.441e-09         3.362e-09     -1.279e-13    -55.250813588440820     5    S/E *
	* 10       5.717e-10         2.949e-10      7.105e-15    -55.250813588440813     4    S/E *
	* 11       1.094e-10         7.619e-11      0.000e+00    -55.250813588440813     3    S/E *
	* 12       9.678e-12         4.673e-12      7.105e-15    -55.250813588440806     1    S/E *
	* 13       2.685e-12         1.070e-12     -7.105e-15    -55.250813588440813     1    S/E *
	* 14       2.535e-13         1.991e-13      0.000e+00    -55.250813588440813     1    S/E *
	*==========================================================================================*

	*   ODC-12 SCF Energy                                 =     -55.086226756312975
	*   ODC-12 Lambda Energy                              =      -0.164586832127841
	*   ODC-12 Total Energy                               =     -55.250813588440813

	Evaluating three-particle DCFT energy correction...

	Semicanonicalizing OVVV integrals ... 			DONE
	Semicanonicalizing OOOV integrals ... 			DONE
	Semicanonicalizing density cumulant ...			DONE

	*Lambda_3 Energy (AAA)                             =   -0.000000259395284
	*Lambda_3 Energy (AAB)                             =   -0.000124721011601
	*Lambda_3 Energy (ABB)                             =   -0.000133557188064
	*Lambda_3 Energy (BBB)                             =   -0.000000286943048

	*DCFT Three-particle Energy                        =   -0.000258824537996
	*DCFT Total Energy                                 =  -55.251072412978807

	Orbital occupations:
		Alpha occupied orbitals
		   1Ap       1.0000     2Ap       0.9957     3Ap       0.9916     4Ap       0.9866  
		   1App      0.9866  

		Beta occupied orbitals
		   1Ap       1.0000     2Ap       0.9910     3Ap       0.9845     1App      0.9845  
		

		Alpha virtual orbitals
		   2App      0.0142     5Ap       0.0142     6Ap       0.0112  

		Beta virtual orbitals
		   4Ap       0.0119     2App      0.0119     5Ap       0.0099     6Ap       0.0061  
		



Properties will be evaluated at   0.000000,   0.000000,   0.000000 Bohr

Properties computed using the ODC-12 density matrix

  Nuclear Dipole Moment: (a.u.)
     X:    -0.0000      Y:    -0.8406      Z:     0.0000

  Electronic Dipole Moment: (a.u.)
     X:     0.0000      Y:     0.3285      Z:     0.0000

  Dipole Moment: (a.u.)
     X:     0.0000      Y:    -0.5120      Z:     0.0000     Total:     0.5120

  Dipole Moment: (Debye)
     X:     0.0000      Y:    -1.3015      Z:     0.0000     Total:     1.3015


*** tstop() called on ds1.sherrill.chemistry.gatech.edu at Mon Mar 14 15:24:27 2016
Module time:
	user time   =       0.26 seconds =       0.00 minutes
	system time =       0.43 seconds =       0.01 minutes
	total time  =          1 seconds =       0.02 minutes
Total time:
	user time   =       0.83 seconds =       0.01 minutes
	system time =       1.27 seconds =       0.02 minutes
	total time  =          3 seconds =       0.05 minutes
	ODC-12 SCF Energy (qc, qc_type=simultaneous, ao_basis=none).......PASSED
	ODC-12 Energy (qc, qc_type=simultaneous, ao_basis=none)...........PASSED
	ODC-12 Lambda_3 Energy (qc, qc_type=simultaneous, ao_basis=none)..PASSED
	ODC-12 Total Energy (qc, qc_type=simultaneous, ao_basis=none).....PASSED

*** tstart() called on ds1.sherrill.chemistry.gatech.edu
*** at Mon Mar 14 15:24:27 2016


         ---------------------------------------------------------
                                   SCF
            by Justin Turney, Rob Parrish, and Andy Simmonett
                              UHF Reference
                        1 Threads,    250 MiB Core
         ---------------------------------------------------------

  ==> Geometry <==

    Molecular point group: cs
    Full point group: C3v

    Geometry (in Angstrom), charge = 1, multiplicity = 2:

       Center              X                  Y                   Z               Mass       
    ------------   -----------------  -----------------  -----------------  -----------------
           N          0.000000000000     0.064518610227     0.000000000000    14.003074004780
           H         -0.513830927662    -0.298814723106     0.889981273211     1.007825032070
           H         -0.513830927662    -0.298814723106    -0.889981273211     1.007825032070
           H          1.027661855324    -0.298814723106     0.000000000000     1.007825032070

  Running in cs symmetry.

  Rotational constants: A =      8.75818  B =      8.75818  C =      5.27946 [cm^-1]
  Rotational constants: A = 262563.74356  B = 262563.74356  C = 158274.27281 [MHz]
  Nuclear repulsion =   11.087047696153101

  Charge       = 1
  Multiplicity = 2
  Electrons    = 9
  Nalpha       = 5
  Nbeta        = 4

  ==> Algorithm <==

  SCF Algorithm Type is PK.
  DIIS enabled.
  MOM disabled.
  Fractional occupation disabled.
  Guess Type is CORE.
  Energy threshold   = 1.00e-08
  Density threshold  = 1.00e-12
  Integral threshold = 0.00e+00

  ==> Primary Basis <==

  Basis Set: STO-3G
    Number of shells: 6
    Number of basis function: 8
    Number of Cartesian functions: 8
    Spherical Harmonics?: true
    Max angular momentum: 1

  ==> Pre-Iterations <==

   -------------------------------------------------------
    Irrep   Nso     Nmo     Nalpha   Nbeta   Ndocc  Nsocc
   -------------------------------------------------------
     A'         6       6       0       0       0       0
     A"         2       2       0       0       0       0
   -------------------------------------------------------
    Total       8       8       5       4       4       1
   -------------------------------------------------------

  ==> Integral Setup <==

	Batch   1 pq = [       0,      24] index = [             0,300]
  ==> DiskJK: Disk-Based J/K Matrices <==

    J tasked:                  Yes
    K tasked:                  Yes
    wK tasked:                  No
    Memory (MB):               178
    Schwarz Cutoff:          1E-12

  Minimum eigenvalue in the overlap matrix is 3.1845019414E-01.
  Using Symmetric Orthogonalization.
  SCF Guess: Core (One-Electron) Hamiltonian.

  ==> Iterations <==

                        Total Energy        Delta E     RMS |[F,P]|

   @UHF iter   1:   -53.27594853162467   -5.32759e+01   1.73080e-01 
   @UHF iter   2:   -55.15151993103486   -1.87557e+00   3.54518e-02 DIIS
   @UHF iter   3:   -55.18383682116791   -3.23169e-02   4.57083e-03 DIIS
   @UHF iter   4:   -55.18500083557219   -1.16401e-03   1.51013e-03 DIIS
   @UHF iter   5:   -55.18514170729537   -1.40872e-04   5.45609e-04 DIIS
   @UHF iter   6:   -55.18516187848835   -2.01712e-05   2.46844e-04 DIIS
   @UHF iter   7:   -55.18516702001164   -5.14152e-06   9.82434e-05 DIIS
   @UHF iter   8:   -55.18516793023390   -9.10222e-07   4.52005e-06 DIIS
   @UHF iter   9:   -55.18516793133180   -1.09790e-09   3.36005e-07 DIIS
   @UHF iter  10:   -55.18516793133501   -3.21165e-12   1.71604e-08 DIIS
   @UHF iter  11:   -55.18516793133502   -1.42109e-14   2.00183e-09 DIIS
   @UHF iter  12:   -55.18516793133502    0.00000e+00   3.15986e-11 DIIS
   @UHF iter  13:   -55.18516793133504   -1.42109e-14   3.46649e-13 DIIS

  ==> Post-Iterations <==

   @Spin Contamination Metric:   1.043752011E-02
   @S^2 Expected:                7.500000000E-01
   @S^2 Observed:                7.604375201E-01
   @S   Expected:                5.000000000E-01
   @S   Observed:                5.000000000E-01

    Orbital Energies (a.u.)
    -----------------------

    Alpha Occupied:                                                       

       1Ap   -15.918391     2Ap    -1.562330     3Ap    -1.011156  
       1App   -1.011156     4Ap    -0.945772  

    Alpha Virtual:                                                        

       5Ap     0.134344     6Ap     0.203343     2App    0.203343  

    Beta Occupied:                                                        

       1Ap   -15.886508     2Ap    -1.428101     3Ap    -0.971048  
       1App   -0.971048  

    Beta Virtual:                                                         

       4Ap    -0.181875     5Ap     0.167535     6Ap     0.238002  
       2App    0.238002  

    Final Occupation by Irrep:
             Ap   App 
    DOCC [     3,    1 ]
    SOCC [     1,    0 ]

  Energy converged.

  @UHF Final Energy:   -55.18516793133504

   => Energetics <=

    Nuclear Repulsion Energy =             11.0870476961531015
    One-Electron Energy =                 -92.8389235247138487
    Two-Electron Energy =                  26.5667078972257116
    DFT Exchange-Correlation Energy =       0.0000000000000000
    Empirical Dispersion Energy =           0.0000000000000000
    PCM Polarization Energy =               0.0000000000000000
    EFP Energy =                            0.0000000000000000
    Total Energy =                        -55.1851679313350303

    Alert: EFP and PCM quantities not currently incorporated into SCF psivars.

Properties will be evaluated at   0.000000,   0.000000,   0.000000 Bohr
  ==> Properties <==


Properties computed using the SCF density matrix

  Nuclear Dipole Moment: (a.u.)
     X:    -0.0000      Y:    -0.8406      Z:     0.0000

  Electronic Dipole Moment: (a.u.)
     X:     0.0000      Y:     0.2866      Z:     0.0000

  Dipole Moment: (a.u.)
     X:     0.0000      Y:    -0.5540      Z:     0.0000     Total:     0.5540

  Dipole Moment: (Debye)
     X:     0.0000      Y:    -1.4081      Z:     0.0000     Total:     1.4081


  Saving occupied orbitals to File 180.

  UHF NO Occupations:
  HONO-2 :    3 Ap 1.9980250
  HONO-1 :    1App 1.9980250
  HONO-0 :    4 Ap 1.0000000
  LUNO+0 :    2App 0.0019750
  LUNO+1 :    5 Ap 0.0019750
  LUNO+2 :    6 Ap 0.0012735


*** tstop() called on ds1.sherrill.chemistry.gatech.edu at Mon Mar 14 15:24:27 2016
Module time:
	user time   =       0.02 seconds =       0.00 minutes
	system time =       0.01 seconds =       0.00 minutes
	total time  =          0 seconds =       0.00 minutes
Total time:
	user time   =       0.89 seconds =       0.01 minutes
	system time =       1.28 seconds =       0.02 minutes
	total time  =          3 seconds =       0.05 minutes

*** tstart() called on ds1.sherrill.chemistry.gatech.edu
*** at Mon Mar 14 15:24:27 2016



	***********************************************************************************
	*                        Density Cumulant Functional Theory                       *
	*                by Alexander Sokolov, Andy Simmonett, and Xiao Wang              *
	***********************************************************************************


	Transforming two-electron integrals (transformation type: unrestricted)...
	Computing MP2 amplitude guess...

	*Total Hartree-Fock energy        =  -55.185167931335037
	 Alpha - Alpha MP2 energy         =   -0.001541722101432
	 Alpha - Beta  MP2 energy         =   -0.041619189769297
	 Beta  - Beta  MP2 energy         =   -0.001824265537367
	 Total MP2 correlation energy     =   -0.044985177408096
	*Total MP2 energy                 =  -55.230153108743131

	DCFT Functional:    		 ODC-13
	DCFT Type:          		 CONV
	Algorithm:          		 SIMULTANEOUS
	AO-Basis Integrals: 		 NONE

	*=================================================================================*
	* Cycle   Max Orb Grad    RMS Lambda Error   delta E        Total Energy     DIIS *
	*---------------------------------------------------------------------------------*
	* 1        2.262e-02         8.386e-03     -5.666e-02    -55.286813388018160      *
	* 2        6.006e-03         3.719e-03      3.487e-02    -55.251946143695491      *
	* 3        4.330e-03         1.908e-03     -1.983e-04    -55.252144467476789      *
	* 4        2.528e-03         1.155e-03      1.871e-04    -55.251957346298802      *
	* 5        1.797e-03         7.597e-04      1.747e-04    -55.251782627972354      *
	* 6        1.217e-03         5.229e-04      1.255e-04    -55.251657121766492      *
	* 7        8.453e-04         3.679e-04      9.064e-05    -55.251566478785684  S   *
	* 8        5.895e-04         2.617e-04      6.607e-05    -55.251500413126834  S   *
	* 9        4.147e-04         1.872e-04      4.858e-05    -55.251451829887387  S   *
	* 10       2.933e-04         1.343e-04      3.578e-05    -55.251416051602995  S/E *
	* 11       1.741e-06         7.428e-07      3.270e-04    -55.251089069569275  S/E *
	* 12       6.542e-07         2.002e-07     -2.288e-04    -55.251317890898299  S/E *
	* 13       2.167e-07         8.459e-08     -1.317e-06    -55.251319207548811  S/E *
	* 14       3.001e-08         1.606e-08      2.765e-07    -55.251318931006480  S/E *
	* 15       1.303e-08         5.071e-09     -1.664e-07    -55.251319097416591  S/E *
	* 16       3.000e-09         1.120e-09      1.936e-08    -55.251319078059389  S/E *
	* 17       8.942e-10         3.886e-10     -3.969e-09    -55.251319082028310  S/E *
	* 18       2.474e-10         1.487e-10     -3.268e-11    -55.251319082060995  S/E *
	* 19       7.822e-11         5.174e-11     -1.154e-10    -55.251319082176444  S/E *
	* 20       1.982e-11         5.925e-12     -1.668e-10    -55.251319082343279  S/E *
	* 21       6.945e-12         2.949e-12     -2.409e-12    -55.251319082345688  S/E *
	* 22       2.274e-12         1.257e-12      4.732e-12    -55.251319082340956  S/E *
	* 23       1.126e-12         8.056e-13      5.826e-13    -55.251319082340373  S/E *
	* 24       6.533e-13         4.303e-13      1.371e-12    -55.251319082339002  S/E *
	*=================================================================================*

	*   ODC-13 SCF Energy                                 =     -55.082458005629164
	*   ODC-13 Lambda Energy                              =      -0.168861076709837
	*   ODC-13 Total Energy                               =     -55.251319082339002

	Evaluating three-particle DCFT energy correction...

	Semicanonicalizing OVVV integrals ... 			DONE
	Semicanonicalizing OOOV integrals ... 			DONE
	Semicanonicalizing density cumulant ...			DONE

	*Lambda_3 Energy (AAA)                             =   -0.000000262628458
	*Lambda_3 Energy (AAB)                             =   -0.000129234057059
	*Lambda_3 Energy (ABB)                             =   -0.000138613863844
	*Lambda_3 Energy (BBB)                             =   -0.000000295741641

	*DCFT Three-particle Energy                        =   -0.000268406291002
	*DCFT Total Energy                                 =  -55.251587488630001

	Orbital occupations:
		Alpha occupied orbitals
		   1Ap       1.0000     2Ap       0.9954     3Ap       0.9912     1App      0.9862  
		   4Ap       0.9862  

		Beta occupied orbitals
		   1Ap       1.0000     2Ap       0.9907     3Ap       0.9839     1App      0.9839  
		

		Alpha virtual orbitals
		   2App      0.0148     5Ap       0.0148     6Ap       0.0115  

		Beta virtual orbitals
		   4Ap       0.0123     2App      0.0123     5Ap       0.0102     6Ap       0.0065  
		



Properties will be evaluated at   0.000000,   0.000000,   0.000000 Bohr

Properties computed using the ODC-13 density matrix

  Nuclear Dipole Moment: (a.u.)
     X:    -0.0000      Y:    -0.8406      Z:     0.0000

  Electronic Dipole Moment: (a.u.)
     X:     0.0000      Y:     0.3298      Z:     0.0000

  Dipole Moment: (a.u.)
     X:     0.0000      Y:    -0.5108      Z:     0.0000     Total:     0.5108

  Dipole Moment: (Debye)
     X:     0.0000      Y:    -1.2983      Z:     0.0000     Total:     1.2983


*** tstop() called on ds1.sherrill.chemistry.gatech.edu at Mon Mar 14 15:24:28 2016
Module time:
	user time   =       0.46 seconds =       0.01 minutes
	system time =       0.80 seconds =       0.01 minutes
	total time  =          1 seconds =       0.02 minutes
Total time:
	user time   =       1.35 seconds =       0.02 minutes
	system time =       2.08 seconds =       0.03 minutes
	total time  =          4 seconds =       0.07 minutes
	ODC-13 SCF Energy (simultaneous, ao_basis=none)...................PASSED
	ODC-13 Energy (simultaneous, ao_basis=none).......................PASSED
	ODC-13 Lambda_3 Energy (simultaneous, ao_basis=none)..............PASSED
	ODC-13 Total Energy (simultaneous, ao_basis=none).................PASSED

*** tstart() called on ds1.sherrill.chemistry.gatech.edu
*** at Mon Mar 14 15:24:28 2016


         ---------------------------------------------------------
                                   SCF
            by Justin Turney, Rob Parrish, and Andy Simmonett
                              UHF Reference
                        1 Threads,    250 MiB Core
         ---------------------------------------------------------

  ==> Geometry <==

    Molecular point group: cs
    Full point group: C3v

    Geometry (in Angstrom), charge = 1, multiplicity = 2:

       Center              X                  Y                   Z               Mass       
    ------------   -----------------  -----------------  -----------------  -----------------
           N          0.000000000000     0.064518610227     0.000000000000    14.003074004780
           H         -0.513830927662    -0.298814723106     0.889981273211     1.007825032070
           H         -0.513830927662    -0.298814723106    -0.889981273211     1.007825032070
           H          1.027661855324    -0.298814723106     0.000000000000     1.007825032070

  Running in cs symmetry.

  Rotational constants: A =      8.75818  B =      8.75818  C =      5.27946 [cm^-1]
  Rotational constants: A = 262563.74356  B = 262563.74356  C = 158274.27281 [MHz]
  Nuclear repulsion =   11.087047696153101

  Charge       = 1
  Multiplicity = 2
  Electrons    = 9
  Nalpha       = 5
  Nbeta        = 4

  ==> Algorithm <==

  SCF Algorithm Type is PK.
  DIIS enabled.
  MOM disabled.
  Fractional occupation disabled.
  Guess Type is CORE.
  Energy threshold   = 1.00e-08
  Density threshold  = 1.00e-12
  Integral threshold = 0.00e+00

  ==> Primary Basis <==

  Basis Set: STO-3G
    Number of shells: 6
    Number of basis function: 8
    Number of Cartesian functions: 8
    Spherical Harmonics?: true
    Max angular momentum: 1

  ==> Pre-Iterations <==

   -------------------------------------------------------
    Irrep   Nso     Nmo     Nalpha   Nbeta   Ndocc  Nsocc
   -------------------------------------------------------
     A'         6       6       0       0       0       0
     A"         2       2       0       0       0       0
   -------------------------------------------------------
    Total       8       8       5       4       4       1
   -------------------------------------------------------

  ==> Integral Setup <==

	Batch   1 pq = [       0,      24] index = [             0,300]
  ==> DiskJK: Disk-Based J/K Matrices <==

    J tasked:                  Yes
    K tasked:                  Yes
    wK tasked:                  No
    Memory (MB):               178
    Schwarz Cutoff:          1E-12

  Minimum eigenvalue in the overlap matrix is 3.1845019414E-01.
  Using Symmetric Orthogonalization.
  SCF Guess: Core (One-Electron) Hamiltonian.

  ==> Iterations <==

                        Total Energy        Delta E     RMS |[F,P]|

   @UHF iter   1:   -53.27594853162467   -5.32759e+01   1.73080e-01 
   @UHF iter   2:   -55.15151993103485   -1.87557e+00   3.54518e-02 DIIS
   @UHF iter   3:   -55.18383682116791   -3.23169e-02   4.57083e-03 DIIS
   @UHF iter   4:   -55.18500083557219   -1.16401e-03   1.51013e-03 DIIS
   @UHF iter   5:   -55.18514170729539   -1.40872e-04   5.45609e-04 DIIS
   @UHF iter   6:   -55.18516187848834   -2.01712e-05   2.46844e-04 DIIS
   @UHF iter   7:   -55.18516702001164   -5.14152e-06   9.82434e-05 DIIS
   @UHF iter   8:   -55.18516793023388   -9.10222e-07   4.52005e-06 DIIS
   @UHF iter   9:   -55.18516793133178   -1.09790e-09   3.36005e-07 DIIS
   @UHF iter  10:   -55.18516793133502   -3.24007e-12   1.71604e-08 DIIS
   @UHF iter  11:   -55.18516793133502    0.00000e+00   2.00183e-09 DIIS
   @UHF iter  12:   -55.18516793133502    0.00000e+00   3.15987e-11 DIIS
   @UHF iter  13:   -55.18516793133502    0.00000e+00   3.46458e-13 DIIS

  ==> Post-Iterations <==

   @Spin Contamination Metric:   1.043752011E-02
   @S^2 Expected:                7.500000000E-01
   @S^2 Observed:                7.604375201E-01
   @S   Expected:                5.000000000E-01
   @S   Observed:                5.000000000E-01

    Orbital Energies (a.u.)
    -----------------------

    Alpha Occupied:                                                       

       1Ap   -15.918391     2Ap    -1.562330     3Ap    -1.011156  
       1App   -1.011156     4Ap    -0.945772  

    Alpha Virtual:                                                        

       5Ap     0.134344     6Ap     0.203343     2App    0.203343  

    Beta Occupied:                                                        

       1Ap   -15.886508     2Ap    -1.428101     3Ap    -0.971048  
       1App   -0.971048  

    Beta Virtual:                                                         

       4Ap    -0.181875     5Ap     0.167535     6Ap     0.238002  
       2App    0.238002  

    Final Occupation by Irrep:
             Ap   App 
    DOCC [     3,    1 ]
    SOCC [     1,    0 ]

  Energy converged.

  @UHF Final Energy:   -55.18516793133502

   => Energetics <=

    Nuclear Repulsion Energy =             11.0870476961531015
    One-Electron Energy =                 -92.8389235247138345
    Two-Electron Energy =                  26.5667078972257116
    DFT Exchange-Correlation Energy =       0.0000000000000000
    Empirical Dispersion Energy =           0.0000000000000000
    PCM Polarization Energy =               0.0000000000000000
    EFP Energy =                            0.0000000000000000
    Total Energy =                        -55.1851679313350161

    Alert: EFP and PCM quantities not currently incorporated into SCF psivars.

Properties will be evaluated at   0.000000,   0.000000,   0.000000 Bohr
  ==> Properties <==


Properties computed using the SCF density matrix

  Nuclear Dipole Moment: (a.u.)
     X:    -0.0000      Y:    -0.8406      Z:     0.0000

  Electronic Dipole Moment: (a.u.)
     X:     0.0000      Y:     0.2866      Z:     0.0000

  Dipole Moment: (a.u.)
     X:     0.0000      Y:    -0.5540      Z:     0.0000     Total:     0.5540

  Dipole Moment: (Debye)
     X:     0.0000      Y:    -1.4081      Z:     0.0000     Total:     1.4081


  Saving occupied orbitals to File 180.

  UHF NO Occupations:
  HONO-2 :    1App 1.9980250
  HONO-1 :    3 Ap 1.9980250
  HONO-0 :    4 Ap 1.0000000
  LUNO+0 :    5 Ap 0.0019750
  LUNO+1 :    2App 0.0019750
  LUNO+2 :    6 Ap 0.0012735


*** tstop() called on ds1.sherrill.chemistry.gatech.edu at Mon Mar 14 15:24:28 2016
Module time:
	user time   =       0.01 seconds =       0.00 minutes
	system time =       0.01 seconds =       0.00 minutes
	total time  =          0 seconds =       0.00 minutes
Total time:
	user time   =       1.39 seconds =       0.02 minutes
	system time =       2.09 seconds =       0.03 minutes
	total time  =          4 seconds =       0.07 minutes

*** tstart() called on ds1.sherrill.chemistry.gatech.edu
*** at Mon Mar 14 15:24:28 2016



	***********************************************************************************
	*                        Density Cumulant Functional Theory                       *
	*                by Alexander Sokolov, Andy Simmonett, and Xiao Wang              *
	***********************************************************************************


	Transforming two-electron integrals (transformation type: unrestricted)...
	Computing MP2 amplitude guess...

	*Total Hartree-Fock energy        =  -55.185167931335023
	 Alpha - Alpha MP2 energy         =   -0.001540484296766
	 Alpha - Beta  MP2 energy         =   -0.041579861671191
	 Beta  - Beta  MP2 energy         =   -0.001822521524690
	 Total MP2 correlation energy     =   -0.044942867492647
	*Total MP2 energy                 =  -55.230110798827667

	DCFT Functional:    		 ODC-13
	DCFT Type:          		 CONV
	Algorithm:          		 SIMULTANEOUS
	AO-Basis Integrals: 		 DISK

	*=================================================================================*
	* Cycle   Max Orb Grad    RMS Lambda Error   delta E        Total Energy     DIIS *
	*---------------------------------------------------------------------------------*
	* 1        2.261e-02         8.401e-03     -5.876e-02    -55.288875057513586      *
	* 2        6.000e-03         3.727e-03      3.693e-02    -55.251943549848157      *
	* 3        4.330e-03         1.911e-03     -2.016e-04    -55.252145165834946      *
	* 4        2.529e-03         1.157e-03      1.872e-04    -55.251957990896450      *
	* 5        1.798e-03         7.605e-04      1.749e-04    -55.251783060828522      *
	* 6        1.218e-03         5.234e-04      1.257e-04    -55.251657409022933      *
	* 7        8.458e-04         3.682e-04      9.073e-05    -55.251566676509668  S   *
	* 8        5.899e-04         2.619e-04      6.612e-05    -55.251500553246544  S   *
	* 9        4.149e-04         1.873e-04      4.862e-05    -55.251451930861364  S   *
	* 10       2.934e-04         1.344e-04      3.581e-05    -55.251416124906704  S/E *
	* 11       1.738e-06         7.417e-07      3.273e-04    -55.251088874189143  S/E *
	* 12       6.549e-07         1.998e-07     -2.290e-04    -55.251317894844654  S/E *
	* 13       2.180e-07         8.475e-08     -1.313e-06    -55.251319207809317  S/E *
	* 14       2.999e-08         1.610e-08      2.771e-07    -55.251318930728708  S/E *
	* 15       1.302e-08         5.073e-09     -1.667e-07    -55.251319097425771  S/E *
	* 16       3.007e-09         1.122e-09      1.935e-08    -55.251319078077977  S/E *
	* 17       8.967e-10         3.892e-10     -3.945e-09    -55.251319082022889  S/E *
	* 18       2.489e-10         1.495e-10     -3.784e-11    -55.251319082060725  S/E *
	* 19       7.830e-11         5.183e-11     -1.144e-10    -55.251319082175172  S/E *
	* 20       1.990e-11         5.962e-12     -1.680e-10    -55.251319082343194  S/E *
	* 21       6.972e-12         2.954e-12     -2.522e-12    -55.251319082345717  S/E *
	* 22       2.287e-12         1.256e-12      4.775e-12    -55.251319082340942  S/E *
	* 23       1.131e-12         8.037e-13      5.755e-13    -55.251319082340366  S/E *
	* 24       6.584e-13         4.294e-13      1.371e-12    -55.251319082338995  S/E *
	*=================================================================================*

	*   ODC-13 SCF Energy                                 =     -55.082458005629150
	*   ODC-13 Lambda Energy                              =      -0.168861076709847
	*   ODC-13 Total Energy                               =     -55.251319082338995

	Evaluating three-particle DCFT energy correction...

	Semicanonicalizing OVVV integrals ... 			DONE
	Semicanonicalizing OOOV integrals ... 			DONE
	Semicanonicalizing density cumulant ...			DONE

	*Lambda_3 Energy (AAA)                             =   -0.000000262628458
	*Lambda_3 Energy (AAB)                             =   -0.000129234057059
	*Lambda_3 Energy (ABB)                             =   -0.000138613863844
	*Lambda_3 Energy (BBB)                             =   -0.000000295741641

	*DCFT Three-particle Energy                        =   -0.000268406291002
	*DCFT Total Energy                                 =  -55.251587488629994

	Orbital occupations:
		Alpha occupied orbitals
		   1Ap       1.0000     2Ap       0.9954     3Ap       0.9912     4Ap       0.9862  
		   1App      0.9862  

		Beta occupied orbitals
		   1Ap       1.0000     2Ap       0.9907     3Ap       0.9839     1App      0.9839  
		

		Alpha virtual orbitals
		   2App      0.0148     5Ap       0.0148     6Ap       0.0115  

		Beta virtual orbitals
		   2App      0.0123     4Ap       0.0123     5Ap       0.0102     6Ap       0.0065  
		



Properties will be evaluated at   0.000000,   0.000000,   0.000000 Bohr

Properties computed using the ODC-13 density matrix

  Nuclear Dipole Moment: (a.u.)
     X:    -0.0000      Y:    -0.8406      Z:     0.0000

  Electronic Dipole Moment: (a.u.)
     X:     0.0000      Y:     0.3298      Z:     0.0000

  Dipole Moment: (a.u.)
     X:     0.0000      Y:    -0.5108      Z:     0.0000     Total:     0.5108

  Dipole Moment: (Debye)
     X:     0.0000      Y:    -1.2983      Z:     0.0000     Total:     1.2983


*** tstop() called on ds1.sherrill.chemistry.gatech.edu at Mon Mar 14 15:24:29 2016
Module time:
	user time   =       0.38 seconds =       0.01 minutes
	system time =       0.50 seconds =       0.01 minutes
	total time  =          1 seconds =       0.02 minutes
Total time:
	user time   =       1.77 seconds =       0.03 minutes
	system time =       2.59 seconds =       0.04 minutes
	total time  =          5 seconds =       0.08 minutes
	ODC-13 SCF Energy (simultaneous, ao_basis=disk)...................PASSED
	ODC-13 Energy (simultaneous, ao_basis=disk).......................PASSED
	ODC-13 Lambda_3 Energy (simultaneous, ao_basis=disk)..............PASSED
	ODC-13 Total Energy (simultaneous, ao_basis=disk).................PASSED

*** tstart() called on ds1.sherrill.chemistry.gatech.edu
*** at Mon Mar 14 15:24:29 2016


         ---------------------------------------------------------
                                   SCF
            by Justin Turney, Rob Parrish, and Andy Simmonett
                              UHF Reference
                        1 Threads,    250 MiB Core
         ---------------------------------------------------------

  ==> Geometry <==

    Molecular point group: cs
    Full point group: C3v

    Geometry (in Angstrom), charge = 1, multiplicity = 2:

       Center              X                  Y                   Z               Mass       
    ------------   -----------------  -----------------  -----------------  -----------------
           N          0.000000000000     0.064518610227     0.000000000000    14.003074004780
           H         -0.513830927662    -0.298814723106     0.889981273211     1.007825032070
           H         -0.513830927662    -0.298814723106    -0.889981273211     1.007825032070
           H          1.027661855324    -0.298814723106     0.000000000000     1.007825032070

  Running in cs symmetry.

  Rotational constants: A =      8.75818  B =      8.75818  C =      5.27946 [cm^-1]
  Rotational constants: A = 262563.74356  B = 262563.74356  C = 158274.27281 [MHz]
  Nuclear repulsion =   11.087047696153101

  Charge       = 1
  Multiplicity = 2
  Electrons    = 9
  Nalpha       = 5
  Nbeta        = 4

  ==> Algorithm <==

  SCF Algorithm Type is PK.
  DIIS enabled.
  MOM disabled.
  Fractional occupation disabled.
  Guess Type is CORE.
  Energy threshold   = 1.00e-08
  Density threshold  = 1.00e-12
  Integral threshold = 0.00e+00

  ==> Primary Basis <==

  Basis Set: STO-3G
    Number of shells: 6
    Number of basis function: 8
    Number of Cartesian functions: 8
    Spherical Harmonics?: true
    Max angular momentum: 1

  ==> Pre-Iterations <==

   -------------------------------------------------------
    Irrep   Nso     Nmo     Nalpha   Nbeta   Ndocc  Nsocc
   -------------------------------------------------------
     A'         6       6       0       0       0       0
     A"         2       2       0       0       0       0
   -------------------------------------------------------
    Total       8       8       5       4       4       1
   -------------------------------------------------------

  ==> Integral Setup <==

	Batch   1 pq = [       0,      24] index = [             0,300]
  ==> DiskJK: Disk-Based J/K Matrices <==

    J tasked:                  Yes
    K tasked:                  Yes
    wK tasked:                  No
    Memory (MB):               178
    Schwarz Cutoff:          1E-12

  Minimum eigenvalue in the overlap matrix is 3.1845019414E-01.
  Using Symmetric Orthogonalization.
  SCF Guess: Core (One-Electron) Hamiltonian.

  ==> Iterations <==

                        Total Energy        Delta E     RMS |[F,P]|

   @UHF iter   1:   -53.27594853162467   -5.32759e+01   1.73080e-01 
   @UHF iter   2:   -55.15151993103485   -1.87557e+00   3.54518e-02 DIIS
   @UHF iter   3:   -55.18383682116792   -3.23169e-02   4.57083e-03 DIIS
   @UHF iter   4:   -55.18500083557218   -1.16401e-03   1.51013e-03 DIIS
   @UHF iter   5:   -55.18514170729538   -1.40872e-04   5.45609e-04 DIIS
   @UHF iter   6:   -55.18516187848834   -2.01712e-05   2.46844e-04 DIIS
   @UHF iter   7:   -55.18516702001163   -5.14152e-06   9.82434e-05 DIIS
   @UHF iter   8:   -55.18516793023391   -9.10222e-07   4.52005e-06 DIIS
   @UHF iter   9:   -55.18516793133178   -1.09787e-09   3.36005e-07 DIIS
   @UHF iter  10:   -55.18516793133501   -3.22586e-12   1.71604e-08 DIIS
   @UHF iter  11:   -55.18516793133504   -2.84217e-14   2.00183e-09 DIIS
   @UHF iter  12:   -55.18516793133502    1.42109e-14   3.15982e-11 DIIS
   @UHF iter  13:   -55.18516793133502    0.00000e+00   3.46931e-13 DIIS

  ==> Post-Iterations <==

   @Spin Contamination Metric:   1.043752011E-02
   @S^2 Expected:                7.500000000E-01
   @S^2 Observed:                7.604375201E-01
   @S   Expected:                5.000000000E-01
   @S   Observed:                5.000000000E-01

    Orbital Energies (a.u.)
    -----------------------

    Alpha Occupied:                                                       

       1Ap   -15.918391     2Ap    -1.562330     3Ap    -1.011156  
       1App   -1.011156     4Ap    -0.945772  

    Alpha Virtual:                                                        

       5Ap     0.134344     6Ap     0.203343     2App    0.203343  

    Beta Occupied:                                                        

       1Ap   -15.886508     2Ap    -1.428101     1App   -0.971048  
       3Ap    -0.971048  

    Beta Virtual:                                                         

       4Ap    -0.181875     5Ap     0.167535     6Ap     0.238002  
       2App    0.238002  

    Final Occupation by Irrep:
             Ap   App 
    DOCC [     3,    1 ]
    SOCC [     1,    0 ]

  Energy converged.

  @UHF Final Energy:   -55.18516793133502

   => Energetics <=

    Nuclear Repulsion Energy =             11.0870476961531015
    One-Electron Energy =                 -92.8389235247138345
    Two-Electron Energy =                  26.5667078972257151
    DFT Exchange-Correlation Energy =       0.0000000000000000
    Empirical Dispersion Energy =           0.0000000000000000
    PCM Polarization Energy =               0.0000000000000000
    EFP Energy =                            0.0000000000000000
    Total Energy =                        -55.1851679313350161

    Alert: EFP and PCM quantities not currently incorporated into SCF psivars.

Properties will be evaluated at   0.000000,   0.000000,   0.000000 Bohr
  ==> Properties <==


Properties computed using the SCF density matrix

  Nuclear Dipole Moment: (a.u.)
     X:    -0.0000      Y:    -0.8406      Z:     0.0000

  Electronic Dipole Moment: (a.u.)
     X:     0.0000      Y:     0.2866      Z:     0.0000

  Dipole Moment: (a.u.)
     X:     0.0000      Y:    -0.5540      Z:     0.0000     Total:     0.5540

  Dipole Moment: (Debye)
     X:     0.0000      Y:    -1.4081      Z:     0.0000     Total:     1.4081


  Saving occupied orbitals to File 180.

  UHF NO Occupations:
  HONO-2 :    3 Ap 1.9980250
  HONO-1 :    1App 1.9980250
  HONO-0 :    4 Ap 1.0000000
  LUNO+0 :    2App 0.0019750
  LUNO+1 :    5 Ap 0.0019750
  LUNO+2 :    6 Ap 0.0012735


*** tstop() called on ds1.sherrill.chemistry.gatech.edu at Mon Mar 14 15:24:29 2016
Module time:
	user time   =       0.02 seconds =       0.00 minutes
	system time =       0.01 seconds =       0.00 minutes
	total time  =          0 seconds =       0.00 minutes
Total time:
	user time   =       1.82 seconds =       0.03 minutes
	system time =       2.60 seconds =       0.04 minutes
	total time  =          5 seconds =       0.08 minutes

*** tstart() called on ds1.sherrill.chemistry.gatech.edu
*** at Mon Mar 14 15:24:29 2016



	***********************************************************************************
	*                        Density Cumulant Functional Theory                       *
	*                by Alexander Sokolov, Andy Simmonett, and Xiao Wang              *
	***********************************************************************************


	Transforming two-electron integrals (transformation type: unrestricted)...
	Computing MP2 amplitude guess...

	*Total Hartree-Fock energy        =  -55.185167931335023
	 Alpha - Alpha MP2 energy         =   -0.001540484296766
	 Alpha - Beta  MP2 energy         =   -0.041579861671191
	 Beta  - Beta  MP2 energy         =   -0.001822521524690
	 Total MP2 correlation energy     =   -0.044942867492647
	*Total MP2 energy                 =  -55.230110798827667

	DCFT Functional:    		 ODC-13
	DCFT Type:          		 CONV
	Algorithm:          		 QC
	AO-Basis Integrals: 		 NONE
	QC type:            		 SIMULTANEOUS
	QC coupling:        		 FALSE

	*==========================================================================================*
	* Cycle   RMS Orb Grad   RMS Lambda Error    delta E         Total Energy     NI(NR)  DIIS *
	*------------------------------------------------------------------------------------------*
About to Copied C matrices
Copied C matrices
Compute scf_error_vector
	* 1        4.864e-03         3.102e-02     -1.278e-02    -55.242894659994661    16        *
	* 2        2.715e-03         7.872e-04     -7.929e-03    -55.250824000059588    14        *
	* 3        2.980e-04         5.434e-04     -4.829e-04    -55.251306916071478    14    S   *
	* 4        1.579e-04         1.742e-05     -7.124e-06    -55.251314040445799    12    S   *
	* 5        2.591e-05         3.696e-05     -5.020e-06    -55.251319060579590    12    S   *
	* 6        1.332e-05         2.607e-06      1.731e-07    -55.251318887519510    11    S/E *
	* 7        3.168e-07         5.778e-07     -1.918e-07    -55.251319079340682     8    S/E *
	* 8        1.102e-07         2.252e-08     -5.156e-09    -55.251319084496735     7    S/E *
	* 9        7.048e-09         6.493e-09      2.253e-09    -55.251319082244009     6    S/E *
	* 10       8.945e-10         5.467e-10     -1.009e-10    -55.251319082344885     4    S/E *
	* 11       1.161e-10         1.182e-10      8.896e-12    -55.251319082335989     3    S/E *
	* 12       1.317e-11         5.234e-12     -2.515e-12    -55.251319082338505     1    S/E *
	* 13       1.989e-12         1.832e-12     -6.111e-13    -55.251319082339116     1    S/E *
	* 14       7.007e-13         6.762e-13     -2.132e-14    -55.251319082339137     1    S/E *
	*==========================================================================================*

	*   ODC-13 SCF Energy                                 =     -55.082458005627124
	*   ODC-13 Lambda Energy                              =      -0.168861076712013
	*   ODC-13 Total Energy                               =     -55.251319082339137

	Evaluating three-particle DCFT energy correction...

	Semicanonicalizing OVVV integrals ... 			DONE
	Semicanonicalizing OOOV integrals ... 			DONE
	Semicanonicalizing density cumulant ...			DONE

	*Lambda_3 Energy (AAA)                             =   -0.000000262628458
	*Lambda_3 Energy (AAB)                             =   -0.000129234057060
	*Lambda_3 Energy (ABB)                             =   -0.000138613863845
	*Lambda_3 Energy (BBB)                             =   -0.000000295741641

	*DCFT Three-particle Energy                        =   -0.000268406291004
	*DCFT Total Energy                                 =  -55.251587488630143

	Orbital occupations:
		Alpha occupied orbitals
		   1Ap       1.0000     2Ap       0.9954     3Ap       0.9912     4Ap       0.9862  
		   1App      0.9862  

		Beta occupied orbitals
		   1Ap       1.0000     2Ap       0.9907     3Ap       0.9839     1App      0.9839  
		

		Alpha virtual orbitals
		   2App      0.0148     5Ap       0.0148     6Ap       0.0115  

		Beta virtual orbitals
		   2App      0.0123     4Ap       0.0123     5Ap       0.0102     6Ap       0.0065  
		



Properties will be evaluated at   0.000000,   0.000000,   0.000000 Bohr

Properties computed using the ODC-13 density matrix

  Nuclear Dipole Moment: (a.u.)
     X:    -0.0000      Y:    -0.8406      Z:     0.0000

  Electronic Dipole Moment: (a.u.)
     X:     0.0000      Y:     0.3298      Z:     0.0000

  Dipole Moment: (a.u.)
     X:     0.0000      Y:    -0.5108      Z:     0.0000     Total:     0.5108

  Dipole Moment: (Debye)
     X:     0.0000      Y:    -1.2983      Z:     0.0000     Total:     1.2983


*** tstop() called on ds1.sherrill.chemistry.gatech.edu at Mon Mar 14 15:24:30 2016
Module time:
	user time   =       0.30 seconds =       0.00 minutes
	system time =       0.38 seconds =       0.01 minutes
	total time  =          1 seconds =       0.02 minutes
Total time:
	user time   =       2.12 seconds =       0.04 minutes
	system time =       2.98 seconds =       0.05 minutes
	total time  =          6 seconds =       0.10 minutes
	ODC-13 SCF Energy (qc, qc_type=simultaneous, ao_basis=none).......PASSED
	ODC-13 Energy (qc, qc_type=simultaneous, ao_basis=none)...........PASSED
	ODC-13 Lambda_3 Energy (qc, qc_type=simultaneous, ao_basis=none)..PASSED
	ODC-13 Total Energy (qc, qc_type=simultaneous, ao_basis=none).....PASSED

*** PSI4 exiting successfully. Buy a developer a beer!
