
    -----------------------------------------------------------------------
          Psi4: An Open-Source Ab Initio Electronic Structure Package
                               Psi4 undefined 

                         Git: Rev {oscillator} 6a3e691 dirty


    D. G. A. Smith, L. A. Burns, A. C. Simmonett, R. M. Parrish,
    M. C. Schieber, R. Galvelis, P. Kraus, H. Kruse, R. Di Remigio,
    A. Alenaizan, A. M. James, S. Lehtola, J. P. Misiewicz, M. Scheurer,
    R. A. Shaw, J. B. Schriber, Y. Xie, Z. L. Glick, D. A. Sirianni,
    J. S. O'Brien, J. M. Waldrop, A. Kumar, E. G. Hohenstein,
    B. P. Pritchard, B. R. Brooks, H. F. Schaefer III, A. Yu. Sokolov,
    K. Patkowski, A. E. DePrince III, U. Bozkaya, R. A. King,
    F. A. Evangelista, J. M. Turney, T. D. Crawford, C. D. Sherrill,
    J. Chem. Phys. 152(18) 184108 (2020). https://doi.org/10.1063/5.0006002

                            Additional Code Authors
    E. T. Seidl, C. L. Janssen, E. F. Valeev, M. L. Leininger,
    J. F. Gonthier, R. M. Richard, H. R. McAlexander, M. Saitow, X. Wang,
    P. Verma, M. H. Lechner, and A. Jiang

             Previous Authors, Complete List of Code Contributors,
                       and Citations for Specific Modules
    https://github.com/psi4/psi4/blob/master/codemeta.json
    https://github.com/psi4/psi4/graphs/contributors
    http://psicode.org/psi4manual/master/introduction.html#citing-psifour

    -----------------------------------------------------------------------


    Psi4 started on: Wednesday, 30 March 2022 07:54PM

    Process ID: 43953
    Host:       Jonathons-MacBook-Pro.local
    PSIDATADIR: /Users/jonathonmisiewicz/psi4/objdir/stage/share/psi4
    Memory:     500.0 MiB
    Threads:    1
    
  ==> Input File <==

--------------------------------------------------------------------------
#! EOM-CCSD/6-31g excited state transition data for water cation

molecule h2o {
  1 2 
  O
  H 1 1 
  H 1 1 2 104.5
}

set {
  reference uhf 
  basis cc-pVDZ
  freeze_core true
  roots_per_irrep [0, 1, 1, 0]
}

wfn = properties('eom-ccsd', properties=['oscillator_strength'], return_wfn=True)[1]

### ccdensity checks

refnre     =   8.8014655645673745 # TEST
refscf     = -75.6332569214465593 # TEST
refccsd    = -75.803716136508982  # TEST
refoverlap =   0.95259415503      # TEST

compare_values(refnre, h2o.nuclear_repulsion_energy(), 6, "Nuclear Repulsion Energy") # TEST
compare_values(refscf, wfn.variable("SCF TOTAL ENERGY"), 6, "SCF Energy") # TEST
compare_values(refccsd, wfn.variable("CCSD TOTAL ENERGY"), 6, "CCSD Energy") # TEST
compare_values(refoverlap, wfn.variable("LEFT-RIGHT CCSD EIGENVECTOR OVERLAP"), 5, "Left-Right CCSD Overlap") # TEST

### Excitation energy checks

ref1B1 = -75.325751117648 # TEST
ref0A2 = -75.260476163556 # TEST

compare_values(ref1B1, core.variable("CCSD ROOT 1 (B1) TOTAL ENERGY"), 6, "Root 1 (A1) Energy") # TEST
compare_values(ref0A2, core.variable("CCSD ROOT 0 (A2) TOTAL ENERGY"), 6, "Root 0 (A2) Energy") # TEST

### Transition checks

test_data = { # TEST
"ROOT 0 (B1) -> ROOT 0 (A2)": {"OSCILLATOR STRENGTH (LEN)": 0.00407528, "EINSTEIN A (LEN)": 3.86413231e+07, "EINSTEIN B (LEN)": 1.36907729e+18}, # TEST
"ROOT 0 (B1) -> ROOT 1 (B1)": {"OSCILLATOR STRENGTH (LEN)": 0.00317063, "EINSTEIN A (LEN)": 2.32728034e+07, "EINSTEIN B (LEN)": 1.21063018e+18}, # TEST
"ROOT 1 (B1) -> ROOT 0 (A2)": {"OSCILLATOR STRENGTH (LEN)": 0.09372883, "EINSTEIN A (LEN)": 1.28314944e+07, "EINSTEIN B (LEN)": 2.62052705e+20}, # TEST
}

for transition, data in test_data.items(): # TEST
    for property, value in data.items(): # TEST
        # Change these numbers to 6 ASAP # TEST
        if "EINSTEIN" not in property: # TEST
            compare_values(value, wfn.variable(f"CC {transition} {property}"), 4, f"CC {transition} {property}") # TEST
            compare_values(value, wfn.variable(f"CCSD {transition} {property}"), 4, f"CCSD {transition} {property}") # TEST
        else: # TEST 
            # Large numbers need "special" testing. # TEST
            compare_values(value, wfn.variable(f"CC {transition} {property}"), f"CC {transition} {property}", atol=1e-6, rtol=1e-4) # TEST
            compare_values(value, wfn.variable(f"CCSD {transition} {property}"), f"CCSD {transition} {property}", atol=1e-6, rtol=1e-4) # TEST


--------------------------------------------------------------------------

*** tstart() called on Jonathons-MacBook-Pro.local
*** at Wed Mar 30 19:54:09 2022

   => Loading Basis Set <=

    Name: CC-PVDZ
    Role: ORBITAL
    Keyword: BASIS
    atoms 1   entry O          line   198 file /Users/jonathonmisiewicz/psi4/objdir/stage/share/psi4/basis/cc-pvdz.gbs 
    atoms 2-3 entry H          line    22 file /Users/jonathonmisiewicz/psi4/objdir/stage/share/psi4/basis/cc-pvdz.gbs 


         ---------------------------------------------------------
                                   SCF
               by Justin Turney, Rob Parrish, Andy Simmonett
                          and Daniel G. A. Smith
                              UHF Reference
                        1 Threads,    500 MiB Core
         ---------------------------------------------------------

  ==> Geometry <==

    Molecular point group: c2v
    Full point group: C2v

    Geometry (in Angstrom), charge = 1, multiplicity = 2:

       Center              X                  Y                   Z               Mass       
    ------------   -----------------  -----------------  -----------------  -----------------
         O            0.000000000000     0.000000000000    -0.068516219320    15.994914619570
         H            0.000000000000    -0.790689573744     0.543701060715     1.007825032230
         H            0.000000000000     0.790689573744     0.543701060715     1.007825032230

  Running in c2v symmetry.

  Rotational constants: A =     25.12555  B =     13.37733  C =      8.72955 [cm^-1]
  Rotational constants: A = 753245.07149  B = 401042.16706  C = 261705.25473 [MHz]
  Nuclear repulsion =    8.801465564567374

  Charge       = 1
  Multiplicity = 2
  Electrons    = 9
  Nalpha       = 5
  Nbeta        = 4

  ==> Algorithm <==

  SCF Algorithm Type is PK.
  DIIS enabled.
  MOM disabled.
  Fractional occupation disabled.
  Guess Type is SAD.
  Energy threshold   = 1.00e-10
  Density threshold  = 1.00e-10
  Integral threshold = 1.00e-12

  ==> Primary Basis <==

  Basis Set: CC-PVDZ
    Blend: CC-PVDZ
    Number of shells: 12
    Number of basis functions: 24
    Number of Cartesian functions: 25
    Spherical Harmonics?: true
    Max angular momentum: 2

  ==> Integral Setup <==

  Using in-core PK algorithm.
   Calculation information:
      Number of atoms:                   3
      Number of AO shells:              12
      Number of primitives:             32
      Number of atomic orbitals:        25
      Number of basis functions:        24

      Integral cutoff                 1.00e-12
      Number of threads:                 1

  Performing in-core PK
  Using 90300 doubles for integral storage.
  We computed 3081 shell quartets total.
  Whereas there are 3081 unique shell quartets.

  ==> DiskJK: Disk-Based J/K Matrices <==

    J tasked:                  Yes
    K tasked:                  Yes
    wK tasked:                  No
    Memory [MiB]:              375
    Schwarz Cutoff:          1E-12

    OpenMP threads:              1

  Minimum eigenvalue in the overlap matrix is 3.5782930148E-02.
  Reciprocal condition number of the overlap matrix is 1.1524660180E-02.
    Using symmetric orthogonalization.

  ==> Pre-Iterations <==

  SCF Guess: Superposition of Atomic Densities via on-the-fly atomic UHF (no occupation information).

   -------------------------
    Irrep   Nso     Nmo    
   -------------------------
     A1        11      11 
     A2         2       2 
     B1         4       4 
     B2         7       7 
   -------------------------
    Total      24      24
   -------------------------

  ==> Iterations <==

                        Total Energy        Delta E     RMS |[F,P]|

   @UHF iter SAD:   -75.45138545885210   -7.54514e+01   0.00000e+00 
   @UHF iter   1:   -75.59434232951337   -1.42957e-01   1.97082e-02 ADIIS/DIIS
   @UHF iter   2:   -75.63015583706979   -3.58135e-02   5.43743e-03 ADIIS/DIIS
   @UHF iter   3:   -75.63268588969441   -2.53005e-03   2.01607e-03 ADIIS/DIIS
   @UHF iter   4:   -75.63312484070842   -4.38951e-04   6.75724e-04 ADIIS/DIIS
   @UHF iter   5:   -75.63322148552749   -9.66448e-05   3.18025e-04 ADIIS/DIIS
   @UHF iter   6:   -75.63325293931678   -3.14538e-05   1.04643e-04 ADIIS/DIIS
   @UHF iter   7:   -75.63325683335215   -3.89404e-06   1.76417e-05 DIIS
   @UHF iter   8:   -75.63325691990526   -8.65531e-08   2.74375e-06 DIIS
   @UHF iter   9:   -75.63325692136199   -1.45673e-09   6.07445e-07 DIIS
   @UHF iter  10:   -75.63325692144383   -8.18403e-11   1.08914e-07 DIIS
   @UHF iter  11:   -75.63325692144649   -2.65743e-12   2.18585e-08 DIIS
   @UHF iter  12:   -75.63325692144656   -7.10543e-14   4.99995e-09 DIIS
   @UHF iter  13:   -75.63325692144659   -2.84217e-14   5.32792e-10 DIIS
   @UHF iter  14:   -75.63325692144656    2.84217e-14   9.73310e-11 DIIS
  Energy and wave function converged.


  ==> Post-Iterations <==

   @Spin Contamination Metric:   6.953562840E-03
   @S^2 Expected:                7.500000000E-01
   @S^2 Observed:                7.569535628E-01
   @S   Expected:                5.000000000E-01
   @S   Observed:                5.000000000E-01

    Orbital Energies [Eh]
    ---------------------

    Alpha Occupied:                                                       

       1A1   -21.135666     2A1    -1.887837     1B2    -1.188926  
       1B1    -1.119623     3A1    -1.082120  

    Alpha Virtual:                                                        

       4A1    -0.151227     2B2    -0.069888     3B2     0.375224  
       5A1     0.419950     2B1     0.676501     6A1     0.721308  
       4B2     0.831843     1A2     1.038560     7A1     1.038617  
       3B1     1.241370     8A1     1.398836     5B2     1.493030  
       6B2     1.908425     9A1     1.915610     4B1     2.691197  
       2A2     2.738461    10A1     2.951161    11A1     3.286441  
       7B2     3.611535  

    Beta Occupied:                                                        

       1A1   -21.090109     2A1    -1.728443     1B2    -1.149935  
       3A1    -1.030640  

    Beta Virtual:                                                         

       1B1    -0.303956     4A1    -0.136473     2B2    -0.060853  
       3B2     0.372785     5A1     0.433657     6A1     0.742099  
       4B2     0.850241     2B1     0.874862     7A1     1.049124  
       1A2     1.065128     3B1     1.268001     8A1     1.451616  
       5B2     1.489316     6B2     1.919291     9A1     1.968074  
       4B1     2.797476     2A2     2.845521    10A1     2.982836  
      11A1     3.370836     7B2     3.630002  

    Final Occupation by Irrep:
             A1    A2    B1    B2 
    DOCC [     3,    0,    0,    1 ]
    SOCC [     0,    0,    1,    0 ]

  @UHF Final Energy:   -75.63325692144656

   => Energetics <=

    Nuclear Repulsion Energy =              8.8014655645673745
    One-Electron Energy =                -117.4561459944638671
    Two-Electron Energy =                  33.0214235084499208
    Total Energy =                        -75.6332569214465593

  UHF NO Occupations:
  HONO-2 :    1 B2 1.9989455
  HONO-1 :    3 A1 1.9979457
  HONO-0 :    1 B1 1.0000000
  LUNO+0 :    4 A1 0.0020543
  LUNO+1 :    2 B2 0.0010545
  LUNO+2 :    5 A1 0.0003704
  LUNO+3 :    6 A1 0.0000003


Computation Completed


Properties will be evaluated at   0.000000,   0.000000,   0.000000 [a0]

Properties computed using the SCF density matrix


 Multipole Moments:

 ------------------------------------------------------------------------------------
     Multipole            Electronic (a.u.)      Nuclear  (a.u.)        Total (a.u.)
 ------------------------------------------------------------------------------------

 L = 1.  Multiply by 2.5417464519 to convert [e a0] to [Debye]
 Dipole X            :          0.0000000            0.0000000            0.0000000
 Dipole Y            :          0.0000000            0.0000000            0.0000000
 Dipole Z            :          0.0223164            1.0190771            1.0413935
 Magnitude           :                                                    1.0413935

 ------------------------------------------------------------------------------------

*** tstop() called on Jonathons-MacBook-Pro.local at Wed Mar 30 19:54:09 2022
Module time:
	user time   =       0.52 seconds =       0.01 minutes
	system time =       0.09 seconds =       0.00 minutes
	total time  =          0 seconds =       0.00 minutes
Total time:
	user time   =       0.52 seconds =       0.01 minutes
	system time =       0.09 seconds =       0.00 minutes
	total time  =          0 seconds =       0.00 minutes
 MINTS: Wrapper to libmints.
   by Justin Turney

   Calculation information:
      Number of threads:                 1
      Number of atoms:                   3
      Number of AO shells:              12
      Number of SO shells:               9
      Number of primitives:             32
      Number of atomic orbitals:        25
      Number of basis functions:        24

      Number of irreps:                  4
      Integral cutoff                 1.00e-12
      Number of functions per irrep: [  11    2    4    7 ]

 OEINTS: Overlap, kinetic, potential, dipole, and quadrupole integrals
         stored in file 35.

      Computing two-electron integrals...done
      Computed 11412 non-zero two-electron integrals.
        Stored in file 33.


*** tstart() called on Jonathons-MacBook-Pro.local
*** at Wed Mar 30 19:54:09 2022


	Wfn Parameters:
	--------------------
	Wavefunction         = EOM_CCSD
	Number of irreps     = 4
	Number of MOs        = 24
	Number of active MOs = 23
	AO-Basis             = NONE
	Semicanonical        = false
	Reference            = UHF
	Print Level          = 1

	IRREP	# MOs	# FZDC	# DOCC	# SOCC	# VIRT	# FZVR
	-----	-----	------	------	------	------	------
	 A1	   11	    1	    2	    0	    8	    0
	 A2	   2	    0	    0	    0	    2	    0
	 B1	   4	    0	    0	    1	    3	    0
	 B2	   7	    0	    1	    0	    6	    0
	Transforming integrals...
	IWL integrals will be deleted.
	(OO|OO)...
	Presorting SO-basis two-electron integrals.
	Sorting File: SO Ints (nn|nn) nbuckets = 1
	Constructing frozen core operators
	Starting AA/AB first half-transformation.
	Sorting AA/AB half-transformed integrals.
	Starting BB first half-transformation.
	Sorting BB half-transformed integrals.
	First half integral transformation complete.
	Starting AA second half-transformation.
	Starting AB second half-transformation.
	Starting BB second half-transformation.
	Two-electron integral transformation complete.
	(OO|OV)...
	Starting AA second half-transformation.
	Starting AB second half-transformation.
	Starting BB second half-transformation.
	Two-electron integral transformation complete.
	(OO|VV)...
	Starting AA second half-transformation.
	Starting AB second half-transformation.
	Starting BB second half-transformation.
	Two-electron integral transformation complete.
	(OV|OO)...
	Starting AA/AB first half-transformation.
	Sorting AA/AB half-transformed integrals.
	Starting BB first half-transformation.
	Sorting BB half-transformed integrals.
	First half integral transformation complete.
	Starting AA second half-transformation.
	Starting AB second half-transformation.
	Starting BB second half-transformation.
	Two-electron integral transformation complete.
	(OV|OV)...
	Starting AA second half-transformation.
	Starting AB second half-transformation.
	Starting BB second half-transformation.
	Two-electron integral transformation complete.
	(OV|VV)...
	Starting AA second half-transformation.
	Starting AB second half-transformation.
	Starting BB second half-transformation.
	Two-electron integral transformation complete.
	(VV|OO)...
	Starting AA/AB first half-transformation.
	Sorting AA/AB half-transformed integrals.
	Starting BB first half-transformation.
	Sorting BB half-transformed integrals.
	First half integral transformation complete.
	Starting AA second half-transformation.
	Starting AB second half-transformation.
	Starting BB second half-transformation.
	Two-electron integral transformation complete.
	(VV|OV)...
	Starting AA second half-transformation.
	Starting AB second half-transformation.
	Starting BB second half-transformation.
	Two-electron integral transformation complete.
	(VV|VV)...
	Starting AA second half-transformation.
	Starting AB second half-transformation.
	Starting BB second half-transformation.
	Two-electron integral transformation complete.
	Frozen core energy     =    -61.22188738475449

	Size of irrep 0 of <AB|CD> integrals:      0.002 (MW) /      0.018 (MB)
	Size of irrep 1 of <AB|CD> integrals:      0.001 (MW) /      0.009 (MB)
	Size of irrep 2 of <AB|CD> integrals:      0.001 (MW) /      0.010 (MB)
	Size of irrep 3 of <AB|CD> integrals:      0.003 (MW) /      0.023 (MB)
	Total:                                     0.008 (MW) /      0.061 (MB)

	Size of irrep 0 of <ab|cd> integrals:      0.003 (MW) /      0.020 (MB)
	Size of irrep 1 of <ab|cd> integrals:      0.002 (MW) /      0.013 (MB)
	Size of irrep 2 of <ab|cd> integrals:      0.002 (MW) /      0.015 (MB)
	Size of irrep 3 of <ab|cd> integrals:      0.003 (MW) /      0.025 (MB)
	Total:                                     0.009 (MW) /      0.073 (MB)

	Size of irrep 0 of <Ab|Cd> integrals:      0.013 (MW) /      0.108 (MB)
	Size of irrep 1 of <Ab|Cd> integrals:      0.005 (MW) /      0.044 (MB)
	Size of irrep 2 of <Ab|Cd> integrals:      0.006 (MW) /      0.051 (MB)
	Size of irrep 3 of <Ab|Cd> integrals:      0.012 (MW) /      0.097 (MB)
	Total:                                     0.037 (MW) /      0.299 (MB)

	Size of irrep 0 of <IA|BC> integrals:      0.003 (MW) /      0.023 (MB)
	Size of irrep 1 of <IA|BC> integrals:      0.001 (MW) /      0.007 (MB)
	Size of irrep 2 of <IA|BC> integrals:      0.001 (MW) /      0.009 (MB)
	Size of irrep 3 of <IA|BC> integrals:      0.002 (MW) /      0.019 (MB)
	Total:                                     0.007 (MW) /      0.058 (MB)

	Size of irrep 0 of <ia|bc> integrals:      0.003 (MW) /      0.021 (MB)
	Size of irrep 1 of <ia|bc> integrals:      0.001 (MW) /      0.005 (MB)
	Size of irrep 2 of <ia|bc> integrals:      0.001 (MW) /      0.007 (MB)
	Size of irrep 3 of <ia|bc> integrals:      0.002 (MW) /      0.018 (MB)
	Total:                                     0.006 (MW) /      0.051 (MB)

	Size of irrep 0 of <Ia|Bc> integrals:      0.003 (MW) /      0.024 (MB)
	Size of irrep 1 of <Ia|Bc> integrals:      0.001 (MW) /      0.008 (MB)
	Size of irrep 2 of <Ia|Bc> integrals:      0.001 (MW) /      0.012 (MB)
	Size of irrep 3 of <Ia|Bc> integrals:      0.002 (MW) /      0.019 (MB)
	Total:                                     0.008 (MW) /      0.063 (MB)

	Size of irrep 0 of <iA|bC> integrals:      0.003 (MW) /      0.020 (MB)
	Size of irrep 1 of <iA|bC> integrals:      0.001 (MW) /      0.004 (MB)
	Size of irrep 2 of <iA|bC> integrals:      0.001 (MW) /      0.005 (MB)
	Size of irrep 3 of <iA|bC> integrals:      0.002 (MW) /      0.018 (MB)
	Total:                                     0.006 (MW) /      0.047 (MB)

	Size of irrep 0 of tIjAb amplitudes:       0.001 (MW) /      0.005 (MB)
	Size of irrep 1 of tIjAb amplitudes:       0.000 (MW) /      0.001 (MB)
	Size of irrep 2 of tIjAb amplitudes:       0.000 (MW) /      0.001 (MB)
	Size of irrep 3 of tIjAb amplitudes:       0.000 (MW) /      0.004 (MB)
	Total:                                     0.001 (MW) /      0.010 (MB)

	Nuclear Rep. energy          =      8.80146556456737
	SCF energy                   =    -75.63325692144656
	One-electron energy          =    -37.23814655537504
	Two-electron (AA) energy     =      3.74236262821824
	Two-electron (BB) energy     =      1.71327300938374
	Two-electron (AB) energy     =      8.56967581651362
	Two-electron energy          =     14.02531145411560
	Reference energy             =    -75.63325692144656

*** tstop() called on Jonathons-MacBook-Pro.local at Wed Mar 30 19:54:09 2022
Module time:
	user time   =       0.04 seconds =       0.00 minutes
	system time =       0.11 seconds =       0.00 minutes
	total time  =          0 seconds =       0.00 minutes
Total time:
	user time   =       0.58 seconds =       0.01 minutes
	system time =       0.21 seconds =       0.00 minutes
	total time  =          0 seconds =       0.00 minutes
            **************************
            *                        *
            *        CCENERGY        *
            *                        *
            **************************

    Nuclear Rep. energy (wfn)     =    8.801465564567374
    SCF energy          (wfn)     =  -75.633256921446559
    Reference energy    (file100) =  -75.633256921446559

    Input parameters:
    -----------------
    Wave function   =     EOM_CCSD
    Reference wfn   =     UHF
    Brueckner       =     No
    Memory (Mbytes) =     524.3
    Maxiter         =     50
    R_Convergence   =     1.0e-07
    E_Convergence   =     1.0e-08
    Restart         =     Yes
    DIIS            =     Yes
    AO Basis        =     NONE
    ABCD            =     NEW
    Cache Level     =     2
    Cache Type      =     LRU
    Print Level     =     1
    Num. of threads =     1
    # Amps to Print =     10
    Print MP2 Amps? =     No
    Analyze T2 Amps =     No
    Print Pair Ener =     No
    Local CC        =     No
    SCS-MP2         =     False
    SCSN-MP2        =     False
    SCS-CCSD        =     False

MP2 correlation energy -0.1535350209081902
                Solving CC Amplitude Equations
                ------------------------------
  Iter             Energy              RMS        T1Diag      D1Diag    New D1Diag    D2Diag
  ----     ---------------------    ---------   ----------  ----------  ----------   --------
     0        -0.153535020908190    0.000e+00    0.000000    0.000000    0.000000    0.000000
     1        -0.165634581457966    3.248e-02    0.006998    0.000000    0.000000    0.000000
     2        -0.169881689398469    1.205e-02    0.009411    0.000000    0.000000    0.000000
     3        -0.170416070059115    4.342e-03    0.010491    0.000000    0.000000    0.000000
     4        -0.170428268291739    1.856e-03    0.010712    0.000000    0.000000    0.000000
     5        -0.170453118381184    6.772e-04    0.010732    0.000000    0.000000    0.000000
     6        -0.170459726146318    1.785e-04    0.010715    0.000000    0.000000    0.000000
     7        -0.170459064694727    5.616e-05    0.010709    0.000000    0.000000    0.000000
     8        -0.170459241829815    1.940e-05    0.010708    0.000000    0.000000    0.000000
     9        -0.170459260203540    5.948e-06    0.010709    0.000000    0.000000    0.000000
    10        -0.170459253591306    2.011e-06    0.010709    0.000000    0.000000    0.000000
    11        -0.170459230204888    3.915e-07    0.010709    0.000000    0.000000    0.000000
    12        -0.170459217823738    1.034e-07    0.010709    0.000000    0.000000    0.000000
    13        -0.170459215403389    2.917e-08    0.010709    0.000000    0.000000    0.000000
    14        -0.170459215062428    1.019e-08    0.010709    0.000000    0.000000    0.000000

    Iterations converged.


    Largest TIA Amplitudes:
              3  13        -0.0117518781
              1   0        -0.0108530055
              2  10        -0.0075553197
              3  14        -0.0070135123
              0   0         0.0064162532
              1   1         0.0063825240
              3  17         0.0047373608
              0   1        -0.0034749415
              0   2        -0.0034685439
              1   5        -0.0032054992

    Largest Tia Amplitudes:
              1   0        -0.0084404489
              2  18         0.0065229466
              0   5         0.0059910577
              1   1         0.0050135651
              0   1         0.0047457399
              2  16         0.0046301912
              2  14        -0.0034801629
              1   3         0.0031931295
              1   4        -0.0027276348
              1   5        -0.0023950010

    Largest TIJAB Amplitudes:
      2   1  10   2        -0.0207041847
      3   2  13  10        -0.0181401293
      3   2  15  10        -0.0173838073
      3   1  13   2        -0.0173290086
      3   1  14   2        -0.0128284883
      2   1  10   1         0.0117123024
      3   1  15   2        -0.0115479032
      2   1  10   0        -0.0102787001
      2   0  10   0         0.0100780511
      3   1  14   3         0.0099730265

    Largest Tijab Amplitudes:
      2   1  14   2        -0.0174980369
      2   1  15   2        -0.0133246222
      2   1  16   2        -0.0110243419
      2   1  15   3         0.0098859544
      2   0  10   8         0.0095698015
      1   0  12  10         0.0089951545
      1   0  13  10        -0.0087608652
      2   1  16   1         0.0086174913
      2   1  18   2        -0.0083298351
      2   1  15   6         0.0073998325

    Largest TIjAb Amplitudes:
      1   1   2   2        -0.0338665138
      3   2  13  14        -0.0335908706
      3   2  14  15        -0.0289125300
      2   1  10   2        -0.0277419073
      3   2  13  15        -0.0242350724
      3   2  14  14        -0.0235648077
      2   2  10  14        -0.0230737165
      2   0   1  10        -0.0229770064
      2   2  10  16        -0.0224042114
      3   2   1   1        -0.0223843251

    SCF energy       (wfn)                    =  -75.633256921446559
    Reference energy (file100)                =  -75.633256921446559

    Opposite-spin MP2 correlation energy      =   -0.117917658354748
    Same-spin MP2 correlation energy          =   -0.035617362553442
    Singles MP2 correlation energy            =   -0.000000000000000
    MP2 correlation energy                    =   -0.153535020908190
      * MP2 total energy                      =  -75.786791942354753

    Opposite-spin CCSD correlation energy     =   -0.136573019538954
    Same-spin CCSD correlation energy         =   -0.033886195523474
    Singles CCSD correlation energy           =   -0.000000000000000
    CCSD correlation energy                   =   -0.170459215062428
      * CCSD total energy                     =  -75.803716136508982


			**************************
			*                        *
			*         CCHBAR         *
			*                        *
			**************************


	**********************************************************
	*  CCEOM: An Equation of Motion Coupled Cluster Program  *
	**********************************************************

	Nuclear Rep. energy (wfn)     =    8.801465564567374
	SCF energy          (wfn)     =  -75.633256921446559
	Reference energy    (file100) =  -75.633256921446559
	CCSD energy         (file100) =   -0.170459215062428

	Input parameters:
	-----------------
	Reference wfn   =     UHF
	Reference EOM wfn=     UHF
	Memory (Mbytes) =  524.3
	ABCD            =     NEW
	Cache Level     =    2
	Cache Type      =     LRU
	Num. of threads =     1
	Local CC        =     No


	CCEOM parameters:
	-----------------
	States sought per irrep     = A1 0, A2 1, B1 1, B2 0,
	Max. number of iterations   =    80
	Vectors stored per root     =    12
	Print HbarSS iterations?    =     0
	Excitation range for HBarSS =     2
	Eigenvalue tolerance        = 1.0e-05
	Eigenvalue toleranceSS      = 1.0e-06
	Residual vector tolerance   = 1.0e-04
	Residual vector toleranceSS = 1.0e-06
	Complex tolerance           = 1.0e-12
	Root for properties         =     1
	Sym of state for properties =     A1
	Guess vectors taken from    = SINGLES
	Restart EOM CC3             = NO
	Collapse with last vector   = YES



Fae   dot Fae   total  132.5177629195
Fmi   dot Fmi   total   13.7207248407
WmBeJ and WMbEj dots    0.9969481120
Symmetry of ground state: B1
Symmetry of excited state: B1
Symmetry of right eigenvector: A1
Obtaining initial guess from singles-singles block of Hbar...Done.

Iter=1    L=1     Root    EOM Energy     Delta E   Res. Norm    Conv?
                     1   0.5722110942   5.72e-01    4.44e-01      N
Iter=2    L=2     Root    EOM Energy     Delta E   Res. Norm    Conv?
                     1   0.4892900099  -8.29e-02    7.90e-02      N
Iter=3    L=3     Root    EOM Energy     Delta E   Res. Norm    Conv?
                     1   0.4834615512  -5.83e-03    6.05e-02      N
Iter=4    L=4     Root    EOM Energy     Delta E   Res. Norm    Conv?
                     1   0.4799622857  -3.50e-03    4.00e-02      N
Iter=5    L=5     Root    EOM Energy     Delta E   Res. Norm    Conv?
                     1   0.4786873840  -1.27e-03    2.17e-02      N
Iter=6    L=6     Root    EOM Energy     Delta E   Res. Norm    Conv?
                     1   0.4783148766  -3.73e-04    1.23e-02      N
Iter=7    L=7     Root    EOM Energy     Delta E   Res. Norm    Conv?
                     1   0.4781250811  -1.90e-04    9.22e-03      N
Iter=8    L=8     Root    EOM Energy     Delta E   Res. Norm    Conv?
                     1   0.4780323369  -9.27e-05    6.53e-03      N
Iter=9    L=9     Root    EOM Energy     Delta E   Res. Norm    Conv?
                     1   0.4779929715  -3.94e-05    3.85e-03      N
Iter=10   L=10    Root    EOM Energy     Delta E   Res. Norm    Conv?
                     1   0.4779773386  -1.56e-05    2.82e-03      N
Iter=11   L=11    Root    EOM Energy     Delta E   Res. Norm    Conv?
                     1   0.4779671645  -1.02e-05    1.59e-03      N
Iter=12   L=12    Root    EOM Energy     Delta E   Res. Norm    Conv?
                     1   0.4779668366  -3.28e-07    7.63e-04      N
Iter=13   L=2     Root    EOM Energy     Delta E   Res. Norm    Conv?
                     1   0.4779668366  -9.99e-16    7.63e-04      N
Iter=14   L=3     Root    EOM Energy     Delta E   Res. Norm    Conv?
                     1   0.4779657431  -1.09e-06    4.11e-04      N
Iter=15   L=4     Root    EOM Energy     Delta E   Res. Norm    Conv?
                     1   0.4779656278  -1.15e-07    2.46e-04      N
Iter=16   L=5     Root    EOM Energy     Delta E   Res. Norm    Conv?
                     1   0.4779648662  -7.62e-07    1.02e-04      N
Iter=17   L=6     Root    EOM Energy     Delta E   Res. Norm    Conv?
                     1   0.4779650189   1.53e-07    3.69e-05      Y
Collapsing to only 1 vector(s).

Procedure converged for 1 root(s).
Energy written to CC_INFO:Etot  -75.3257511176
States per irrep written to CC_INFO.
<R|R> =   1.0000000000000002
EOM CCSD R0 for root 0 =  -0.00405312872

Final Energetic Summary for Converged Roots of Irrep B1
                     Excitation Energy              Total Energy
                (eV)     (cm^-1)     (au)             (au)
EOM State 1     13.006   104901.2   0.4779650189   -75.325751117648

Largest components of excited wave function #1:
 RIA (libdpd indices) : (cscf notation)
         1 >   0      :       3a1 >    4a1 :   -0.5217217791
         1 >   1      :       3a1 >    5a1 :    0.1094355144
         0 >   0      :       1b2 >    2b2 :   -0.0879879661
         0 >   1      :       1b2 >    3b2 :   -0.0431632769
         1 >   2      :       3a1 >    6a1 :   -0.0275724131
 Ria (libdpd indices) : (cscf notation)
         1 >   0      :       3a1 >    4a1 :    0.7648447073
         1 >   1      :       3a1 >    5a1 :   -0.1471892737
         0 >   0      :       1b2 >    2b2 :    0.0731394530
         0 >   1      :       1b2 >    3b2 :    0.0377231656
         1 >   3      :       3a1 >    7a1 :   -0.0296350038
 RIjAb (libdpd indices)     : (cscf notation)
        0   1 >   0   0     :    1b1    3a1 >    4a1    1b1 :   -0.2032071999
        0   1 >   0   1     :    1b1    3a1 >    4a1    2b1 :   -0.0641546873
        0   1 >   0   0     :    1b2    3a1 >    2b2    4a1 :    0.0592795004
        1   1 >   2   0     :    3a1    3a1 >    6a1    4a1 :    0.0503980286
        0   1 >   1   0     :    1b1    3a1 >    5a1    1b1 :    0.0465969319
 RIJAB (libdpd indices)     : (cscf notation)
        0   1 >   0   0     :    1b1    3a1 >    2b1    4a1 :   -0.0276731000
        0   1 >   0   0     :    1b2    3a1 >    2b2    4a1 :   -0.0233943075
        0   1 >   1   0     :    1b2    3a1 >    3b2    4a1 :   -0.0159454463
        0   1 >   2   0     :    1b2    3a1 >    4b2    4a1 :   -0.0123089380
        1   0 >   3   0     :    3a1    2a1 >    7a1    4a1 :    0.0109845808
 Rijab (libdpd indices)     : (cscf notation)
        0   1 >   0   0     :    1b2    3a1 >    2b2    4a1 :    0.0346562401
        0   1 >   1   0     :    1b2    3a1 >    3b2    4a1 :    0.0257080895
        0   1 >   2   0     :    1b2    3a1 >    4b2    4a1 :    0.0176061491
        1   0 >   3   0     :    3a1    2a1 >    7a1    4a1 :   -0.0155631902
        0   1 >   0   1     :    1b2    3a1 >    2b2    5a1 :    0.0133178733

	Putting into environment energy for root of R irrep 1 and root 1.
	Putting into environment CURRENT ENERGY:              -75.3257511176

Symmetry of excited state: A2
Symmetry of right eigenvector: B2
Obtaining initial guess from singles-singles block of Hbar...Done.

Iter=1    L=1     Root    EOM Energy     Delta E   Res. Norm    Conv?
                     1   0.6215357906   6.22e-01    4.18e-01      N
Iter=2    L=2     Root    EOM Energy     Delta E   Res. Norm    Conv?
                     1   0.5539363977  -6.76e-02    7.15e-02      N
Iter=3    L=3     Root    EOM Energy     Delta E   Res. Norm    Conv?
                     1   0.5495614546  -4.37e-03    5.34e-02      N
Iter=4    L=4     Root    EOM Energy     Delta E   Res. Norm    Conv?
                     1   0.5459130738  -3.65e-03    5.02e-02      N
Iter=5    L=5     Root    EOM Energy     Delta E   Res. Norm    Conv?
                     1   0.5439059779  -2.01e-03    2.58e-02      N
Iter=6    L=6     Root    EOM Energy     Delta E   Res. Norm    Conv?
                     1   0.5434939242  -4.12e-04    1.16e-02      N
Iter=7    L=7     Root    EOM Energy     Delta E   Res. Norm    Conv?
                     1   0.5433830386  -1.11e-04    6.69e-03      N
Iter=8    L=8     Root    EOM Energy     Delta E   Res. Norm    Conv?
                     1   0.5433034084  -7.96e-05    6.84e-03      N
Iter=9    L=9     Root    EOM Energy     Delta E   Res. Norm    Conv?
                     1   0.5432515823  -5.18e-05    3.66e-03      N
Iter=10   L=10    Root    EOM Energy     Delta E   Res. Norm    Conv?
                     1   0.5432496617  -1.92e-06    1.75e-03      N
Iter=11   L=11    Root    EOM Energy     Delta E   Res. Norm    Conv?
                     1   0.5432410469  -8.61e-06    1.13e-03      N
Iter=12   L=12    Root    EOM Energy     Delta E   Res. Norm    Conv?
                     1   0.5432405735  -4.73e-07    6.83e-04      N
Iter=13   L=2     Root    EOM Energy     Delta E   Res. Norm    Conv?
                     1   0.5432405735   3.33e-16    6.83e-04      N
Iter=14   L=3     Root    EOM Energy     Delta E   Res. Norm    Conv?
                     1   0.5432401971  -3.76e-07    3.11e-04      N
Iter=15   L=4     Root    EOM Energy     Delta E   Res. Norm    Conv?
                     1   0.5432401587  -3.84e-08    1.90e-04      N
Iter=16   L=5     Root    EOM Energy     Delta E   Res. Norm    Conv?
                     1   0.5432396853  -4.73e-07    1.82e-04      N
Iter=17   L=6     Root    EOM Energy     Delta E   Res. Norm    Conv?
                     1   0.5432399843   2.99e-07    1.20e-04      N
Iter=18   L=7     Root    EOM Energy     Delta E   Res. Norm    Conv?
                     1   0.5432399730  -1.13e-08    6.04e-05      Y
Collapsing to only 1 vector(s).

Procedure converged for 1 root(s).
<R|R> =   1.0000000000000002
EOM CCSD R0 for root 0 =   0.00000000000

Final Energetic Summary for Converged Roots of Irrep A2
                     Excitation Energy              Total Energy
                (eV)     (cm^-1)     (au)             (au)
EOM State 2     14.782   119227.4   0.5432399730   -75.260476163556

Largest components of excited wave function #2:
 RIA (libdpd indices) : (cscf notation)
         1 >   0      :       3a1 >    2b2 :    0.4695307095
         0 >   0      :       1b2 >    4a1 :    0.2435705660
         1 >   1      :       3a1 >    3b2 :    0.1513969327
         0 >   1      :       1b2 >    5a1 :   -0.0843353808
         1 >   2      :       3a1 >    4b2 :    0.0482769801
 Ria (libdpd indices) : (cscf notation)
         1 >   0      :       3a1 >    2b2 :   -0.7038045637
         0 >   0      :       1b2 >    4a1 :   -0.2472598571
         1 >   1      :       3a1 >    3b2 :   -0.1969394744
         0 >   1      :       1b2 >    5a1 :    0.0790083414
         1 >   2      :       3a1 >    4b2 :   -0.0760629499
 RIjAb (libdpd indices)     : (cscf notation)
        0   1 >   0   0     :    1b1    3a1 >    2b2    1b1 :    0.1753335010
        0   0 >   0   0     :    1b1    1b2 >    4a1    1b1 :    0.0967956809
        0   1 >   1   0     :    1b1    3a1 >    3b2    1b1 :    0.0565507707
        0   1 >   0   1     :    1b1    3a1 >    2b2    2b1 :    0.0545209467
        1   1 >   2   0     :    3a1    3a1 >    6a1    2b2 :   -0.0431946427
 RIJAB (libdpd indices)     : (cscf notation)
        0   1 >   0   0     :    1b1    3a1 >    2b2    2b1 :   -0.0228270784
        0   1 >   2   0     :    1b2    3a1 >    4b2    2b2 :    0.0171269405
        0   1 >   2   0     :    1b2    3a1 >    6a1    4a1 :   -0.0123228344
        0   0 >   0   0     :    1b2    1b1 >    2b1    4a1 :   -0.0115709021
        1   0 >   0   3     :    3a1    2a1 >    2b2    7a1 :    0.0091746466
 Rijab (libdpd indices)     : (cscf notation)
        0   1 >   2   0     :    1b2    3a1 >    4b2    2b2 :   -0.0243385143
        0   1 >   1   0     :    1b2    3a1 >    3b2    2b2 :   -0.0168387589
        0   1 >   2   0     :    1b2    3a1 >    6a1    4a1 :    0.0138262410
        1   0 >   0   0     :    3a1    2a1 >    2b2    4a1 :    0.0136109504
        1   0 >   0   3     :    3a1    2a1 >    2b2    7a1 :   -0.0128720735

	Total # of sigma evaluations: 33

			**************************
			*        CCLAMBDA        *
			**************************


	Nuclear Rep. energy (wfn)     =    8.801465564567374
	Reference           (wfn)     =                    2
	SCF energy          (wfn)     =  -75.633256921446559
	Reference energy    (CC_INFO) =  -75.633256921446559
	CCSD energy         (CC_INFO) =   -0.170459215062428
	Total CCSD energy   (CC_INFO) =  -75.803716136508982

	Input parameters:
	-----------------
	Maxiter           =     50
	Convergence       = 1.0e-04
	Restart           =     No
	Cache Level       =     2
	Model III         =     No
	DIIS              =     Yes
	AO Basis          =     No
	ABCD              =     NEW
	Local CC          =     No
	Parameters for left-handed eigenvectors:
	    Irr   Root  Ground-State?    EOM energy        R0
	  1   0     0        Yes       0.0000000000   1.0000000000
	  2   0     1         No       0.4779650189  -0.0040531287
	  3   3     1         No       0.5432399730   0.0000000000
	Labels for eigenvector 1:
	LIA 0 -1, Lia 0 -1, LIJAB 0 -1, Lijab 0 -1, LIjAb 0 -1, 2LIjAb - LIjbA 0 -1
	Labels for eigenvector 2:
	LIA 0 0, Lia 0 0, LIJAB 0 0, Lijab 0 0, LIjAb 0 0, 2LIjAb - LIjbA 0 0
	Labels for eigenvector 3:
	LIA 3 0, Lia 3 0, LIJAB 3 0, Lijab 3 0, LIjAb 3 0, 2LIjAb - LIjbA 3 0
	Deleting old CC_LAMBDA data.
	Symmetry of left-hand state: B1
	Symmetry of left-hand eigenvector: A1

	          Solving Lambda Equations
	          ------------------------
	Iter     PseudoEnergy or Norm         RMS  
	----     ---------------------     --------
	   0        -0.170476281170356    0.000e+00
	   1        -0.167895717114707    6.782e-03
	   2        -0.167479139263839    1.175e-03
	   3        -0.167399542483497    4.377e-04
	   4        -0.167392639428690    1.360e-04
	   5        -0.167392934082357    4.811e-05

	Largest LIA Amplitudes:
	          3  13        -0.0094952389
	          1   0        -0.0090214107
	          3  14        -0.0066856355
	          1   1         0.0059528527
	          0   0         0.0052916726
	          2  10        -0.0048140763
	          3  17         0.0041289254
	          0   1        -0.0031953199
	          0   2        -0.0028959382
	          1   5        -0.0027865467

	Largest Lia Amplitudes:
	          1   0        -0.0061778268
	          2  18         0.0061243258
	          0   5         0.0059926822
	          2  16         0.0054228563
	          0   1         0.0050857431
	          1   1         0.0040182124
	          0   0        -0.0030800966
	          1   3         0.0028736169
	          1   4        -0.0022663523
	          1   5        -0.0021740449

	Largest LIJAB Amplitudes:
	  2   1  10   2        -0.0205800889
	  3   2  13  10        -0.0179158526
	  3   2  15  10        -0.0171855427
	  3   1  13   2        -0.0169506327
	  3   1  14   2        -0.0125527029
	  2   1  10   1         0.0116050306
	  3   1  15   2        -0.0113612670
	  2   1  10   0        -0.0101404138
	  2   0  10   0         0.0101133467
	  2   0  10   4        -0.0097242635

	Largest Lijab Amplitudes:
	  2   1  14   2        -0.0170188060
	  2   1  15   2        -0.0129669892
	  2   1  16   2        -0.0108350918
	  2   1  15   3         0.0095274421
	  2   0  10   8         0.0093221851
	  1   0  12  10         0.0087806690
	  1   0  13  10        -0.0085843475
	  2   1  16   1         0.0084094247
	  2   1  18   2        -0.0081552637
	  1   0   2   0         0.0072167256

	Largest LIjAb Amplitudes:
	  1   1   2   2        -0.0333982231
	  3   2  13  14        -0.0328153398
	  3   2  14  15        -0.0282357671
	  2   1  10   2        -0.0274776283
	  3   2  13  15        -0.0237156016
	  3   2  14  14        -0.0230762355
	  2   2  10  14        -0.0226880782
	  2   0   1  10        -0.0224580434
	  2   2  10  16        -0.0221176486
	  3   2  15  16        -0.0219864108

	Iterations converged.

	Overlap <L|e^T> =        0.95259415503
	Symmetry of left-hand state: B1
	Symmetry of left-hand eigenvector: A1
	Initial overlap of initial guess <L|R> =    0.9999706744
	Checking overlap of initial guess <L|R> =    1.0000000000

	          Solving Lambda Equations
	          ------------------------
	Iter     PseudoEnergy or Norm         RMS  
	----     ---------------------     --------
	   0        -0.000273278772206    4.811e-05
	   1        -0.001101524565635    2.798e-02
	   2        -0.001208868145704    5.179e-03
	   3        -0.001291878117500    2.430e-03
	   4        -0.001328716702193    1.225e-03
	   5        -0.001349218147526    9.526e-04
	   6        -0.001382063265821    7.184e-04
	   7        -0.001398901078822    4.369e-04
	   8        -0.001420686006714    3.102e-04
	   9        -0.001440037882484    2.089e-04
	  10        -0.001440991264319    9.979e-05

	Initial  <L|R>  =        0.9850488947
	Normalizing L...
	L0 * R0 =       -0.0000000000
	L1 * R1 =        0.9081070637
	L2 * R2 =        0.0918929363
	 <L|R>  =        1.0000000000
	Pseudoenergy or Norm of normalized L =   -0.001462862678191

	Largest LIA Amplitudes:
	          1   0        -0.5241632018
	          1   1         0.1090812284
	          3  13        -0.0882179034
	          3  14        -0.0438609314
	          1   2        -0.0274055677
	          0   1        -0.0224956869
	          1   3         0.0206029724
	          1   4         0.0199027001
	          0   0         0.0197421317
	          1   5         0.0177990642

	Largest Lia Amplitudes:
	          1   0         0.7543626684
	          1   1        -0.1439837785
	          2  14         0.0747833206
	          2  15         0.0382342239
	          1   3        -0.0286215519
	          1   4        -0.0285036901
	          1   2         0.0272845590
	          1   5        -0.0267594783
	          0   0        -0.0244216822
	          0   1         0.0236715552

	Largest LIJAB Amplitudes:
	  2   1  10   0        -0.0320364964
	  3   1  13   0        -0.0291262325
	  3   1  14   0        -0.0199354888
	  3   1  15   0        -0.0154554967
	  1   0   3   0         0.0123007969
	  1   0   1   0         0.0093784176
	  3   1  17   0        -0.0092954100
	  2   0  12   0        -0.0088913198
	  1   0   5   0         0.0088135206
	  3   1  13   1        -0.0074121680

	Largest Lijab Amplitudes:
	  2   1  14   0         0.0463219144
	  2   1  15   0         0.0337040013
	  2   1  16   0         0.0236943211
	  1   0   3   0        -0.0180796978
	  1   0   1   0        -0.0165026540
	  2   1  18   0         0.0142837091
	  1   0  11  10         0.0141906008
	  1   0   5   0        -0.0127004540
	  2   1  14   1         0.0124346045
	  2   1  16   1         0.0100381708

	Largest LIjAb Amplitudes:
	  2   1   0  10        -0.2191151343
	  2   1   0  11        -0.0691049580
	  3   1  13   0         0.0633029649
	  1   1   2   0         0.0541996290
	  2   1   1  10         0.0517156262
	  2   1  10   0         0.0480009752
	  1   2   0  14        -0.0466653020
	  1   1   0   2        -0.0436642035
	  3   1  14   0         0.0393955666
	  2   2  13  10        -0.0359561199

	Iterations converged.

	Symmetry of left-hand state: A2
	Symmetry of left-hand eigenvector: B2
	Initial overlap of initial guess <L|R> =    1.0000000000
	Checking overlap of initial guess <L|R> =    1.0000000000

	          Solving Lambda Equations
	          ------------------------
	Iter     PseudoEnergy or Norm         RMS  
	----     ---------------------     --------
	   0         1.000000000000000    9.979e-05
	   1         0.991026596924647    2.250e-02
	   2         0.991814251996608    5.079e-03
	   3         0.991754842440213    2.385e-03
	   4         0.991592330873514    1.255e-03
	   5         0.991098784683710    9.871e-04
	   6         0.990180779510847    7.586e-04
	   7         0.989609157815466    4.387e-04
	   8         0.989517806933594    2.390e-04
	   9         0.989479158044093    1.652e-04
	  10         0.989483706807056    9.995e-05

	Initial  <L|R>  =        0.9890089655
	Normalizing L...
	L0 * R0 =        0.0000000000
	L1 * R1 =        0.9173609180
	L2 * R2 =        0.0826390820
	 <L|R>  =        1.0000000000
	Pseudoenergy or Norm of normalized L =    1.000480017150823

	Largest LIA Amplitudes:
	          1  13         0.4743645220
	          3   0         0.2397396980
	          1  14         0.1517954613
	          3   1        -0.0829942912
	          1  15         0.0477460791
	          1  17         0.0230422744
	          3   2         0.0132646739
	          0  18        -0.0105908235
	          3   5        -0.0098200143
	          0  14        -0.0090022744

	Largest Lia Amplitudes:
	          1  14        -0.6963610758
	          2   0        -0.2449970509
	          1  15        -0.1935065531
	          2   1         0.0782727023
	          1  16        -0.0740893874
	          1  18        -0.0284377118
	          0  14         0.0164584981
	          2   2        -0.0163891942
	          0  15         0.0132269006
	          2   3         0.0113273729

	Largest LIJAB Amplitudes:
	  2   1  13  10        -0.0260323167
	  3   1  15  13         0.0210794689
	  3   1   2   0        -0.0136017755
	  3   2  10   0        -0.0126478186
	  3   1  14  13         0.0109761929
	  1   0  13   0        -0.0106515240
	  3   1  17  13         0.0104174074
	  1   0  13   3         0.0103389165
	  2   0  13  12        -0.0080640509
	  1   0  13   1         0.0071186415

	Largest Lijab Amplitudes:
	  2   1  16  14        -0.0310885760
	  2   1  15  14        -0.0219967913
	  1   0  14   0         0.0181386250
	  2   1  18  14        -0.0163611180
	  2   1   2   0         0.0157936931
	  1   0  14   3        -0.0152379445
	  1   0  14   1        -0.0124378516
	  2   0  15  14        -0.0096891171
	  1   0  14   6        -0.0092487114
	  1   0  18   0        -0.0088843545

	Largest LIjAb Amplitudes:
	  2   1  13  10         0.1903394095
	  2   2   0  10         0.0977607732
	  2   1  14  10         0.0625397382
	  2   1  13  11         0.0585089234
	  1   1   2  14        -0.0457888645
	  2   1  10  14        -0.0399069685
	  3   1  13  14        -0.0374732188
	  1   1  13   2         0.0366522726
	  2   2   1  10        -0.0356128789
	  0   1   0  14         0.0285063174

	Iterations converged.


	Projections for excited state, irrep B1, root 0:
	<0|Le^(-T)|0><0|Re^T|0>  =    0.0000151885
	<0|Le^(-T)|S><S|Re^T|0>  =    0.9095517600
	<0|Le^(-T)|D><D|Re^T|0>  =    0.0904330515
	Sum of above             =    1.0000000000
	Approx. excitation level =    1.0904178629

	Projections for excited state, irrep A2, root 0:
	<0|Le^(-T)|0><0|Re^T|0>  =   -0.0000000000
	<0|Le^(-T)|S><S|Re^T|0>  =    0.9183329761
	<0|Le^(-T)|D><D|Re^T|0>  =    0.0816670239
	Sum of above             =    1.0000000000
	Approx. excitation level =    1.0816670239

			**************************
			*                        *
			*        CCDENSITY       *
			*                        *
			**************************


	Input parameters:
	-----------------
	Wave function    = EOM_CCSD
	Reference wfn    =   UHF
	Dertype          = 0
	Tolerance        = 1.0e-14
	Cache Level      = 2
	AO Basis         = No
	OPDM Only        = Yes
	Relax OPDM       = No
	Compute Xi       = No
	Use Zeta         = No
	Xi connected     = No
	Compute NO       = No

	Nuclear Rep. energy (wfn)     =    8.801465564567374
	SCF energy          (wfn)     =  -75.633256921446559
	Reference energy    (file100) =  -75.633256921446559
	CCSD energy         (CC_INFO) =   -0.170459215062428
	Total CCSD energy   (CC_INFO) =  -75.803716136508982
	Number of States = 3

	Ground?  State     EOM Energy       R0
	  Yes     0 A1    0.0000000000   1.00000000
	   No     1 B2    0.5432399730   0.00000000
	   No     1 A1    0.4779650189  -0.00405313
Ro*L+Zeta in CC_GLG, LIA before zeta:    0.0000000000
	Overlaps of onepdm after excited-state parts added.
	<DIA|DIA> =    0.0037334307     <Dia|Dia> =    0.0026066140
	<DAI|DAI> =    0.0079282752     <Dai|Dai> =    0.0042722750
	<Dpq|Dqp> =    0.0185405949
Ro*L+Zeta in CC_GLG, LIA before zeta:    0.0000049231
	Overlaps of onepdm after excited-state parts added.
	<DIA|DIA> =    0.0062765572     <Dia|Dia> =    0.0039829252
	<DAI|DAI> =    0.0136795439     <Dai|Dai> =    0.0082895224
	<Dpq|Dqp> =    0.0322285487
Doing transition

	Oscillator Strength for 1 B2
	                              X    	       Y    	       Z
	<0|mu_e|n>               0.00000000 	  0.10662289 	  0.00000000
	<n|mu_e|0>               0.00000000 	  0.10553749 	  0.00000000
	Dipole Strength          0.01125271 
	Oscillator Strength      0.00407528 
	Einstein A Coefficient   3.86413231e+07 
	Einstein B Coefficient   1.36907729e+18 
Doing transition
Doing transition
Doing transition

	Oscillator Strength for 1 A1
	                              X    	       Y    	       Z
	<0|mu_e|n>               0.00000000 	  0.00000000 	  0.10098095
	<n|mu_e|0>               0.00000000 	  0.00000000 	  0.09853745
	Dipole Strength          0.00995040 
	Oscillator Strength      0.00317063 
	Einstein A Coefficient   2.32728034e+07 
	Einstein B Coefficient   1.21063018e+18 
Doing transition
Doing transition
Doing transition

	                   Ground State -> Excited State Transitions

	                   Excitation Energy          OS       RS        RS     Einstein A
	State   (eV)    (cm^-1)    (nm)     (au)              (l,au)   (v,au)     (s^-1)
	 1 B2  14.782  119227.4    83.9   0.543240   0.0041   0.0000   0.0000  3.864132E+07
	 1 A1  13.006  104901.2    95.3   0.477965   0.0032   0.0000   0.0000  2.327280E+07

Doing transition

	*********************************************************************
	*********************************************************************
	************                                             ************
	************ Excited State-Excited State Transition Data ************
	************                                             ************
	*********************************************************************
	*********************************************************************


	*** Computing <1A1|X{pq}}|1B2> (LEFT) Transition Density ***

		*** LTD Setup complete.
		***...density has been built...
		***...density has been sorted...

	*** Computing <1B2|X{pq}}|1A1> (RIGHT) Transition Density ***

		*** RTD Setup complete.
		***...density has been built...
		***...density has been sorted...

	*** 1A1 -> 1B2 transition densities complete.

	Oscillator Strength for 1 A1 to 1 B2
	                              X    	       Y    	       Z
	<0|mu_e|n>               0.00000000 	 -1.46789252 	  0.00000000
	<n|mu_e|0>               0.00000000 	 -1.46731593 	  0.00000000
	Dipole Strength          2.15386208 
	Oscillator Strength      0.09372883 
	Einstein A Coefficient   1.28314944e+07 
	Einstein B Coefficient   2.62052705e+20 

	                   Ground State -> Excited State Transitions

	                   Excitation Energy          OS       RS        RS     Einstein A
	State   (eV)    (cm^-1)    (nm)     (au)              (l,au)   (v,au)     (s^-1)
	 1 B2  14.782  119227.4    83.9   0.543240   0.0041   0.0000   0.0000  3.864132E+07
	 1 A1  13.006  104901.2    95.3   0.477965   0.0032   0.0000   0.0000  2.327280E+07


	                   Excited State -> Excited State Transitions

	                        Excitation Energy          OS       RS        RS     Einstein A
	Transition   (eV)    (cm^-1)    (nm)     (au)              (l,au)   (v,au)     (s^-1)
	  1A1->1B2   1.776   14326.2   698.0   0.065275   0.0937   0.0000   0.0000  1.283149E+07

    Nuclear Repulsion Energy..............................................................PASSED
    SCF Energy............................................................................PASSED
    CCSD Energy...........................................................................PASSED
    Left-Right CCSD Overlap...............................................................PASSED
    Root 1 (A1) Energy....................................................................PASSED
    Root 0 (A2) Energy....................................................................PASSED
    CC ROOT 0 (B1) -> ROOT 0 (A2) OSCILLATOR STRENGTH (LEN)...............................PASSED
    CCSD ROOT 0 (B1) -> ROOT 0 (A2) OSCILLATOR STRENGTH (LEN).............................PASSED
    CC ROOT 0 (B1) -> ROOT 0 (A2) EINSTEIN A (LEN)........................................PASSED
    CCSD ROOT 0 (B1) -> ROOT 0 (A2) EINSTEIN A (LEN)......................................PASSED
    CC ROOT 0 (B1) -> ROOT 0 (A2) EINSTEIN B (LEN)........................................PASSED
    CCSD ROOT 0 (B1) -> ROOT 0 (A2) EINSTEIN B (LEN)......................................PASSED
    CC ROOT 0 (B1) -> ROOT 1 (B1) OSCILLATOR STRENGTH (LEN)...............................PASSED
    CCSD ROOT 0 (B1) -> ROOT 1 (B1) OSCILLATOR STRENGTH (LEN).............................PASSED
    CC ROOT 0 (B1) -> ROOT 1 (B1) EINSTEIN A (LEN)........................................PASSED
    CCSD ROOT 0 (B1) -> ROOT 1 (B1) EINSTEIN A (LEN)......................................PASSED
    CC ROOT 0 (B1) -> ROOT 1 (B1) EINSTEIN B (LEN)........................................PASSED
    CCSD ROOT 0 (B1) -> ROOT 1 (B1) EINSTEIN B (LEN)......................................PASSED
    CC ROOT 1 (B1) -> ROOT 0 (A2) OSCILLATOR STRENGTH (LEN)...............................PASSED
    CCSD ROOT 1 (B1) -> ROOT 0 (A2) OSCILLATOR STRENGTH (LEN).............................PASSED
    CC ROOT 1 (B1) -> ROOT 0 (A2) EINSTEIN A (LEN)........................................PASSED
    CCSD ROOT 1 (B1) -> ROOT 0 (A2) EINSTEIN A (LEN)......................................PASSED
    CC ROOT 1 (B1) -> ROOT 0 (A2) EINSTEIN B (LEN)........................................PASSED
    CCSD ROOT 1 (B1) -> ROOT 0 (A2) EINSTEIN B (LEN)......................................PASSED

    Psi4 stopped on: Wednesday, 30 March 2022 07:54PM
    Psi4 wall time for execution: 0:00:03.16

*** Psi4 exiting successfully. Buy a developer a beer!
