
    -----------------------------------------------------------------------
          Psi4: An Open-Source Ab Initio Electronic Structure Package
                               Psi4 1.1rc3.dev5 

                         Git: Rev {master} 3fbd859 


    R. M. Parrish, L. A. Burns, D. G. A. Smith, A. C. Simmonett,
    A. E. DePrince III, E. G. Hohenstein, U. Bozkaya, A. Yu. Sokolov,
    R. Di Remigio, R. M. Richard, J. F. Gonthier, A. M. James,
    H. R. McAlexander, A. Kumar, M. Saitow, X. Wang, B. P. Pritchard,
    P. Verma, H. F. Schaefer III, K. Patkowski, R. A. King, E. F. Valeev,
    F. A. Evangelista, J. M. Turney, T. D. Crawford, and C. D. Sherrill,
    J. Chem. Theory Comput. in press (2017).
    (doi: 10.1021/acs.jctc.7b00174)

    -----------------------------------------------------------------------


    Psi4 started on: Monday, 15 May 2017 03:35PM

    Process ID:  13879
    PSIDATADIR: /home/psilocaluser/gits/hrw-direct/objdir4/stage/usr/local/psi4/share/psi4
    Memory:     500.0 MiB
    Threads:    1
    
  ==> Input File <==

--------------------------------------------------------------------------
#! OMP2 cc-pVDZ energy for the NO molecule.

ref_vals = [                                                             #TEST
             [ 0.000000000000,    0.00000000000000,     0.04866593217844],  #TEST
             [ 0.000000000000,    0.00000000000000,    -0.04866593217844]   #TEST
           ]                                                             #TEST
ref = psi4.Matrix(2, 3)                                                #TEST
ref.set(ref_vals)

molecule {
0 2
N
O 1 1.158
}

set {
  basis cc-pvdz
  df_basis_scf cc-pvdz-jkfit
  df_basis_cc cc-pvdz-ri
  scf_type df
  guess sad
  reference uhf
  freeze_core true
  mp2_type df
}

grad = gradient('omp2')

compare_matrices(ref, grad, 5, "Analytic gradients")  #TEST


--------------------------------------------------------------------------
gradient() will perform analytic gradient computation.

*** tstart() called on psinet
*** at Mon May 15 15:35:46 2017

  A requested method does not make use of molecular symmetry: further calculations in C1 point group.
   => Loading Basis Set <=

    Name: CC-PVDZ
    Role: ORBITAL
    Keyword: BASIS
    atoms 1 entry N          line   160 file /home/psilocaluser/gits/hrw-direct/objdir4/stage/usr/local/psi4/share/psi4/basis/cc-pvdz.gbs 
    atoms 2 entry O          line   190 file /home/psilocaluser/gits/hrw-direct/objdir4/stage/usr/local/psi4/share/psi4/basis/cc-pvdz.gbs 


         ---------------------------------------------------------
                                   SCF
            by Justin Turney, Rob Parrish, and Andy Simmonett
                              UHF Reference
                        1 Threads,    500 MiB Core
         ---------------------------------------------------------

  ==> Geometry <==

    Molecular point group: c1
    Full point group: C_inf_v

    Geometry (in Angstrom), charge = 0, multiplicity = 2:

       Center              X                  Y                   Z               Mass       
    ------------   -----------------  -----------------  -----------------  -----------------
           N          0.000000000000     0.000000000000    -0.617445101450    14.003074004780
           O          0.000000000000     0.000000000000     0.540554898550    15.994914619560

  Running in c1 symmetry.

  Rotational constants: A = ************  B =      1.68371  C =      1.68371 [cm^-1]
  Rotational constants: A = ************  B =  50476.22913  C =  50476.22913 [MHz]
  Nuclear repulsion =   25.590607669291881

  Charge       = 0
  Multiplicity = 2
  Electrons    = 15
  Nalpha       = 8
  Nbeta        = 7

  ==> Algorithm <==

  SCF Algorithm Type is DF.
  DIIS enabled.
  MOM disabled.
  Fractional occupation disabled.
  Guess Type is SAD.
  Energy threshold   = 1.00e-10
  Density threshold  = 1.00e-10
  Integral threshold = 0.00e+00

  ==> Primary Basis <==

  Basis Set: CC-PVDZ
    Blend: CC-PVDZ
    Number of shells: 12
    Number of basis function: 28
    Number of Cartesian functions: 30
    Spherical Harmonics?: true
    Max angular momentum: 2

   => Loading Basis Set <=

    Name: CC-PVDZ-JKFIT
    Role: JKFIT
    Keyword: DF_BASIS_SCF
    atoms 1 entry N          line   170 file /home/psilocaluser/gits/hrw-direct/objdir4/stage/usr/local/psi4/share/psi4/basis/cc-pvdz-jkfit.gbs 
    atoms 2 entry O          line   220 file /home/psilocaluser/gits/hrw-direct/objdir4/stage/usr/local/psi4/share/psi4/basis/cc-pvdz-jkfit.gbs 

  ==> Pre-Iterations <==

   -------------------------------------------------------
    Irrep   Nso     Nmo     Nalpha   Nbeta   Ndocc  Nsocc
   -------------------------------------------------------
     A         28      28       0       0       0       0
   -------------------------------------------------------
    Total      28      28       8       7       7       1
   -------------------------------------------------------

  ==> Integral Setup <==

  ==> DFJK: Density-Fitted J/K Matrices <==

    J tasked:                  Yes
    K tasked:                  Yes
    wK tasked:                  No
    OpenMP threads:              1
    Integrals threads:           1
    Memory (MB):               375
    Algorithm:                Core
    Integral Cache:           SAVE
    Schwarz Cutoff:          1E-12
    Fitting Condition:       1E-12

   => Auxiliary Basis Set <=

  Basis Set: CC-PVDZ-JKFIT
    Blend: CC-PVDZ-JKFIT
    Number of shells: 48
    Number of basis function: 140
    Number of Cartesian functions: 162
    Spherical Harmonics?: true
    Max angular momentum: 3

  Minimum eigenvalue in the overlap matrix is 1.4652171585E-02.
  Using Symmetric Orthogonalization.

  SCF Guess: Superposition of Atomic Densities via on-the-fly atomic UHF.

  ==> Iterations <==

                           Total Energy        Delta E     RMS |[F,P]|

   @DF-UHF iter   0:  -129.73778706096840   -1.29738e+02   8.85343e-02 
   @DF-UHF iter   1:  -129.20690025947590    5.30887e-01   1.15156e-02 
   @DF-UHF iter   2:  -129.24990849925098   -4.30082e-02   3.79084e-03 DIIS
   @DF-UHF iter   3:  -129.25585521452859   -5.94672e-03   2.27409e-03 DIIS
   @DF-UHF iter   4:  -129.25761974984249   -1.76454e-03   7.56207e-04 DIIS
   @DF-UHF iter   5:  -129.25828368528224   -6.63935e-04   3.40475e-04 DIIS
   @DF-UHF iter   6:  -129.25844220960803   -1.58524e-04   1.74311e-04 DIIS
   @DF-UHF iter   7:  -129.25851890755965   -7.66980e-05   1.32223e-04 DIIS
   @DF-UHF iter   8:  -129.25860378153357   -8.48740e-05   1.09349e-04 DIIS
   @DF-UHF iter   9:  -129.25866341347708   -5.96319e-05   1.02533e-04 DIIS
   @DF-UHF iter  10:  -129.25876299514925   -9.95817e-05   9.37903e-05 DIIS
   @DF-UHF iter  11:  -129.25906499042486   -3.01995e-04   8.03106e-05 DIIS
   @DF-UHF iter  12:  -129.25910011676694   -3.51263e-05   3.79270e-05 DIIS
   @DF-UHF iter  13:  -129.25910426444273   -4.14768e-06   1.34460e-05 DIIS
   @DF-UHF iter  14:  -129.25910491085460   -6.46412e-07   1.18751e-05 DIIS
   @DF-UHF iter  15:  -129.25910468121873    2.29636e-07   1.40100e-05 DIIS
   @DF-UHF iter  16:  -129.25910529587227   -6.14654e-07   3.72597e-06 DIIS
   @DF-UHF iter  17:  -129.25910534839466   -5.25224e-08   6.34355e-07 DIIS
   @DF-UHF iter  18:  -129.25910534872219   -3.27532e-10   3.41245e-07 DIIS
   @DF-UHF iter  19:  -129.25910534911321   -3.91026e-10   1.85668e-08 DIIS
   @DF-UHF iter  20:  -129.25910534911429   -1.08002e-12   7.51995e-09 DIIS
   @DF-UHF iter  21:  -129.25910534911452   -2.27374e-13   9.34958e-10 DIIS
   @DF-UHF iter  22:  -129.25910534911458   -5.68434e-14   4.39671e-10 DIIS
   @DF-UHF iter  23:  -129.25910534911458    0.00000e+00   6.58420e-11 DIIS

  ==> Post-Iterations <==

   @Spin Contamination Metric:   6.749259761E-02
   @S^2 Expected:                7.500000000E-01
   @S^2 Observed:                8.174925976E-01
   @S   Expected:                5.000000000E-01
   @S   Observed:                5.000000000E-01

    Orbital Energies (a.u.)
    -----------------------

    Alpha Occupied:                                                       

       1A    -20.696259     2A    -15.735086     3A     -1.606104  
       4A     -0.966174     5A     -0.780007     6A     -0.690670  
       7A     -0.634234     8A     -0.422073  

    Alpha Virtual:                                                        

       9A      0.096516    10A      0.506775    11A      0.864721  
      12A      0.909605    13A      0.954089    14A      0.998791  
      15A      1.119036    16A      1.170662    17A      1.232183  
      18A      1.897893    19A      1.898040    20A      1.938940  
      21A      1.967331    22A      1.984610    23A      2.811976  
      24A      2.916501    25A      2.917078    26A      3.486471  
      27A      3.503084    28A      3.873180  

    Beta Occupied:                                                        

       1A    -20.691315     2A    -15.698671     3A     -1.573759  
       4A     -0.883234     5A     -0.658035     6A     -0.644681  
       7A     -0.606673  

    Beta Virtual:                                                         

       8A      0.126727     9A      0.172855    10A      0.530204  
      11A      0.957874    12A      0.974386    13A      0.990731  
      14A      1.037911    15A      1.127757    16A      1.198965  
      17A      1.234715    18A      1.981518    19A      1.989508  
      20A      1.990999    21A      1.992666    22A      2.018865  
      23A      2.844382    24A      2.931514    25A      2.931658  
      26A      3.492001    27A      3.531779    28A      3.881286  

    Final Occupation by Irrep:
              A 
    DOCC [     7 ]
    SOCC [     1 ]

  Energy converged.

  @DF-UHF Final Energy:  -129.25910534911458

   => Energetics <=

    Nuclear Repulsion Energy =             25.5906076692918809
    One-Electron Energy =                -227.4124523443897772
    Two-Electron Energy =                  72.5627393259833440
    DFT Exchange-Correlation Energy =       0.0000000000000000
    Empirical Dispersion Energy =           0.0000000000000000
    PCM Polarization Energy =               0.0000000000000000
    EFP Energy =                            0.0000000000000000
    Total Energy =                       -129.2591053491145772


  UHF NO Occupations:
  HONO-2 :    6  A 1.9973824
  HONO-1 :    7  A 1.9706499
  HONO-0 :    8  A 1.0000000
  LUNO+0 :    9  A 0.0293501
  LUNO+1 :   10  A 0.0026176
  LUNO+2 :   11  A 0.0018946
  LUNO+3 :   12  A 0.0001982



Properties will be evaluated at   0.000000,   0.000000,   0.000000 Bohr

Properties computed using the SCF density matrix

  Nuclear Dipole Moment: (a.u.)
     X:     0.0000      Y:     0.0000      Z:     0.0044

  Electronic Dipole Moment: (a.u.)
     X:    -0.0000      Y:    -0.0000      Z:    -0.1287

  Dipole Moment: (a.u.)
     X:    -0.0000      Y:    -0.0000      Z:    -0.1243     Total:     0.1243

  Dipole Moment: (Debye)
     X:    -0.0000      Y:    -0.0000      Z:    -0.3158     Total:     0.3158


*** tstop() called on psinet at Mon May 15 15:35:47 2017
Module time:
	user time   =       0.49 seconds =       0.01 minutes
	system time =       0.03 seconds =       0.00 minutes
	total time  =          1 seconds =       0.02 minutes
Total time:
	user time   =       0.49 seconds =       0.01 minutes
	system time =       0.03 seconds =       0.00 minutes
	total time  =          1 seconds =       0.02 minutes
   => Loading Basis Set <=

    Name: CC-PVDZ-JKFIT
    Role: JKFIT
    Keyword: DF_BASIS_SCF
    atoms 1 entry N          line   170 file /home/psilocaluser/gits/hrw-direct/objdir4/stage/usr/local/psi4/share/psi4/basis/cc-pvdz-jkfit.gbs 
    atoms 2 entry O          line   220 file /home/psilocaluser/gits/hrw-direct/objdir4/stage/usr/local/psi4/share/psi4/basis/cc-pvdz-jkfit.gbs 

   => Loading Basis Set <=

    Name: CC-PVDZ-RI
    Role: RIFIT
    Keyword: DF_BASIS_CC
    atoms 1 entry N          line   196 file /home/psilocaluser/gits/hrw-direct/objdir4/stage/usr/local/psi4/share/psi4/basis/cc-pvdz-ri.gbs 
    atoms 2 entry O          line   234 file /home/psilocaluser/gits/hrw-direct/objdir4/stage/usr/local/psi4/share/psi4/basis/cc-pvdz-ri.gbs 


*** tstart() called on psinet
*** at Mon May 15 15:35:47 2017



  Options:
  ----------------------------------------------------------------------------
  ACTIVE                      => [  ]             
  BASIS_RELATIVISTIC          => (empty)          
  BENCH                       => 0                
  CC_DIIS_MAX_VECS            => 6                
  CC_DIIS_MIN_VECS            => 2                
  CC_LAMBDA                   => FALSE            
  CC_MAXITER                  => 50               
  CC_TYPE                     => CONV             
  CHOLESKY                    => FALSE            
  CHOLESKY_TOLERANCE          => 0.0001           
  CI_TYPE                     => CONV             
  COMPUT_S2                   => FALSE            
  CUBEPROP_BASIS_FUNCTIONS    => [  ]             
  CUBEPROP_FILEPATH           => .                
  CUBEPROP_ORBITALS           => [  ]             
  CUBEPROP_TASKS              => [  ]             
  CUBIC_BASIS_TOLERANCE       => 1e-12            
  CUBIC_BLOCK_MAX_POINTS      => 1000             
  CUBIC_GRID_OVERAGE          => [  ]             
  CUBIC_GRID_SPACING          => [  ]             
  CUTOFF                      => 8                
  DEBUG                       => 0                
  DERTYPE                     => FIRST           !
  DF_BASIS_CC                 => CC-PVDZ-RI      !
  DIE_IF_NOT_CONVERGED        => TRUE             
  DKH_ORDER                   => 2                
  DOCC                        => [  ]             
  DO_DIIS                     => TRUE             
  DO_LEVEL_SHIFT              => TRUE             
  DO_SCS                      => FALSE           !
  DO_SOS                      => FALSE           !
  E3_SCALE                    => 0.25             
  EKT_IP                      => FALSE            
  EXTERNAL_POTENTIAL_SYMMETRY => FALSE            
  E_CONVERGENCE               => 1e-08           !
  FREEZE_CORE                 => TRUE            !
  FROZEN_DOCC                 => [  ]             
  FROZEN_UOCC                 => [  ]             
  HESS_TYPE                   => HF               
  INTEGRAL_CUTOFF             => 9                
  INTEGRAL_PACKAGE            => LIBINT           
  LEVEL_SHIFT                 => 0.02             
  LINEQ_SOLVER                => CDGESV           
  LITERAL_CFOUR               => (empty)          
  MAT_NUM_COLUMN_PRINT        => 5                
  MAX_MOGRAD_CONVERGENCE      => 0.001            
  MOLDEN_WITH_VIRTUAL         => TRUE             
  MOLDEN_WRITE                => FALSE            
  MO_DIIS_NUM_VECS            => 6                
  MO_MAXITER                  => 50               
  MO_STEP_MAX                 => 0.5              
  MP2_AMP_TYPE                => DIRECT           
  MP2_OS_SCALE                => 1.2              
  MP2_SOS_SCALE               => 1.3              
  MP2_SOS_SCALE2              => 1.2              
  MP2_SS_SCALE                => 0.333333         
  MP2_TYPE                    => DF              !
  MP_TYPE                     => CONV             
  NAT_ORBS                    => FALSE            
  NUM_FROZEN_DOCC             => 0                
  NUM_FROZEN_UOCC             => 0                
  OCC_ORBS_PRINT              => FALSE            
  OEPROP                      => FALSE            
  OO_SCALE                    => 0.01             
  OPT_METHOD                  => QNR              
  ORB_OPT                     => TRUE            !
  ORB_RESP_SOLVER             => PCG              
  ORTH_TYPE                   => MGS              
  PCG_BETA_TYPE               => FLETCHER_REEVES  
  PCG_CONVERGENCE             => 1e-06            
  PCG_MAXITER                 => 50               
  PCM                         => FALSE            
  PCM_CC_TYPE                 => PTE              
  PCM_SCF_TYPE                => TOTAL            
  PPL_TYPE                    => AUTO             
  PRINT                       => 1                
  PRINT_NOONS                 => 3                
  PROPERTIES                  => [  ]             
  PROPERTIES_ORIGIN           => [  ]             
  PUREAM                      => TRUE             
  QCHF                        => FALSE            
  QC_MODULE                   => (empty)          
  RAS1                        => [  ]             
  RAS2                        => [  ]             
  RAS3                        => [  ]             
  RAS4                        => [  ]             
  READ_SCF_3INDEX             => TRUE             
  REGULARIZATION              => FALSE            
  REG_PARAM                   => 0.4              
  RELATIVISTIC                => NO               
  RESTRICTED_DOCC             => [  ]             
  RESTRICTED_UOCC             => [  ]             
  RMS_MOGRAD_CONVERGENCE      => 1e-06            
  R_CONVERGENCE               => 1e-05            
  SCS_TYPE                    => SCS              
  SOCC                        => [  ]             
  SOS_TYPE                    => SOS              
  TRIPLES_IABC_TYPE           => DISK             
  UNITS                       => ANGSTROMS        
  WFN                         => SCF              
  WFN_TYPE                    => DF-OMP2         !
  WRITER_FILE_LABEL           => (empty)          


 ============================================================================== 
 ============================================================================== 
 ============================================================================== 

                      DF-OMP2 (DF-OO-MP2)   
              Program Written by Ugur Bozkaya
              Latest Revision April 17, 2016

 ============================================================================== 
 ============================================================================== 
 ============================================================================== 

	RMS orbital gradient is changed to :     2.51e-06
	MAX orbital gradient is changed to :     1.05e-04
	MO Hessian type is changed to 'APPROX_DIAG'
	MO spaces... 

	 FC   AOCC   BOCC  AVIR   BVIR   FV 
	------------------------------------------
	  2     6     5    20     21     0
	Reading DF integrals from disk ...
	Number of basis functions in the DF-HF basis: 140
	Number of basis functions in the DF-CC basis: 112

	Available memory                      :    500.00 MB 
	Minimum required memory for amplitudes:      0.59 MB 

	Computing DF-MP2 energy using SCF MOs (Canonical DF-MP2)... 
	======================================================================= 
	Nuclear Repulsion Energy (a.u.)    :    25.59060766929188
	DF-HF Energy (a.u.)                :  -129.25910534911458
	REF Energy (a.u.)                  :  -129.25910534911458
	Alpha-Alpha Contribution (a.u.)    :    -0.04364302337821
	Alpha-Beta Contribution (a.u.)     :    -0.22855804143648
	Beta-Beta Contribution (a.u.)      :    -0.04280493583882
	Scaled_SS Correlation Energy (a.u.):    -0.02881598640568
	Scaled_OS Correlation Energy (a.u.):    -0.27426964972377
	DF-SCS-MP2 Total Energy (a.u.)     :  -129.56219098524403
	DF-SOS-MP2 Total Energy (a.u.)     :  -129.55623080298199
	DF-SCSN-MP2 Total Energy (a.u.)    :  -129.41125375733654
	DF-MP2 Correlation Energy (a.u.)   :    -0.31500600065351
	DF-MP2 Total Energy (a.u.)         :  -129.57411134976809
	======================================================================= 

	Number of alpha independent-pairs:172
	Number of beta independent-pairs :157

 ============================================================================== 
 ================ Performing DF-OMP2 iterations... ============================ 
 ============================================================================== 
	            Minimizing DF-MP2-L Functional 
	            ------------------------------ 
 Iter       E_total           DE           RMS MO Grad      MAX MO Grad      RMS T2    
 ----    ---------------    ----------     -----------      -----------     ---------- 
   1     -129.5835167840     -9.41e-03       5.67e-03         4.20e-02        1.66e-04 
   2     -129.5863914461     -2.87e-03       4.23e-03         3.82e-02        8.17e-05 
   3     -129.5877959690     -1.40e-03       2.92e-03         3.01e-02        5.65e-05 
   4     -129.5885803307     -7.84e-04       2.25e-03         2.08e-02        3.55e-05 
   5     -129.5890372039     -4.57e-04       1.75e-03         1.93e-02        2.68e-05 
   6     -129.5896425938     -6.05e-04       1.06e-03         7.38e-03        5.83e-05 
   7     -129.5896878237     -4.52e-05       2.77e-04         2.40e-03        1.00e-05 
   8     -129.5896956024     -7.78e-06       2.62e-04         1.88e-03        4.28e-06 
   9     -129.5896966242     -1.02e-06       2.60e-04         1.68e-03        2.24e-06 
  10     -129.5896987874     -2.16e-06       6.45e-05         6.04e-04        9.22e-07 
  11     -129.5896995761     -7.89e-07       4.46e-05         5.05e-04        8.69e-07 
  12     -129.5897000387     -4.63e-07       6.54e-05         4.03e-04        5.43e-07 
  13     -129.5897002861     -2.47e-07       2.36e-05         2.80e-04        2.51e-07 
  14     -129.5897004694     -1.83e-07       2.96e-05         1.54e-04        2.48e-07 
  15     -129.5897005450     -7.56e-08       2.13e-05         1.20e-04        1.56e-07 
  16     -129.5897005849     -3.99e-08       1.89e-05         1.00e-04        1.08e-07 
  17     -129.5897006046     -1.97e-08       1.15e-05         5.87e-05        8.97e-08 
  18     -129.5897006121     -7.46e-09       4.92e-06         3.34e-05        1.01e-07 

 ============================================================================== 
 ======================== DF-OMP2 ITERATIONS ARE CONVERGED ==================== 
 ============================================================================== 

	Computing MP2 energy using optimized MOs... 
	======================================================================= 
	Nuclear Repulsion Energy (a.u.)    :    25.59060766929188
	DF-HF Energy (a.u.)                :  -129.25910534911458
	REF Energy (a.u.)                  :  -129.24931177922821
	Alpha-Alpha Contribution (a.u.)    :    -0.04435953645909
	Alpha-Beta Contribution (a.u.)     :    -0.24603630192443
	Beta-Beta Contribution (a.u.)      :    -0.04999303236800
	Scaled_SS Correlation Energy (a.u.):    -0.03145085627570
	Scaled_OS Correlation Energy (a.u.):    -0.29524356230932
	DF-SCS-MP2 Total Energy (a.u.)     :  -129.57600619781320
	DF-SOS-MP2 Total Energy (a.u.)     :  -129.54455534153752
	DF-SCSN-MP2 Total Energy (a.u.)    :  -129.41537230036388
	DF-MP2 Correlation Energy (a.u.)   :    -0.33059530086516
	DF-MP2 Total Energy (a.u.)         :  -129.58970064997973
	======================================================================= 

	======================================================================= 
	================ DF-OMP2 FINAL RESULTS ================================ 
	======================================================================= 
	Nuclear Repulsion Energy (a.u.)    :    25.59060766929188
	DF-HF Energy (a.u.)                :  -129.25910534911458
	REF Energy (a.u.)                  :  -129.24931177922821
	DF-SCS-OMP2 Total Energy (a.u.)    :  -129.57600619781320
	DF-SOS-OMP2 Total Energy (a.u.)    :  -129.54455534153752
	DF-SCSN-OMP2 Total Energy (a.u.)   :  -129.41537230036388
	DF-OMP2 Correlation Energy (a.u.)  :    -0.33059526295582
	Edfomp2 - Eref (a.u.)              :    -0.34038883284219
	DF-OMP2 Total Energy (a.u.)        :  -129.58970061207040
	======================================================================= 


*** tstop() called on psinet at Mon May 15 15:35:49 2017
Module time:
	user time   =       0.86 seconds =       0.01 minutes
	system time =       0.82 seconds =       0.01 minutes
	total time  =          2 seconds =       0.03 minutes
Total time:
	user time   =       1.42 seconds =       0.02 minutes
	system time =       0.85 seconds =       0.01 minutes
	total time  =          3 seconds =       0.05 minutes

*** tstart() called on psinet
*** at Mon May 15 15:35:49 2017


 ============================================================================== 
 ============================================================================== 
 ============================================================================== 

                         DFGRAD   
            A General Analytic Gradients Code   
               for Density-Fitted Methods       
                   by Ugur Bozkaya
              Latest Revision October 7, 2015

 ============================================================================== 
 ============================================================================== 
 ============================================================================== 

	Analytic gradients computation is starting...
	Forming Gamma^tilde...
	Backtransforming OPDM, TPDM, and GFM to the AO basis...
	Computing analytic gradients...

  -Nuclear Gradient:
     Atom            X                  Y                   Z
    ------   -----------------  -----------------  -----------------
       1        0.000000000000     0.000000000000    11.694271444350
       2        0.000000000000     0.000000000000   -11.694271444350


  -Kinetic Gradient:
     Atom            X                  Y                   Z
    ------   -----------------  -----------------  -----------------
       1        0.000000000000     0.000000000000     1.618656509718
       2       -0.000000000000    -0.000000000000    -1.618656509718


  -Potential Gradient:
     Atom            X                  Y                   Z
    ------   -----------------  -----------------  -----------------
       1       -0.000000000000    -0.000000000002   -27.796851117064
       2        0.000000000000     0.000000000002    27.796851117063


  -Overlap Gradient:
     Atom            X                  Y                   Z
    ------   -----------------  -----------------  -----------------
       1        0.000000000000    -0.000000000000     0.801111633759
       2       -0.000000000000     0.000000000000    -0.801111633759


  -One-Electron Gradient:
     Atom            X                  Y                   Z
    ------   -----------------  -----------------  -----------------
       1       -0.000000000000    -0.000000000002   -26.178194607345
       2        0.000000000000     0.000000000002    26.178194607345


  -Two-Electron Gradient:
     Atom            X                  Y                   Z
    ------   -----------------  -----------------  -----------------
       1        0.000000000000     0.000000000001    13.731477461429
       2       -0.000000000000    -0.000000000001   -13.731477461429


  -Total Gradient:
     Atom            X                  Y                   Z
    ------   -----------------  -----------------  -----------------
       1       -0.000000000000    -0.000000000000     0.048665932193
       2        0.000000000000     0.000000000000    -0.048665932193


*** tstop() called on psinet at Mon May 15 15:35:49 2017
Module time:
	user time   =       0.21 seconds =       0.00 minutes
	system time =       0.03 seconds =       0.00 minutes
	total time  =          0 seconds =       0.00 minutes
Total time:
	user time   =       1.63 seconds =       0.03 minutes
	system time =       0.88 seconds =       0.01 minutes
	total time  =          3 seconds =       0.05 minutes
	Analytic gradients................................................PASSED

*** Psi4 exiting successfully. Buy a developer a beer!
