    -----------------------------------------------------------------------
          PSI4: An Open-Source Ab Initio Electronic Structure Package
                              PSI 4.0.0-beta3+ Driver

               Git: Rev {master} da03939ae76153e64151ec5b85250d20165c795d

    J. M. Turney, A. C. Simmonett, R. M. Parrish, E. G. Hohenstein,
    F. A. Evangelista, J. T. Fermann, B. J. Mintz, L. A. Burns, J. J. Wilke,
    M. L. Abrams, N. J. Russ, M. L. Leininger, C. L. Janssen, E. T. Seidl,
    W. D. Allen, H. F. Schaefer, R. A. King, E. F. Valeev, C. D. Sherrill,
    and T. D. Crawford, WIREs Comput. Mol. Sci., (2011) (doi: 10.1002/wcms.93)

                         Additional Contributions by
    A. E. DePrince, M. Saitow, U. Bozkaya, A. Yu. Sokolov
    -----------------------------------------------------------------------

    Process ID:   3085
    PSI4DATADIR: /home/ugur/psi4/lib

    Using LocalCommunicator (Number of processes = 1)

    Memory level set to 256.000 MB

  ==> Input File <==

--------------------------------------------------------------------------
#! OMP2.5 cc-pVDZ gradient for the NO radical

ref_vals = [                                                       #TEST
             [ 0.000000000000,  0.000000000000,  0.011596092850],  #TEST
             [ 0.000000000000,  0.000000000000, -0.011596092850]   #TEST
           ]                                                       #TEST
ref = PsiMod.Matrix(2, 3)                                          #TEST
ref.set(ref_vals)

memory 250 mb

molecule no {
0 2
n
o 1 1.158
}

set {
  basis cc-pvdz
  reference rohf
  guess gwh
}
gradient('omp2.5')

grad = PsiMod.wavefunction().gradient()                           #TEST
compare_matrices(ref, grad, 6, "Analytic gradients")              #TEST

--------------------------------------------------------------------------

  Memory set to 250.000 MiB by Python script.

*** tstart() called on bozkaya
*** at Fri Mar 29 11:54:31 2013


         ---------------------------------------------------------
                                   SCF
            by Justin Turney, Rob Parrish, and Andy Simmonett
                             ROHF Reference
                        4 Threads,    250 MiB Core
         ---------------------------------------------------------

  ==> Geometry <==

    Molecular point group: c2v
    Full point group: C_inf_v

    Geometry (in Angstrom), charge = 0, multiplicity = 2:

       Center              X                  Y                   Z       
    ------------   -----------------  -----------------  -----------------
           N          0.000000000000     0.000000000000    -0.617445101450
           O          0.000000000000     0.000000000000     0.540554898550

  Running in c2v symmetry.

  Nuclear repulsion =   25.590607669291881

  Charge       = 0
  Multiplicity = 2
  Electrons    = 15
  Nalpha       = 8
  Nbeta        = 7

  ==> Algorithm <==

  SCF Algorithm Type is PK.
  DIIS enabled.
  MOM disabled.
  Fractional occupation disabled.
  Guess Type is GWH.
  Energy threshold   = 1.00e-10
  Density threshold  = 1.00e-10
  Integral threshold = 0.00e+00

  ==> Primary Basis <==

  Basis Set: CC-PVDZ
    Number of shells: 12
    Number of basis function: 28
    Number of Cartesian functions: 30
    Spherical Harmonics?: true
    Max angular momentum: 2

  ==> Pre-Iterations <==

   -------------------------------------------------------
    Irrep   Nso     Nmo     Nalpha   Nbeta   Ndocc  Nsocc
   -------------------------------------------------------
     A1        14      14       0       0       0       0
     A2         2       2       0       0       0       0
     B1         6       6       0       0       0       0
     B2         6       6       0       0       0       0
   -------------------------------------------------------
    Total      28      28       8       7       7       1
   -------------------------------------------------------

  ==> Integral Setup <==

 MINTS: Wrapper to libmints.
   by Justin Turney

   Calculation information:
      Number of atoms:                   2
      Number of AO shells:              12
      Number of SO shells:              12
      Number of primitives:             44
      Number of atomic orbitals:        30
      Number of basis functions:        28

      Number of irreps:                  4
      Number of functions per irrep: [  14    2    6    6 ]

      Overlap, kinetic, potential, dipole, and quadrupole integrals
        stored in file 35.

      Computing two-electron integrals...done
      Computed 19125 non-zero two-electron integrals.
        Stored in file 33.

	Batch   1 pq = [       0,     150] index = [             0,11325]
  ==> DiskJK: Disk-Based J/K Matrices <==

    J tasked:                  Yes
    K tasked:                  Yes
    wK tasked:                  No
    Memory (MB):               178
    Schwarz Cutoff:          0E+00

  Minimum eigenvalue in the overlap matrix is 1.4652171585E-02.
  Using Symmetric Orthogonalization.
  SCF Guess: Generalized Wolfsberg-Helmholtz.

  Guess energy:   -88.21607587787983

  ==> Iterations <==

                        Total Energy        Delta E     RMS |[F,P]|

   @ROHF iter   1:  -128.32791740958135   -1.28328e+02   3.19243e-01 
   @ROHF iter   2:  -128.64055693489362   -3.12640e-01   1.37574e-01 DIIS
   @ROHF iter   3:  -128.94419707881414   -3.03640e-01   1.12323e-01 DIIS
   @ROHF iter   4:  -129.24662776825940   -3.02431e-01   1.28496e-02 DIIS
   @ROHF iter   5:  -129.25168603375488   -5.05827e-03   1.58174e-03 DIIS
   @ROHF iter   6:  -129.25209988611880   -4.13852e-04   6.56422e-04 DIIS
   @ROHF iter   7:  -129.25233170845607   -2.31822e-04   4.06282e-04 DIIS
   @ROHF iter   8:  -129.25244363254370   -1.11924e-04   1.31908e-04 DIIS
   @ROHF iter   9:  -129.25245572177903   -1.20892e-05   5.82516e-05 DIIS
   @ROHF iter  10:  -129.25245633777962   -6.16001e-07   1.62948e-05 DIIS
   @ROHF iter  11:  -129.25245637443433   -3.66547e-08   1.86089e-06 DIIS
   @ROHF iter  12:  -129.25245637507737   -6.43041e-10   3.24696e-07 DIIS
   @ROHF iter  13:  -129.25245637508345   -6.08225e-12   2.73119e-08 DIIS
   @ROHF iter  14:  -129.25245637508351   -5.68434e-14   4.65363e-09 DIIS
   @ROHF iter  15:  -129.25245637508360   -8.52651e-14   3.01115e-10 DIIS
   @ROHF iter  16:  -129.25245637508357    2.84217e-14   6.32658e-11 DIIS

  ==> Post-Iterations <==

	Orbital Energies (a.u.)
	-----------------------

	Doubly Occupied:                                                      

	   1A1   -20.693294     2A1   -15.725093     3A1    -1.589223  
	   4A1    -0.922952     1B1    -0.685435     5A1    -0.672120  
	   1B2    -0.641370  

	Singly Occupied:                                                      

	   2B1    -0.118726  

	Virtual:                                                              

	   2B2     0.105869     6A1     0.517631     3B1     0.915288  
	   3B2     0.931314     7A1     0.961533     8A1     1.015422  
	   9A1     1.123613     4B1     1.200255     4B2     1.215623  
	  10A1     1.940513     1A2     1.940650     5B2     1.971535  
	   5B1     1.973964    11A1     1.988534    12A1     2.825490  
	   2A2     2.924767    13A1     2.924781     6B2     3.497321  
	   6B1     3.507593    14A1     3.877003  

	Final Occupation by Irrep:
	         A1    A2    B1    B2 
	DOCC [     5,    0,    1,    1 ]
	SOCC [     0,    0,    1,    0 ]

  Energy converged.

  @ROHF Final Energy:  -129.25245637508357

   => Energetics <=

    Nuclear Repulsion Energy =             25.5906076692918809
    One-Electron Energy =                -227.4083458231556847
    Two-Electron Energy =                  72.5652817787802320
    DFT Exchange-Correlation Energy =       0.0000000000000000
    Empirical Dispersion Energy =           0.0000000000000000
    Total Energy =                       -129.2524563750835682



Properties will be evaluated at   0.000000,   0.000000,   0.000000 Bohr
  ==> Properties <==


Properties computed using the SCF density density matrix
  Nuclear Dipole Moment: (a.u.)
     X:     0.0000      Y:     0.0000      Z:     0.0044

  Electronic Dipole Moment: (a.u.)
     X:     0.0000      Y:     0.0000      Z:    -0.1531

  Dipole Moment: (a.u.)
     X:     0.0000      Y:     0.0000      Z:    -0.1488     Total:     0.1488

  Dipole Moment: (Debye)
     X:     0.0000      Y:     0.0000      Z:    -0.3781     Total:     0.3781


  Saving occupied orbitals to File 180.

*** tstop() called on bozkaya at Fri Mar 29 11:54:32 2013
Module time:
	user time   =       0.40 seconds =       0.01 minutes
	system time =       0.01 seconds =       0.00 minutes
	total time  =          1 seconds =       0.02 minutes
Total time:
	user time   =       0.40 seconds =       0.01 minutes
	system time =       0.01 seconds =       0.00 minutes
	total time  =          1 seconds =       0.02 minutes

*** tstart() called on bozkaya
*** at Fri Mar 29 11:54:32 2013



  Options:
  ----------------------------------------------------------------------------
  BENCH                  => 0                
  CACHELEVEL             => 2                
  CCL_ENERGY             => FALSE            
  CC_DIIS_MAX_VECS       => 6                
  CC_DIIS_MIN_VECS       => 2                
  CC_MAXITER             => 50               
  CEPA_OS_SCALE          => 1.27             
  CEPA_SOS_SCALE         => 1.3              
  CEPA_SS_SCALE          => 1.13             
  CEPA_TYPE              => CEPA0            
  CUTOFF                 => 14               
  DEBUG                  => 0                
  DERTYPE                => FIRST           !
  DIE_IF_NOT_CONVERGED   => TRUE             
  DOCC                   => [  ]             
  DO_DIIS                => TRUE             
  DO_LEVEL_SHIFT         => FALSE            
  DO_SCS                 => FALSE            
  DO_SOS                 => FALSE            
  E3_SCALE               => 0.25             
  EA_POLES               => FALSE            
  EKT_EA                 => FALSE            
  EKT_IP                 => FALSE            
  EP_EA_POLES            => FALSE            
  EP_IP_POLES            => FALSE            
  EP_MAXITER             => 30               
  E_CONVERGENCE          => 1e-08            
  FREEZE_CORE            => FALSE            
  FROZEN_DOCC            => [  ]             
  FROZEN_UOCC            => [  ]             
  IP_POLES               => FALSE            
  LEVEL_SHIFT            => 0.02             
  LINEQ_SOLVER           => CDGESV           
  MAT_NUM_COLUMN_PRINT   => 5                
  MAX_MOGRAD_CONVERGENCE => 0.001            
  MOGRAD_DAMPING         => 1                
  MO_DIIS_NUM_VECS       => 6                
  MO_MAXITER             => 50               
  MO_READ                => FALSE            
  MO_STEP_MAX            => 0.5              
  MO_WRITE               => FALSE            
  MP2_OS_SCALE           => 1.2              
  MP2_SOS_SCALE          => 1.3              
  MP2_SOS_SCALE2         => 1.2              
  MP2_SS_SCALE           => 0.333333         
  NAT_ORBS               => FALSE            
  NUM_FROZEN_DOCC        => 0                
  NUM_FROZEN_UOCC        => 0                
  OCC_ORBS_PRINT         => FALSE            
  OPT_METHOD             => ORB_RESP         
  ORB_OPT                => TRUE             
  ORB_RESP_SOLVER        => PCG              
  ORTH_TYPE              => MGS              
  PCG_BETA_TYPE          => FLETCHER_REEVES  
  PCG_CONVERGENCE        => 1e-06            
  PCG_MAXITER            => 30               
  PRINT                  => 1                
  PROPERTIES             => [  ]             
  PROPERTIES_ORIGIN      => [  ]             
  PUREAM                 => TRUE             
  RMS_MOGRAD_CONVERGENCE => 1e-05            
  R_CONVERGENCE          => 1e-05            
  SCS_TYPE               => SCS              
  SOCC                   => [  ]             
  SOS_TYPE               => SOS              
  TPDM_ABCD_TYPE         => DIRECT           
  UNITS                  => ANGSTROMS        
  WFN                    => SCF              
  WFN_TYPE               => OMP2.5          !
  WRITER_FILE_LABEL      => (empty)          


 ============================================================================== 
 ============================================================================== 
 ============================================================================== 

                       OMP2.5 (OO-MP2.5)   
              Program Written by Ugur Bozkaya,
              Latest Revision March 26, 2013.

 ============================================================================== 
 ============================================================================== 
 ============================================================================== 

	MO spaces per irreps... 

	IRREP   FC   AOCC  BOCC  AVIR    BVIR  FV 
	==========================================
	  A1     0     5     5     9      9     0
	  A2     0     0     0     2      2     0
	  B1     0     2     1     4      5     0
	  B2     0     1     1     5      5     0
	==========================================

	Computing MP2 energy using SCF MOs (Canonical MP2)... 
	============================================================================== 
	Nuclear Repulsion Energy (a.u.)    : 25.59060766929188
	SCF Energy (a.u.)                  : -129.25245637508357
	REF Energy (a.u.)                  : -129.25245637508340
	Alpha-Alpha Contribution (a.u.)    : -0.04371430345583
	Alpha-Beta Contribution (a.u.)     : -0.23974925386972
	Beta-Beta Contribution (a.u.)      : -0.04756821349837
	Scaled_SS Correlation Energy (a.u.): -0.03042750565140
	Scaled_OS Correlation Energy (a.u.): -0.28769910464367
	SCS-MP2 Total Energy (a.u.)        : -129.57058298537848
	SOS-MP2 Total Energy (a.u.)        : -129.56413040511404
	SCSN-MP2 Total Energy (a.u.)       : -129.41311360492278
	SCS-MI-MP2 Total Energy (a.u.)     : -129.46611052350221
	SCS-MP2-VDW Total Energy (a.u.)    : -129.60497667851374
	SOS-PI-MP2 Total Energy (a.u.)     : -129.58810533050101
	MP2 Correlation Energy (a.u.)      : -0.33103177082392
	MP2 Total Energy (a.u.)            : -129.58348814590732
	============================================================================== 


	Computing MP2.5 energy using SCF MOs (Canonical MP2.5)... 
	============================================================================== 
	Nuclear Repulsion Energy (a.u.)    : 25.59060766929188
	SCF Energy (a.u.)                  : -129.25245637508357
	REF Energy (a.u.)                  : -129.25245637508340
	Alpha-Alpha Contribution (a.u.)    : -0.04102194878190
	Alpha-Beta Contribution (a.u.)     : -0.24333834613121
	Beta-Beta Contribution (a.u.)      : -0.04395909722599
	0.5 Energy Correction (a.u.)       : 0.00271237868483
	MP2.5 Correlation Energy (a.u.)    : -0.32831939213910
	MP2.5 Total Energy (a.u.)          : -129.58077576722249
	============================================================================== 


	Number of alpha independent-pairs: 58
	Number of beta independent-pairs : 55

 ============================================================================== 
 ================ Performing OMP2.5 iterations... ============================= 
 ============================================================================== 
	            Minimizing MP2.5-L Functional 
	            --------------------------- 
 Iter       E_total           DE           RMS MO Grad      MAX MO Grad      RMS T2    
 ----    ---------------    ----------     -----------      -----------     ---------- 
   1     -129.5875501674     -6.77e-03       1.15e-03         2.38e-02        5.16e-06 
   2     -129.5883982420     -8.48e-04       7.42e-04         2.60e-02        4.93e-06 
   3     -129.5885660198     -1.68e-04       7.12e-04         1.66e-02        4.98e-06 
   4     -129.5886212826     -5.53e-05       6.79e-04         1.86e-02        4.91e-06 
   5     -129.5886289723     -7.69e-06       6.58e-04         1.62e-02        4.97e-06 
   6     -129.5888741112     -2.45e-04       1.96e-05         4.63e-04        4.93e-06 
   7     -129.5888763755     -2.26e-06       9.21e-06         2.25e-04        4.94e-06 

 ============================================================================== 
 ======================== OMP2.5 ITERATIONS ARE CONVERGED ===================== 
 ============================================================================== 

	Orbitals are optimized now.
	Switching to the standard MP2.5 computation after semicanonicalization of the MOs... 

	Computing MP2 energy using optimized MOs... 
	============================================================================== 
	Nuclear Repulsion Energy (a.u.)    : 25.59060766929188
	SCF Energy (a.u.)                  : -129.25245637508357
	REF Energy (a.u.)                  : -129.25288695777888
	Alpha-Alpha Contribution (a.u.)    : -0.04471753689096
	Alpha-Beta Contribution (a.u.)     : -0.24619219271680
	Beta-Beta Contribution (a.u.)      : -0.04963045309474
	Scaled_SS Correlation Energy (a.u.): -0.03144932999523
	Scaled_OS Correlation Energy (a.u.): -0.29543063126016
	SCS-MP2 Total Energy (a.u.)        : -129.57976691903428
	SOS-MP2 Total Energy (a.u.)        : -129.57293680831071
	SCSN-MP2 Total Energy (a.u.)       : -129.41893942015372
	SCS-MI-MP2 Total Energy (a.u.)     : -129.47307274194714
	SCS-MP2-VDW Total Energy (a.u.)    : -129.61518695944923
	SOS-PI-MP2 Total Energy (a.u.)     : -129.59755602758241
	MP2 Correlation Energy (a.u.)      : -0.33601461322570
	MP2 Total Energy (a.u.)            : -129.59342714048140
	============================================================================== 


	Computing MP2.5 energy using optimized MOs... 
	============================================================================== 
	Nuclear Repulsion Energy (a.u.)    : 25.59060766929188
	SCF Energy (a.u.)                  : -129.25245637508357
	REF Energy (a.u.)                  : -129.25288695777888
	Alpha-Alpha Contribution (a.u.)    : -0.04167846320849
	Alpha-Beta Contribution (a.u.)     : -0.24882573744262
	Beta-Beta Contribution (a.u.)      : -0.04551041257458
	0.5 Energy Correction (a.u.)       : 0.00452556947681
	MP2.5 Correlation Energy (a.u.)    : -0.33601461322570
	MP2.5 Total Energy (a.u.)          : -129.58890157100458
	============================================================================== 


	============================================================================== 
	================ OMP2.5 FINAL RESULTS ======================================== 
	============================================================================== 
	Nuclear Repulsion Energy (a.u.)    : 25.59060766929188
	SCF Energy (a.u.)                  : -129.25245637508357
	REF Energy (a.u.)                  : -129.25288695777888
	OMP2.5 Correlation Energy (a.u.)   : -0.33644519592102
	Eomp2.5 - Eref (a.u.)              : -0.33601461322570
	OMP2.5 Total Energy (a.u.)         : -129.58890157100458
	============================================================================== 

	Analytic gradient computation is starting...
	Necessary information has been sent to DERIV, which will take care of the rest.

*** tstop() called on bozkaya at Fri Mar 29 11:54:33 2013
Module time:
	user time   =       1.74 seconds =       0.03 minutes
	system time =       0.42 seconds =       0.01 minutes
	total time  =          1 seconds =       0.02 minutes
Total time:
	user time   =       2.15 seconds =       0.04 minutes
	system time =       0.43 seconds =       0.01 minutes
	total time  =          2 seconds =       0.03 minutes

*** tstart() called on bozkaya
*** at Fri Mar 29 11:54:33 2013

 DERIV: Derivative code.
   by Justin Turney

  Cartesian Displacement SALCs
  By SALC:
  Number of SALCs: 2, nirreps: 1
  Project out translations: False
  Project out rotations: False
	irrep = 0, ncomponent = 1
		0: atom 0, direction z, coef 1.000000
	irrep = 0, ncomponent = 1
		0: atom 1, direction z, coef 1.000000

  By Atomic Center:
  Number of atomic centers: 2
   Atomic Center 0:
	x component, size = 0
	y component, size = 0
	z component, size = 1
		0: salc 0, irrep 0, coef 1.000000
   Atomic Center 1:
	x component, size = 0
	y component, size = 0
	z component, size = 1
		0: salc 1, irrep 0, coef 1.000000

    Molecular point group: c2v
    Full point group: C_inf_v

    Geometry (in Bohr), charge = 0, multiplicity = 2:

       Center              X                  Y                   Z       
    ------------   -----------------  -----------------  -----------------
           N          0.000000000000     0.000000000000    -1.166802143832
           O          0.000000000000     0.000000000000     1.021500718049

	Presorting MO-basis TPDMs.
	Sorting File: MO TPDM (AA|AA) nbuckets = 1
	Sorting File: MO TPDM (AA|aa) nbuckets = 1
	Sorting File: MO TPDM (aa|aa) nbuckets = 1
	Starting first half-transformation.
	Sorting half-transformed TPDMs.
	First half integral transformation complete.


  -Nuclear Repulsion Energy 1st Derivatives:
     Atom            X                  Y                   Z
    ------   -----------------  -----------------  -----------------
       1        0.000000000000     0.000000000000    11.694271444350
       2        0.000000000000     0.000000000000   -11.694271444350


  -One-electron contribution to gradient:
     Atom            X                  Y                   Z
    ------   -----------------  -----------------  -----------------
       1        0.000000000000     0.000000000000   -26.310631426033
       2        0.000000000000     0.000000000000    26.310631426032


  -Lagrangian contribution to gradient:
     Atom            X                  Y                   Z
    ------   -----------------  -----------------  -----------------
       1        0.000000000000     0.000000000000     0.799308168410
       2        0.000000000000     0.000000000000    -0.799308168410


  -Two-electron contribution to gradient:
     Atom            X                  Y                   Z
    ------   -----------------  -----------------  -----------------
       1        0.000000000000     0.000000000000    13.828647906123
       2        0.000000000000     0.000000000000   -13.828647906123


  -Total gradient:
     Atom            X                  Y                   Z
    ------   -----------------  -----------------  -----------------
       1        0.000000000000     0.000000000000     0.011596092850
       2        0.000000000000     0.000000000000    -0.011596092850


*** tstop() called on bozkaya at Fri Mar 29 11:54:34 2013
Module time:
	user time   =       0.52 seconds =       0.01 minutes
	system time =       0.02 seconds =       0.00 minutes
	total time  =          1 seconds =       0.02 minutes
Total time:
	user time   =       2.67 seconds =       0.04 minutes
	system time =       0.45 seconds =       0.01 minutes
	total time  =          3 seconds =       0.05 minutes

*** PSI4 exiting successfully. Buy a developer a beer!
