
    -----------------------------------------------------------------------
          Psi4: An Open-Source Ab Initio Electronic Structure Package
                               Psi4 1.3a2.dev370 

                         Git: Rev {fc_charge_2} f62128c 


    R. M. Parrish, L. A. Burns, D. G. A. Smith, A. C. Simmonett,
    A. E. DePrince III, E. G. Hohenstein, U. Bozkaya, A. Yu. Sokolov,
    R. Di Remigio, R. M. Richard, J. F. Gonthier, A. M. James,
    H. R. McAlexander, A. Kumar, M. Saitow, X. Wang, B. P. Pritchard,
    P. Verma, H. F. Schaefer III, K. Patkowski, R. A. King, E. F. Valeev,
    F. A. Evangelista, J. M. Turney, T. D. Crawford, and C. D. Sherrill,
    J. Chem. Theory Comput. 13(7) pp 3185--3197 (2017).
    (doi: 10.1021/acs.jctc.7b00174)


                         Additional Contributions by
    P. Kraus, H. Kruse, M. H. Lechner, M. C. Schieber, and R. A. Shaw

    -----------------------------------------------------------------------


    Psi4 started on: Wednesday, 09 January 2019 11:31AM

    Process ID: 29776
    Host:       login02
    PSIDATADIR: /bigwork/nhcikrau/bin/psi4-dev-1350/share/psi4
    Memory:     500.0 MiB
    Threads:    1
    
  ==> Input File <==

--------------------------------------------------------------------------
#! Ne-Xe dimer MP2 energies with ECP, with electrons correlated then frozen.

refnuc =   45.862024925                                                                  #TEST
refall = -457.47320868249                                                                #TEST
reffzc = -457.38127218548                                                                #TEST
reffHe = -457.47130951838                                                                #TEST
refEin =    0.00468169972                                                                #TEST

molecule dimer {
    0 1
    Ne 0.0 0.0 0.0
    --
    0 1
    Xe 0.0 0.0 3.0
}

set {
    basis def2-svp
    print 2
}

# All electrons on Ne correlated, all non-ECP electrons on Xe correlated
Eall = energy('mp2')
compare_values(refnuc, dimer.nuclear_repulsion_energy(), 8, "Nuclear repulsion energy")  #TEST
compare_values(refall, Eall, 8, "MP2 energy with all-electron Ne and ECP on Xe")         #TEST

set freeze_core true
set guess sad
# [He] electrons on Ne frozen, [Kr] electrons on Xe frozen
Efzc = energy('mp2')
compare_values(reffzc, Efzc, 8, "MP2 energy with frozen [He] and [Kr]")                  #TEST
Eint = energy('mp2',bsse_type=['cp'])
compare_values(refEin, Eint, 8, "MP2 CP interaction energy frozen [He] and [Kr]")        #TEST


set freeze_core false
set num_frozen_docc 1
set guess read
# [He] electrons on Ne frozen,  only ECP electrons on Xe frozen
EfHe = energy('mp2')
compare_values(reffHe, EfHe, 8, "MP2 energy with frozen [He] and ECP")                   #TEST

molecule ghne {
    0 1
    @Ne 0.0 0.0 0.0
    --
    0 1
    Xe 0.0 0.0 3.0
}

molecule ghxe {
    0 1
    Ne 0.0 0.0 0.0
    --
    0 1
    Gh(Xe) 0.0 0.0 3.0
}

set freeze_core true
set num_frozen_docc 0
set guess sad

Eghne = energy('mp2', molecule=ghne)
Eghxe = energy('mp2', molecule=ghxe)
compare_values(refEin, Efzc - Eghne - Eghxe, 8, "MP2 CP interaction energy frozen [He] and [Kr] by hand")  #TEST

molecule {
0 1
Kr 0 0 0
--
0 1
Kr 3 0 0 
no_reorient
no_com
}

set globals {
scf_type df
mp2_type df
}

ref_0 = 0.017534693850393523                                                       #TEST
ref_1 = 0.01757929255381896                                                        #TEST
ref_2 = 0.017540466258651577                                                       #TEST
ref_3 = 0.01753547425960278                                                        #TEST

set freeze_core 0
E, wfn = energy('mp2/3-21g', bsse_type="nocp", return_wfn="True")
compare_values(ref_0, E, 8, "Kr--Kr nocp MP2 interaction energy, freeze_core 0 ") #TEST

set freeze_core 1
E, wfn = energy('mp2/3-21g', bsse_type="nocp", return_wfn="True")
compare_values(ref_1, E, 8, "Kr--Kr nocp MP2 interaction energy, freeze_core 1 ") #TEST

set freeze_core -1
E, wfn = energy('mp2/3-21g', bsse_type="nocp", return_wfn="True")
compare_values(ref_1, E, 8, "Kr--Kr nocp MP2 interaction energy, freeze_core -1") #TEST

set freeze_core -2
E, wfn = energy('mp2/3-21g', bsse_type="nocp", return_wfn="True")
compare_values(ref_2, E, 8, "Kr--Kr nocp MP2 interaction energy, freeze_core -2") #TEST

set freeze_core -3
E, wfn = energy('mp2/3-21g', bsse_type="nocp", return_wfn="True")
compare_values(ref_3, E, 8, "Kr--Kr nocp MP2 interaction energy, freeze_core -3") #TEST


--------------------------------------------------------------------------
    SCF Algorithm Type (re)set to DF.

*** tstart() called on login02
*** at Wed Jan  9 11:31:35 2019

   => Loading Basis Set <=

    Name: DEF2-SVP
    Role: ORBITAL
    Keyword: BASIS
    atoms 1 entry NE         line   170 file /bigwork/nhcikrau/bin/psi4-dev-1350/share/psi4/basis/def2-svp.gbs 
    atoms 2 entry XE         line  1722 (ECP: line  2827) file /bigwork/nhcikrau/bin/psi4-dev-1350/share/psi4/basis/def2-svp.gbs 

    !!!  WARNING: ECP capability is in beta. Please check occupations closely.  !!!


         ---------------------------------------------------------
                                   SCF
               by Justin Turney, Rob Parrish, Andy Simmonett
                          and Daniel G. A. Smith
                              RHF Reference
                        1 Threads,    500 MiB Core
         ---------------------------------------------------------

  ==> Geometry <==

    Molecular point group: c2v
    Full point group: C_inf_v

    Geometry (in Angstrom), charge = 0, multiplicity = 1:

       Center              X                  Y                   Z               Mass       
    ------------   -----------------  -----------------  -----------------  -----------------
         NE           0.000000000000     0.000000000000    -2.605143746473    19.992440176200
         XE           0.000000000000     0.000000000000     0.394856253527   131.904155085600

  Running in c2v symmetry.

  Rotational constants: A = ************  B =      0.10789  C =      0.10789 [cm^-1]
  Rotational constants: A = ************  B =   3234.43515  C =   3234.43515 [MHz]
  Nuclear repulsion =   45.862024924733340

  Charge       = 0
  Multiplicity = 1
  Electrons    = 36
  Nalpha       = 18
  Nbeta        = 18

  ==> Algorithm <==

  SCF Algorithm Type is DF.
  DIIS enabled.
  MOM disabled.
  Fractional occupation disabled.
  Guess Type is SAD.
  Energy threshold   = 1.00e-08
  Density threshold  = 1.00e-08
  Integral threshold = 0.00e+00

  ==> Primary Basis <==

  -AO BASIS SET INFORMATION:
    Name                   = DEF2-SVP
    Blend                  = DEF2-SVP
    Total number of shells = 22
    Number of primitives   = 43
    Number of AO           = 74
    Number of SO           = 64
    Maximum AM             = 3
    Spherical Harmonics    = TRUE

  -Contraction Scheme:
    Atom   Type   All Primitives // Shells:
   ------ ------ --------------------------
       1    NE     7s 4p 1d // 3s 2p 1d 
       2    XE     11s 10p 8d 2f // 6s 5p 3d 2f 

  -CORE POTENTIAL INFORMATION:
    Total number of shells   = 4
    Number of terms          = 29
    Number of core electrons = 28
    Maximum AM               = 3

  -Contraction Scheme:
    Atom   Type  #elec    All terms // Shells:   
   ------ ------ ----- --------------------------
       1    NE      0   
       2    XE     28   7s 8p 10d 4f // 1s 1p 1d 1f 

   => Loading Basis Set <=

    Name: (DEF2-SVP AUX)
    Role: JKFIT
    Keyword: DF_BASIS_SCF
    atoms 1 entry NE         line   443 file /bigwork/nhcikrau/bin/psi4-dev-1350/share/psi4/basis/def2-svp-jkfit.gbs 
    atoms 2 entry XE         line  5086 file /bigwork/nhcikrau/bin/psi4-dev-1350/share/psi4/basis/def2-svp-jkfit.gbs 

  ==> Pre-Iterations <==

   -------------------------------------------------------
    Irrep   Nso     Nmo     Nalpha   Nbeta   Ndocc  Nsocc
   -------------------------------------------------------
     A1        28      28       0       0       0       0
     A2         6       6       0       0       0       0
     B1        15      15       0       0       0       0
     B2        15      15       0       0       0       0
   -------------------------------------------------------
    Total      64      64      18      18      18       0
   -------------------------------------------------------

  ==> Integral Setup <==

  DFHelper Memory: AOs need 0.010 GiB; user supplied 0.366 GiB. Using in-core AOs.

  ==> MemDFJK: Density-Fitted J/K Matrices <==

    J tasked:                   Yes
    K tasked:                   Yes
    wK tasked:                   No
    OpenMP threads:               1
    Memory [MiB]:               375
    Algorithm:                 Core
    Schwarz Cutoff:           1E-12
    Mask sparsity (%):       6.1523
    Fitting Condition:        1E-12

   => Auxiliary Basis Set <=

  -AO BASIS SET INFORMATION:
    Name                   = (DEF2-SVP AUX)
    Blend                  = DEF2-SVP-JKFIT
    Total number of shells = 71
    Number of primitives   = 86
    Number of AO           = 402
    Number of SO           = 295
    Maximum AM             = 5
    Spherical Harmonics    = TRUE

  -Contraction Scheme:
    Atom   Type   All Primitives // Shells:
   ------ ------ --------------------------
       1    NE     14s 10p 6d 2f 1g // 10s 8p 4d 2f 1g 
       2    XE     13s 12p 11d 8f 6g 3h // 11s 10p 10d 7f 5g 3h 

  Minimum eigenvalue in the overlap matrix is 6.0588497777E-03.
  Using Symmetric Orthogonalization.

  SCF Guess: Superposition of Atomic Densities via on-the-fly atomic UHF.

  ==> Iterations <==

                           Total Energy        Delta E     RMS |[F,P]|

   @DF-RHF iter   0:   150.96360367097793    1.50964e+02   0.00000e+00 
    Occupation by irrep:
             A1    A2    B1    B2 
    DOCC [     8,    2,    4,    4 ]

   @DF-RHF iter   1:  -315.34483675552366   -4.66308e+02   5.02519e-01 DIIS
    Occupation by irrep:
             A1    A2    B1    B2 
    DOCC [     9,    1,    4,    4 ]

   @DF-RHF iter   2:  -313.66797924959360    1.67686e+00   3.77627e-01 DIIS
    Occupation by irrep:
             A1    A2    B1    B2 
    DOCC [     8,    2,    4,    4 ]

   @DF-RHF iter   3:  -420.22847673158213   -1.06560e+02   1.35016e-01 DIIS
    Occupation by irrep:
             A1    A2    B1    B2 
    DOCC [     9,    1,    4,    4 ]

   @DF-RHF iter   4:  -418.33602764558879    1.89245e+00   8.23154e-02 DIIS
    Occupation by irrep:
             A1    A2    B1    B2 
    DOCC [    10,    1,    4,    3 ]

   @DF-RHF iter   5:  -425.81419773707495   -7.47817e+00   1.18350e-01 DIIS
    Occupation by irrep:
             A1    A2    B1    B2 
    DOCC [     9,    1,    4,    4 ]

   @DF-RHF iter   6:  -436.84958561294115   -1.10354e+01   1.10211e-01 DIIS
   @DF-RHF iter   7:  -452.26849036835773   -1.54189e+01   8.85113e-02 DIIS
   @DF-RHF iter   8:  -451.16069925794000    1.10779e+00   9.80329e-02 DIIS
   @DF-RHF iter   9:  -452.55773014149253   -1.39703e+00   8.45357e-02 DIIS
   @DF-RHF iter  10:  -453.93811416128142   -1.38038e+00   7.05255e-02 DIIS
   @DF-RHF iter  11:  -455.23795047915212   -1.29984e+00   5.37250e-02 DIIS
   @DF-RHF iter  12:  -456.36817804836903   -1.13023e+00   2.64109e-02 DIIS
   @DF-RHF iter  13:  -456.63905906034955   -2.70881e-01   9.11373e-03 DIIS
   @DF-RHF iter  14:  -456.67093457123900   -3.18755e-02   4.84112e-04 DIIS
   @DF-RHF iter  15:  -456.67108521771314   -1.50646e-04   1.04194e-04 DIIS
   @DF-RHF iter  16:  -456.67109563350562   -1.04158e-05   3.11459e-05 DIIS
   @DF-RHF iter  17:  -456.67109625874707   -6.25241e-07   1.32808e-05 DIIS
   @DF-RHF iter  18:  -456.67109632921807   -7.04710e-08   1.62449e-06 DIIS
   @DF-RHF iter  19:  -456.67109633079093   -1.57286e-09   1.51818e-07 DIIS
   @DF-RHF iter  20:  -456.67109633082805   -3.71188e-11   2.70353e-08 DIIS
   @DF-RHF iter  21:  -456.67109633082919   -1.13687e-12   5.31498e-09 DIIS
  Energy converged.


  ==> Post-Iterations <==

    Orbital Energies [Eh]
    ---------------------

    Doubly Occupied:                                                      

       1A1   -32.759855     2A1    -8.395838     1B1    -6.129623  
       1B2    -6.129623     3A1    -6.129417     1A2    -2.660067  
       4A1    -2.660067     2B2    -2.659818     2B1    -2.659818  
       5A1    -2.659755     6A1    -1.889304     7A1    -1.007151  
       8A1    -0.846795     3B2    -0.845650     3B1    -0.845650  
       4B1    -0.453436     4B2    -0.453436     9A1    -0.451324  

    Virtual:                                                              

       5B1     0.300476     5B2     0.300476    10A1     0.314526  
      11A1     0.354930     2A2     0.354930     6B2     0.354978  
       6B1     0.354978    12A1     0.371453    13A1     0.516044  
      14A1     1.147785     7B1     1.152918     7B2     1.152918  
       8B1     1.153132     8B2     1.153132    15A1     1.153213  
       3A2     1.153213    16A1     1.532716     9B1     1.553626  
       9B2     1.553626    17A1     1.598406    10B1     1.646537  
      10B2     1.646537    18A1     1.687129     4A2     1.687129  
      19A1     1.703758    11B2     1.748135    11B1     1.748135  
      20A1     1.994860    12B2     3.645570    12B1     3.645570  
      21A1     3.645789     5A2     3.645789    13B2     3.645994  
      13B1     3.645994    22A1     3.649244     6A2     4.512135  
      23A1     4.512135    14B1     4.512759    14B2     4.512759  
      24A1     4.516149    25A1     4.894649    15B1    34.655678  
      15B2    34.655678    26A1    34.664720    27A1    45.102918  
      28A1   109.278497  

    Final Occupation by Irrep:
             A1    A2    B1    B2 
    DOCC [     9,    1,    4,    4 ]

  @DF-RHF Final Energy:  -456.67109633082919

   => Energetics <=

    Nuclear Repulsion Energy =             45.8620249247333405
    One-Electron Energy =                -845.7929918948319710
    Two-Electron Energy =                 343.2598706392694794
    Total Energy =                       -456.6710963308291866

Computation Completed


Properties will be evaluated at   0.000000,   0.000000,   0.000000 [a0]

Properties computed using the SCF density matrix

  Nuclear Dipole Moment: [e a0]
     X:     0.0000      Y:     0.0000      Z:   -29.8297

  Electronic Dipole Moment: [e a0]
     X:     0.0000      Y:     0.0000      Z:    29.7500

  Dipole Moment: [e a0]
     X:     0.0000      Y:     0.0000      Z:    -0.0797     Total:     0.0797

  Dipole Moment: [D]
     X:     0.0000      Y:     0.0000      Z:    -0.2025     Total:     0.2025


*** tstop() called on login02 at Wed Jan  9 11:31:38 2019
Module time:
	user time   =       3.43 seconds =       0.06 minutes
	system time =       0.10 seconds =       0.00 minutes
	total time  =          3 seconds =       0.05 minutes
Total time:
	user time   =       3.43 seconds =       0.06 minutes
	system time =       0.10 seconds =       0.00 minutes
	total time  =          3 seconds =       0.05 minutes

*** tstart() called on login02
*** at Wed Jan  9 11:31:38 2019


  //>>>>>>>>>>>>>>>>>>>>>>>>>>>>>>>>>>>//
  //               DFMP2               //
  //<<<<<<<<<<<<<<<<<<<<<<<<<<<<<<<<<<<//

   => Loading Basis Set <=

    Name: (DEF2-SVP AUX)
    Role: RIFIT
    Keyword: DF_BASIS_MP2
    atoms 1 entry NE         line   313 file /bigwork/nhcikrau/bin/psi4-dev-1350/share/psi4/basis/def2-svp-ri.gbs 
    atoms 2 entry XE         line  2974 file /bigwork/nhcikrau/bin/psi4-dev-1350/share/psi4/basis/def2-svp-ri.gbs 

	 --------------------------------------------------------
	                          DF-MP2                         
	      2nd-Order Density-Fitted Moller-Plesset Theory     
	              RMP2 Wavefunction,   1 Threads             
	                                                         
	        Rob Parrish, Justin Turney, Andy Simmonett,      
	           Ed Hohenstein, and C. David Sherrill          
	 --------------------------------------------------------

   => Auxiliary Basis Set <=

  -AO BASIS SET INFORMATION:
    Name                   = (DEF2-SVP AUX)
    Blend                  = DEF2-SVP-RI
    Total number of shells = 54
    Number of primitives   = 60
    Number of AO           = 319
    Number of SO           = 232
    Maximum AM             = 5
    Spherical Harmonics    = TRUE

  -Contraction Scheme:
    Atom   Type   All Primitives // Shells:
   ------ ------ --------------------------
       1    NE     8s 6p 5d 3f // 6s 5p 4d 1f 
       2    XE     9s 8p 8d 6f 4g 3h // 9s 8p 8d 6f 4g 3h 

	 --------------------------------------------------------
	                 NBF =    64, NAUX =   232
	 --------------------------------------------------------
	   CLASS    FOCC     OCC    AOCC    AVIR     VIR    FVIR
	   PAIRS       0      18      18      46      46       0
	 --------------------------------------------------------

	-----------------------------------------------------------
	 ==================> DF-MP2 Energies <==================== 
	-----------------------------------------------------------
	 Reference Energy          =    -456.6710963308291866 [Eh]
	 Singles Energy            =      -0.0000000000000000 [Eh]
	 Same-Spin Energy          =      -0.2734241011862177 [Eh]
	 Opposite-Spin Energy      =      -0.5286882515427866 [Eh]
	 Correlation Energy        =      -0.8021123527290044 [Eh]
	 Total Energy              =    -457.4732086835581981 [Eh]
	-----------------------------------------------------------
	 ================> DF-SCS-MP2 Energies <================== 
	-----------------------------------------------------------
	 SCS Same-Spin Scale       =       0.3333333333333333 [-]
	 SCS Opposite-Spin Scale   =       1.2000000000000000 [-]
	 SCS Same-Spin Energy      =      -0.0911413670620726 [Eh]
	 SCS Opposite-Spin Energy  =      -0.6344259018513440 [Eh]
	 SCS Correlation Energy    =      -0.7255672689134165 [Eh]
	 SCS Total Energy          =    -457.3966635997426238 [Eh]
	-----------------------------------------------------------


*** tstop() called on login02 at Wed Jan  9 11:31:39 2019
Module time:
	user time   =       0.60 seconds =       0.01 minutes
	system time =       0.03 seconds =       0.00 minutes
	total time  =          1 seconds =       0.02 minutes
Total time:
	user time   =       4.03 seconds =       0.07 minutes
	system time =       0.14 seconds =       0.00 minutes
	total time  =          4 seconds =       0.07 minutes
	Nuclear repulsion energy..........................................PASSED
	MP2 energy with all-electron Ne and ECP on Xe.....................PASSED
    SCF Algorithm Type (re)set to DF.

*** tstart() called on login02
*** at Wed Jan  9 11:31:39 2019

   => Loading Basis Set <=

    Name: DEF2-SVP
    Role: ORBITAL
    Keyword: BASIS
    atoms 1 entry NE         line   170 file /bigwork/nhcikrau/bin/psi4-dev-1350/share/psi4/basis/def2-svp.gbs 
    atoms 2 entry XE         line  1722 (ECP: line  2827) file /bigwork/nhcikrau/bin/psi4-dev-1350/share/psi4/basis/def2-svp.gbs 

    !!!  WARNING: ECP capability is in beta. Please check occupations closely.  !!!


         ---------------------------------------------------------
                                   SCF
               by Justin Turney, Rob Parrish, Andy Simmonett
                          and Daniel G. A. Smith
                              RHF Reference
                        1 Threads,    500 MiB Core
         ---------------------------------------------------------

  ==> Geometry <==

    Molecular point group: c2v
    Full point group: C_inf_v

    Geometry (in Angstrom), charge = 0, multiplicity = 1:

       Center              X                  Y                   Z               Mass       
    ------------   -----------------  -----------------  -----------------  -----------------
         NE           0.000000000000     0.000000000000    -2.605143746473    19.992440176200
         XE           0.000000000000     0.000000000000     0.394856253527   131.904155085600

  Running in c2v symmetry.

  Rotational constants: A = ************  B =      0.10789  C =      0.10789 [cm^-1]
  Rotational constants: A = ************  B =   3234.43515  C =   3234.43515 [MHz]
  Nuclear repulsion =   45.862024924733340

  Charge       = 0
  Multiplicity = 1
  Electrons    = 36
  Nalpha       = 18
  Nbeta        = 18

  ==> Algorithm <==

  SCF Algorithm Type is DF.
  DIIS enabled.
  MOM disabled.
  Fractional occupation disabled.
  Guess Type is SAD.
  Energy threshold   = 1.00e-08
  Density threshold  = 1.00e-08
  Integral threshold = 0.00e+00

  ==> Primary Basis <==

  -AO BASIS SET INFORMATION:
    Name                   = DEF2-SVP
    Blend                  = DEF2-SVP
    Total number of shells = 22
    Number of primitives   = 43
    Number of AO           = 74
    Number of SO           = 64
    Maximum AM             = 3
    Spherical Harmonics    = TRUE

  -Contraction Scheme:
    Atom   Type   All Primitives // Shells:
   ------ ------ --------------------------
       1    NE     7s 4p 1d // 3s 2p 1d 
       2    XE     11s 10p 8d 2f // 6s 5p 3d 2f 

  -CORE POTENTIAL INFORMATION:
    Total number of shells   = 4
    Number of terms          = 29
    Number of core electrons = 28
    Maximum AM               = 3

  -Contraction Scheme:
    Atom   Type  #elec    All terms // Shells:   
   ------ ------ ----- --------------------------
       1    NE      0   
       2    XE     28   7s 8p 10d 4f // 1s 1p 1d 1f 

   => Loading Basis Set <=

    Name: (DEF2-SVP AUX)
    Role: JKFIT
    Keyword: DF_BASIS_SCF
    atoms 1 entry NE         line   443 file /bigwork/nhcikrau/bin/psi4-dev-1350/share/psi4/basis/def2-svp-jkfit.gbs 
    atoms 2 entry XE         line  5086 file /bigwork/nhcikrau/bin/psi4-dev-1350/share/psi4/basis/def2-svp-jkfit.gbs 

  ==> Pre-Iterations <==

   -------------------------------------------------------
    Irrep   Nso     Nmo     Nalpha   Nbeta   Ndocc  Nsocc
   -------------------------------------------------------
     A1        28      28       0       0       0       0
     A2         6       6       0       0       0       0
     B1        15      15       0       0       0       0
     B2        15      15       0       0       0       0
   -------------------------------------------------------
    Total      64      64      18      18      18       0
   -------------------------------------------------------

  ==> Integral Setup <==

  DFHelper Memory: AOs need 0.010 GiB; user supplied 0.366 GiB. Using in-core AOs.

  ==> MemDFJK: Density-Fitted J/K Matrices <==

    J tasked:                   Yes
    K tasked:                   Yes
    wK tasked:                   No
    OpenMP threads:               1
    Memory [MiB]:               375
    Algorithm:                 Core
    Schwarz Cutoff:           1E-12
    Mask sparsity (%):       6.1523
    Fitting Condition:        1E-12

   => Auxiliary Basis Set <=

  -AO BASIS SET INFORMATION:
    Name                   = (DEF2-SVP AUX)
    Blend                  = DEF2-SVP-JKFIT
    Total number of shells = 71
    Number of primitives   = 86
    Number of AO           = 402
    Number of SO           = 295
    Maximum AM             = 5
    Spherical Harmonics    = TRUE

  -Contraction Scheme:
    Atom   Type   All Primitives // Shells:
   ------ ------ --------------------------
       1    NE     14s 10p 6d 2f 1g // 10s 8p 4d 2f 1g 
       2    XE     13s 12p 11d 8f 6g 3h // 11s 10p 10d 7f 5g 3h 

  Minimum eigenvalue in the overlap matrix is 6.0588497777E-03.
  Using Symmetric Orthogonalization.

  SCF Guess: Superposition of Atomic Densities via on-the-fly atomic UHF.

  ==> Iterations <==

                           Total Energy        Delta E     RMS |[F,P]|

   @DF-RHF iter   0:   150.96360367097793    1.50964e+02   0.00000e+00 
    Occupation by irrep:
             A1    A2    B1    B2 
    DOCC [     8,    2,    4,    4 ]

   @DF-RHF iter   1:  -315.34483675552366   -4.66308e+02   5.02519e-01 DIIS
    Occupation by irrep:
             A1    A2    B1    B2 
    DOCC [     9,    1,    4,    4 ]

   @DF-RHF iter   2:  -313.66797924959360    1.67686e+00   3.77627e-01 DIIS
    Occupation by irrep:
             A1    A2    B1    B2 
    DOCC [     8,    2,    4,    4 ]

   @DF-RHF iter   3:  -420.22847673158213   -1.06560e+02   1.35016e-01 DIIS
    Occupation by irrep:
             A1    A2    B1    B2 
    DOCC [     9,    1,    4,    4 ]

   @DF-RHF iter   4:  -418.33602764558879    1.89245e+00   8.23154e-02 DIIS
    Occupation by irrep:
             A1    A2    B1    B2 
    DOCC [    10,    1,    4,    3 ]

   @DF-RHF iter   5:  -425.81419773707495   -7.47817e+00   1.18350e-01 DIIS
    Occupation by irrep:
             A1    A2    B1    B2 
    DOCC [     9,    1,    4,    4 ]

   @DF-RHF iter   6:  -436.84958561294115   -1.10354e+01   1.10211e-01 DIIS
   @DF-RHF iter   7:  -452.26849036835773   -1.54189e+01   8.85113e-02 DIIS
   @DF-RHF iter   8:  -451.16069925794000    1.10779e+00   9.80329e-02 DIIS
   @DF-RHF iter   9:  -452.55773014149253   -1.39703e+00   8.45357e-02 DIIS
   @DF-RHF iter  10:  -453.93811416128142   -1.38038e+00   7.05255e-02 DIIS
   @DF-RHF iter  11:  -455.23795047915212   -1.29984e+00   5.37250e-02 DIIS
   @DF-RHF iter  12:  -456.36817804836903   -1.13023e+00   2.64109e-02 DIIS
   @DF-RHF iter  13:  -456.63905906034955   -2.70881e-01   9.11373e-03 DIIS
   @DF-RHF iter  14:  -456.67093457123900   -3.18755e-02   4.84112e-04 DIIS
   @DF-RHF iter  15:  -456.67108521771314   -1.50646e-04   1.04194e-04 DIIS
   @DF-RHF iter  16:  -456.67109563350562   -1.04158e-05   3.11459e-05 DIIS
   @DF-RHF iter  17:  -456.67109625874707   -6.25241e-07   1.32808e-05 DIIS
   @DF-RHF iter  18:  -456.67109632921807   -7.04710e-08   1.62449e-06 DIIS
   @DF-RHF iter  19:  -456.67109633079093   -1.57286e-09   1.51818e-07 DIIS
   @DF-RHF iter  20:  -456.67109633082805   -3.71188e-11   2.70353e-08 DIIS
   @DF-RHF iter  21:  -456.67109633082919   -1.13687e-12   5.31498e-09 DIIS
  Energy converged.


  ==> Post-Iterations <==

    Orbital Energies [Eh]
    ---------------------

    Doubly Occupied:                                                      

       1A1   -32.759855     2A1    -8.395838     1B1    -6.129623  
       1B2    -6.129623     3A1    -6.129417     1A2    -2.660067  
       4A1    -2.660067     2B2    -2.659818     2B1    -2.659818  
       5A1    -2.659755     6A1    -1.889304     7A1    -1.007151  
       8A1    -0.846795     3B2    -0.845650     3B1    -0.845650  
       4B1    -0.453436     4B2    -0.453436     9A1    -0.451324  

    Virtual:                                                              

       5B1     0.300476     5B2     0.300476    10A1     0.314526  
      11A1     0.354930     2A2     0.354930     6B2     0.354978  
       6B1     0.354978    12A1     0.371453    13A1     0.516044  
      14A1     1.147785     7B1     1.152918     7B2     1.152918  
       8B1     1.153132     8B2     1.153132    15A1     1.153213  
       3A2     1.153213    16A1     1.532716     9B1     1.553626  
       9B2     1.553626    17A1     1.598406    10B1     1.646537  
      10B2     1.646537    18A1     1.687129     4A2     1.687129  
      19A1     1.703758    11B2     1.748135    11B1     1.748135  
      20A1     1.994860    12B2     3.645570    12B1     3.645570  
      21A1     3.645789     5A2     3.645789    13B2     3.645994  
      13B1     3.645994    22A1     3.649244     6A2     4.512135  
      23A1     4.512135    14B1     4.512759    14B2     4.512759  
      24A1     4.516149    25A1     4.894649    15B1    34.655678  
      15B2    34.655678    26A1    34.664720    27A1    45.102918  
      28A1   109.278497  

    Final Occupation by Irrep:
             A1    A2    B1    B2 
    DOCC [     9,    1,    4,    4 ]

  @DF-RHF Final Energy:  -456.67109633082919

   => Energetics <=

    Nuclear Repulsion Energy =             45.8620249247333405
    One-Electron Energy =                -845.7929918948319710
    Two-Electron Energy =                 343.2598706392694794
    Total Energy =                       -456.6710963308291866

Computation Completed


Properties will be evaluated at   0.000000,   0.000000,   0.000000 [a0]

Properties computed using the SCF density matrix

  Nuclear Dipole Moment: [e a0]
     X:     0.0000      Y:     0.0000      Z:   -29.8297

  Electronic Dipole Moment: [e a0]
     X:     0.0000      Y:     0.0000      Z:    29.7500

  Dipole Moment: [e a0]
     X:     0.0000      Y:     0.0000      Z:    -0.0797     Total:     0.0797

  Dipole Moment: [D]
     X:     0.0000      Y:     0.0000      Z:    -0.2025     Total:     0.2025


*** tstop() called on login02 at Wed Jan  9 11:31:43 2019
Module time:
	user time   =       3.91 seconds =       0.07 minutes
	system time =       0.09 seconds =       0.00 minutes
	total time  =          4 seconds =       0.07 minutes
Total time:
	user time   =       7.95 seconds =       0.13 minutes
	system time =       0.23 seconds =       0.00 minutes
	total time  =          8 seconds =       0.13 minutes

*** tstart() called on login02
*** at Wed Jan  9 11:31:43 2019


  //>>>>>>>>>>>>>>>>>>>>>>>>>>>>>>>>>>>//
  //               DFMP2               //
  //<<<<<<<<<<<<<<<<<<<<<<<<<<<<<<<<<<<//

   => Loading Basis Set <=

    Name: (DEF2-SVP AUX)
    Role: RIFIT
    Keyword: DF_BASIS_MP2
    atoms 1 entry NE         line   313 file /bigwork/nhcikrau/bin/psi4-dev-1350/share/psi4/basis/def2-svp-ri.gbs 
    atoms 2 entry XE         line  2974 file /bigwork/nhcikrau/bin/psi4-dev-1350/share/psi4/basis/def2-svp-ri.gbs 

	 --------------------------------------------------------
	                          DF-MP2                         
	      2nd-Order Density-Fitted Moller-Plesset Theory     
	              RMP2 Wavefunction,   1 Threads             
	                                                         
	        Rob Parrish, Justin Turney, Andy Simmonett,      
	           Ed Hohenstein, and C. David Sherrill          
	 --------------------------------------------------------

   => Auxiliary Basis Set <=

  -AO BASIS SET INFORMATION:
    Name                   = (DEF2-SVP AUX)
    Blend                  = DEF2-SVP-RI
    Total number of shells = 54
    Number of primitives   = 60
    Number of AO           = 319
    Number of SO           = 232
    Maximum AM             = 5
    Spherical Harmonics    = TRUE

  -Contraction Scheme:
    Atom   Type   All Primitives // Shells:
   ------ ------ --------------------------
       1    NE     8s 6p 5d 3f // 6s 5p 4d 1f 
       2    XE     9s 8p 8d 6f 4g 3h // 9s 8p 8d 6f 4g 3h 

	 --------------------------------------------------------
	                 NBF =    64, NAUX =   232
	 --------------------------------------------------------
	   CLASS    FOCC     OCC    AOCC    AVIR     VIR    FVIR
	   PAIRS       5      18      13      46      46       0
	 --------------------------------------------------------

	-----------------------------------------------------------
	 ==================> DF-MP2 Energies <==================== 
	-----------------------------------------------------------
	 Reference Energy          =    -456.6710963308291866 [Eh]
	 Singles Energy            =      -0.0000000000000000 [Eh]
	 Same-Spin Energy          =      -0.2465524816583600 [Eh]
	 Opposite-Spin Energy      =      -0.4636233738405777 [Eh]
	 Correlation Energy        =      -0.7101758554989377 [Eh]
	 Total Energy              =    -457.3812721863281467 [Eh]
	-----------------------------------------------------------
	 ================> DF-SCS-MP2 Energies <================== 
	-----------------------------------------------------------
	 SCS Same-Spin Scale       =       0.3333333333333333 [-]
	 SCS Opposite-Spin Scale   =       1.2000000000000000 [-]
	 SCS Same-Spin Energy      =      -0.0821841605527867 [Eh]
	 SCS Opposite-Spin Energy  =      -0.5563480486086931 [Eh]
	 SCS Correlation Energy    =      -0.6385322091614798 [Eh]
	 SCS Total Energy          =    -457.3096285399906833 [Eh]
	-----------------------------------------------------------


*** tstop() called on login02 at Wed Jan  9 11:31:44 2019
Module time:
	user time   =       0.46 seconds =       0.01 minutes
	system time =       0.01 seconds =       0.00 minutes
	total time  =          1 seconds =       0.02 minutes
Total time:
	user time   =       8.41 seconds =       0.14 minutes
	system time =       0.24 seconds =       0.00 minutes
	total time  =          9 seconds =       0.15 minutes
	MP2 energy with frozen [He] and [Kr]..............................PASSED


   ===> N-Body Interaction Abacus <===
        BSSE Treatment:                     cp
        Number of 1-body computations:     4
        Number of 2-body computations:     1

   ==> N-Body: Now computing 1-body complexes <==


       N-Body: Computing complex (1/4) with fragments (2,) in the basis of fragments (2,).

    SCF Algorithm Type (re)set to DF.

*** tstart() called on login02
*** at Wed Jan  9 11:31:44 2019

   => Loading Basis Set <=

    Name: DEF2-SVP
    Role: ORBITAL
    Keyword: BASIS
    atoms 1 entry XE         line  1722 (ECP: line  2827) file /bigwork/nhcikrau/bin/psi4-dev-1350/share/psi4/basis/def2-svp.gbs 

    !!!  WARNING: ECP capability is in beta. Please check occupations closely.  !!!


         ---------------------------------------------------------
                                   SCF
               by Justin Turney, Rob Parrish, Andy Simmonett
                          and Daniel G. A. Smith
                              RHF Reference
                        1 Threads,    500 MiB Core
         ---------------------------------------------------------

  ==> Geometry <==

    Molecular point group: c2v
    Geometry (in Angstrom), charge = 0, multiplicity = 1:

       Center              X                  Y                   Z               Mass       
    ------------   -----------------  -----------------  -----------------  -----------------
         XE           0.000000000000     0.000000000000     0.394856253527   131.904155085600

  Running in c2v symmetry.

  Rotational constants: A = ************  B =      0.81971  C =      0.81971 [cm^-1]
  Rotational constants: A = ************  B =  24574.27318  C =  24574.27318 [MHz]
  Nuclear repulsion =    0.000000000000000

  Charge       = 0
  Multiplicity = 1
  Electrons    = 26
  Nalpha       = 13
  Nbeta        = 13

  ==> Algorithm <==

  SCF Algorithm Type is DF.
  DIIS enabled.
  MOM disabled.
  Fractional occupation disabled.
  Guess Type is SAD.
  Energy threshold   = 1.00e-08
  Density threshold  = 1.00e-08
  Integral threshold = 0.00e+00

  ==> Primary Basis <==

  -AO BASIS SET INFORMATION:
    Name                   = DEF2-SVP
    Blend                  = DEF2-SVP
    Total number of shells = 16
    Number of primitives   = 31
    Number of AO           = 59
    Number of SO           = 50
    Maximum AM             = 3
    Spherical Harmonics    = TRUE

  -Contraction Scheme:
    Atom   Type   All Primitives // Shells:
   ------ ------ --------------------------
       1    XE     11s 10p 8d 2f // 6s 5p 3d 2f 

  -CORE POTENTIAL INFORMATION:
    Total number of shells   = 4
    Number of terms          = 29
    Number of core electrons = 28
    Maximum AM               = 3

  -Contraction Scheme:
    Atom   Type  #elec    All terms // Shells:   
   ------ ------ ----- --------------------------
       1    XE     28   7s 8p 10d 4f // 1s 1p 1d 1f 

   => Loading Basis Set <=

    Name: (DEF2-SVP AUX)
    Role: JKFIT
    Keyword: DF_BASIS_SCF
    atoms 1 entry XE         line  5086 file /bigwork/nhcikrau/bin/psi4-dev-1350/share/psi4/basis/def2-svp-jkfit.gbs 

  ==> Pre-Iterations <==

   -------------------------------------------------------
    Irrep   Nso     Nmo     Nalpha   Nbeta   Ndocc  Nsocc
   -------------------------------------------------------
     A1        21      21       0       0       0       0
     A2         5       5       0       0       0       0
     B1        12      12       0       0       0       0
     B2        12      12       0       0       0       0
   -------------------------------------------------------
    Total      50      50      13      13      13       0
   -------------------------------------------------------

  ==> Integral Setup <==

  DFHelper Memory: AOs need 0.005 GiB; user supplied 0.366 GiB. Using in-core AOs.

  ==> MemDFJK: Density-Fitted J/K Matrices <==

    J tasked:                   Yes
    K tasked:                   Yes
    wK tasked:                   No
    OpenMP threads:               1
    Memory [MiB]:               375
    Algorithm:                 Core
    Schwarz Cutoff:           1E-12
    Mask sparsity (%):       0.0000
    Fitting Condition:        1E-12

   => Auxiliary Basis Set <=

  -AO BASIS SET INFORMATION:
    Name                   = (DEF2-SVP AUX)
    Blend                  = DEF2-SVP-JKFIT
    Total number of shells = 46
    Number of primitives   = 53
    Number of AO           = 309
    Number of SO           = 218
    Maximum AM             = 5
    Spherical Harmonics    = TRUE

  -Contraction Scheme:
    Atom   Type   All Primitives // Shells:
   ------ ------ --------------------------
       1    XE     13s 12p 11d 8f 6g 3h // 11s 10p 10d 7f 5g 3h 

  Minimum eigenvalue in the overlap matrix is 6.0783978001E-03.
  Using Symmetric Orthogonalization.

  SCF Guess: Superposition of Atomic Densities via on-the-fly atomic UHF.

  ==> Iterations <==

                           Total Energy        Delta E     RMS |[F,P]|

   @DF-RHF iter   0:   279.34035432666644    2.79340e+02   0.00000e+00 
   @DF-RHF iter   1:  -187.05791413502843   -4.66398e+02   6.51332e-01 DIIS
   @DF-RHF iter   2:  -290.39609372432426   -1.03338e+02   3.48424e-01 DIIS
   @DF-RHF iter   3:  -328.13305716792996   -3.77370e+01   3.31104e-02 DIIS
   @DF-RHF iter   4:  -328.29247657775289   -1.59419e-01   4.31717e-03 DIIS
   @DF-RHF iter   5:  -328.29814348184578   -5.66690e-03   1.03819e-03 DIIS
   @DF-RHF iter   6:  -328.29834357862495   -2.00097e-04   1.86956e-04 DIIS
   @DF-RHF iter   7:  -328.29835689593307   -1.33173e-05   3.16192e-05 DIIS
   @DF-RHF iter   8:  -328.29835732260915   -4.26676e-07   3.27814e-06 DIIS
   @DF-RHF iter   9:  -328.29835733476659   -1.21574e-08   3.25640e-07 DIIS
   @DF-RHF iter  10:  -328.29835733484219   -7.56017e-11   1.61724e-08 DIIS
   @DF-RHF iter  11:  -328.29835733484225   -5.68434e-14   1.08486e-09 DIIS
  Energy converged.


  ==> Post-Iterations <==

    Orbital Energies [Eh]
    ---------------------

    Doubly Occupied:                                                      

       1A1    -8.399948     2A1    -6.133651     1B1    -6.133651  
       1B2    -6.133651     2B1    -2.663978     3A1    -2.663978  
       2B2    -2.663978     4A1    -2.663978     1A2    -2.663978  
       5A1    -1.009453     3B1    -0.456170     6A1    -0.456170  
       3B2    -0.456170  

    Virtual:                                                              

       7A1     0.297812     4B2     0.297812     4B1     0.297812  
       8A1     0.352992     2A2     0.352992     5B2     0.352992  
       5B1     0.352992     9A1     0.352992    10A1     0.510919  
      11A1     1.150078     6B1     1.150078     6B2     1.150078  
       3A2     1.150078     7B1     1.150078    12A1     1.150078  
       7B2     1.150078    13A1     1.553367     8B1     1.553367  
       8B2     1.553367    14A1     1.684134     9B1     1.684134  
       9B2     1.684134     4A2     1.684134    15A1     1.684134  
      10B1     3.641925    16A1     3.641925     5A2     3.641925  
      17A1     3.641925    10B2     3.641925    11B1     3.641925  
      11B2     3.641925    18A1     4.872363    19A1    34.650967  
      12B1    34.650967    12B2    34.650967    20A1    45.087926  
      21A1   109.272698  

    Final Occupation by Irrep:
             A1    A2    B1    B2 
    DOCC [     6,    1,    3,    3 ]

  @DF-RHF Final Energy:  -328.29835733484225

   => Energetics <=

    Nuclear Repulsion Energy =              0.0000000000000000
    One-Electron Energy =                -571.5992104817926247
    Two-Electron Energy =                 243.3008531469503737
    Total Energy =                       -328.2983573348422510

Computation Completed


Properties will be evaluated at   0.000000,   0.000000,   0.000000 [a0]

Properties computed using the SCF density matrix

  Nuclear Dipole Moment: [e a0]
     X:     0.0000      Y:     0.0000      Z:    19.4004

  Electronic Dipole Moment: [e a0]
     X:     0.0000      Y:     0.0000      Z:   -19.4004

  Dipole Moment: [e a0]
     X:     0.0000      Y:     0.0000      Z:     0.0000     Total:     0.0000

  Dipole Moment: [D]
     X:     0.0000      Y:     0.0000      Z:     0.0000     Total:     0.0000


*** tstop() called on login02 at Wed Jan  9 11:31:46 2019
Module time:
	user time   =       2.18 seconds =       0.04 minutes
	system time =       0.04 seconds =       0.00 minutes
	total time  =          2 seconds =       0.03 minutes
Total time:
	user time   =      10.60 seconds =       0.18 minutes
	system time =       0.29 seconds =       0.00 minutes
	total time  =         11 seconds =       0.18 minutes

*** tstart() called on login02
*** at Wed Jan  9 11:31:46 2019


  //>>>>>>>>>>>>>>>>>>>>>>>>>>>>>>>>>>>//
  //               DFMP2               //
  //<<<<<<<<<<<<<<<<<<<<<<<<<<<<<<<<<<<//

   => Loading Basis Set <=

    Name: (DEF2-SVP AUX)
    Role: RIFIT
    Keyword: DF_BASIS_MP2
    atoms 1 entry XE         line  2974 file /bigwork/nhcikrau/bin/psi4-dev-1350/share/psi4/basis/def2-svp-ri.gbs 

	 --------------------------------------------------------
	                          DF-MP2                         
	      2nd-Order Density-Fitted Moller-Plesset Theory     
	              RMP2 Wavefunction,   1 Threads             
	                                                         
	        Rob Parrish, Justin Turney, Andy Simmonett,      
	           Ed Hohenstein, and C. David Sherrill          
	 --------------------------------------------------------

   => Auxiliary Basis Set <=

  -AO BASIS SET INFORMATION:
    Name                   = (DEF2-SVP AUX)
    Blend                  = DEF2-SVP-RI
    Total number of shells = 38
    Number of primitives   = 38
    Number of AO           = 264
    Number of SO           = 184
    Maximum AM             = 5
    Spherical Harmonics    = TRUE

  -Contraction Scheme:
    Atom   Type   All Primitives // Shells:
   ------ ------ --------------------------
       1    XE     9s 8p 8d 6f 4g 3h // 9s 8p 8d 6f 4g 3h 

	 --------------------------------------------------------
	                 NBF =    50, NAUX =   184
	 --------------------------------------------------------
	   CLASS    FOCC     OCC    AOCC    AVIR     VIR    FVIR
	   PAIRS       4      13       9      37      37       0
	 --------------------------------------------------------

	-----------------------------------------------------------
	 ==================> DF-MP2 Energies <==================== 
	-----------------------------------------------------------
	 Reference Energy          =    -328.2983573348422510 [Eh]
	 Singles Energy            =      -0.0000000000000000 [Eh]
	 Same-Spin Energy          =      -0.1951462037190548 [Eh]
	 Opposite-Spin Energy      =      -0.3299934474494258 [Eh]
	 Correlation Energy        =      -0.5251396511684805 [Eh]
	 Total Energy              =    -328.8234969860107526 [Eh]
	-----------------------------------------------------------
	 ================> DF-SCS-MP2 Energies <================== 
	-----------------------------------------------------------
	 SCS Same-Spin Scale       =       0.3333333333333333 [-]
	 SCS Opposite-Spin Scale   =       1.2000000000000000 [-]
	 SCS Same-Spin Energy      =      -0.0650487345730182 [Eh]
	 SCS Opposite-Spin Energy  =      -0.3959921369393109 [Eh]
	 SCS Correlation Energy    =      -0.4610408715123291 [Eh]
	 SCS Total Energy          =    -328.7593982063546036 [Eh]
	-----------------------------------------------------------


*** tstop() called on login02 at Wed Jan  9 11:31:46 2019
Module time:
	user time   =       0.36 seconds =       0.01 minutes
	system time =       0.01 seconds =       0.00 minutes
	total time  =          0 seconds =       0.00 minutes
Total time:
	user time   =      10.96 seconds =       0.18 minutes
	system time =       0.30 seconds =       0.01 minutes
	total time  =         11 seconds =       0.18 minutes

       N-Body: Complex Energy (fragments = (2,), basis = (2,):  -328.82349698601075)

       N-Body: Computing complex (2/4) with fragments (2,) in the basis of fragments (1, 2).

    SCF Algorithm Type (re)set to DF.

*** tstart() called on login02
*** at Wed Jan  9 11:31:46 2019

   => Loading Basis Set <=

    Name: DEF2-SVP
    Role: ORBITAL
    Keyword: BASIS
    atoms 1 entry NE         line   170 file /bigwork/nhcikrau/bin/psi4-dev-1350/share/psi4/basis/def2-svp.gbs 
    atoms 2 entry XE         line  1722 (ECP: line  2827) file /bigwork/nhcikrau/bin/psi4-dev-1350/share/psi4/basis/def2-svp.gbs 

    !!!  WARNING: ECP capability is in beta. Please check occupations closely.  !!!


         ---------------------------------------------------------
                                   SCF
               by Justin Turney, Rob Parrish, Andy Simmonett
                          and Daniel G. A. Smith
                              RHF Reference
                        1 Threads,    500 MiB Core
         ---------------------------------------------------------

  ==> Geometry <==

    Molecular point group: c2v
    Full point group: C_inf_v

    Geometry (in Angstrom), charge = 0, multiplicity = 1:

       Center              X                  Y                   Z               Mass       
    ------------   -----------------  -----------------  -----------------  -----------------
      Gh(NE)          0.000000000000     0.000000000000    -2.605143746473    19.992440176200
         XE           0.000000000000     0.000000000000     0.394856253527   131.904155085600

  Running in c2v symmetry.

  Rotational constants: A = ************  B =      0.10789  C =      0.10789 [cm^-1]
  Rotational constants: A = ************  B =   3234.43515  C =   3234.43515 [MHz]
  Nuclear repulsion =    0.000000000000000

  Charge       = 0
  Multiplicity = 1
  Electrons    = 26
  Nalpha       = 13
  Nbeta        = 13

  ==> Algorithm <==

  SCF Algorithm Type is DF.
  DIIS enabled.
  MOM disabled.
  Fractional occupation disabled.
  Guess Type is SAD.
  Energy threshold   = 1.00e-08
  Density threshold  = 1.00e-08
  Integral threshold = 0.00e+00

  ==> Primary Basis <==

  -AO BASIS SET INFORMATION:
    Name                   = DEF2-SVP
    Blend                  = DEF2-SVP
    Total number of shells = 22
    Number of primitives   = 43
    Number of AO           = 74
    Number of SO           = 64
    Maximum AM             = 3
    Spherical Harmonics    = TRUE

  -Contraction Scheme:
    Atom   Type   All Primitives // Shells:
   ------ ------ --------------------------
       1    NE     7s 4p 1d // 3s 2p 1d 
       2    XE     11s 10p 8d 2f // 6s 5p 3d 2f 

  -CORE POTENTIAL INFORMATION:
    Total number of shells   = 4
    Number of terms          = 29
    Number of core electrons = 28
    Maximum AM               = 3

  -Contraction Scheme:
    Atom   Type  #elec    All terms // Shells:   
   ------ ------ ----- --------------------------
       1    NE      0   
       2    XE     28   7s 8p 10d 4f // 1s 1p 1d 1f 

   => Loading Basis Set <=

    Name: (DEF2-SVP AUX)
    Role: JKFIT
    Keyword: DF_BASIS_SCF
    atoms 1 entry NE         line   443 file /bigwork/nhcikrau/bin/psi4-dev-1350/share/psi4/basis/def2-svp-jkfit.gbs 
    atoms 2 entry XE         line  5086 file /bigwork/nhcikrau/bin/psi4-dev-1350/share/psi4/basis/def2-svp-jkfit.gbs 

  ==> Pre-Iterations <==

   -------------------------------------------------------
    Irrep   Nso     Nmo     Nalpha   Nbeta   Ndocc  Nsocc
   -------------------------------------------------------
     A1        28      28       0       0       0       0
     A2         6       6       0       0       0       0
     B1        15      15       0       0       0       0
     B2        15      15       0       0       0       0
   -------------------------------------------------------
    Total      64      64      13      13      13       0
   -------------------------------------------------------

  ==> Integral Setup <==

  DFHelper Memory: AOs need 0.010 GiB; user supplied 0.366 GiB. Using in-core AOs.

  ==> MemDFJK: Density-Fitted J/K Matrices <==

    J tasked:                   Yes
    K tasked:                   Yes
    wK tasked:                   No
    OpenMP threads:               1
    Memory [MiB]:               375
    Algorithm:                 Core
    Schwarz Cutoff:           1E-12
    Mask sparsity (%):       6.1523
    Fitting Condition:        1E-12

   => Auxiliary Basis Set <=

  -AO BASIS SET INFORMATION:
    Name                   = (DEF2-SVP AUX)
    Blend                  = DEF2-SVP-JKFIT
    Total number of shells = 71
    Number of primitives   = 86
    Number of AO           = 402
    Number of SO           = 295
    Maximum AM             = 5
    Spherical Harmonics    = TRUE

  -Contraction Scheme:
    Atom   Type   All Primitives // Shells:
   ------ ------ --------------------------
       1    NE     14s 10p 6d 2f 1g // 10s 8p 4d 2f 1g 
       2    XE     13s 12p 11d 8f 6g 3h // 11s 10p 10d 7f 5g 3h 

  Minimum eigenvalue in the overlap matrix is 6.0588497777E-03.
  Using Symmetric Orthogonalization.

  SCF Guess: Superposition of Atomic Densities via on-the-fly atomic UHF.

  ==> Iterations <==

                           Total Energy        Delta E     RMS |[F,P]|

   @DF-RHF iter   0:   279.34052661351700    2.79341e+02   0.00000e+00 
   @DF-RHF iter   1:  -184.48058717545126   -4.63821e+02   5.03783e-01 DIIS
   @DF-RHF iter   2:  -290.30907028400577   -1.05828e+02   2.68760e-01 DIIS
   @DF-RHF iter   3:  -328.13151826107719   -3.78224e+01   2.59810e-02 DIIS
   @DF-RHF iter   4:  -328.29205871770034   -1.60540e-01   3.53807e-03 DIIS
   @DF-RHF iter   5:  -328.29798145404891   -5.92274e-03   1.07927e-03 DIIS
   @DF-RHF iter   6:  -328.29828129451977   -2.99840e-04   3.02304e-04 DIIS
   @DF-RHF iter   7:  -328.29831234243187   -3.10479e-05   6.01602e-05 DIIS
   @DF-RHF iter   8:  -328.29831499938007   -2.65695e-06   1.19131e-05 DIIS
   @DF-RHF iter   9:  -328.29831510984951   -1.10469e-07   1.29815e-06 DIIS
   @DF-RHF iter  10:  -328.29831511295436   -3.10484e-09   1.39070e-07 DIIS
   @DF-RHF iter  11:  -328.29831511297368   -1.93268e-11   1.91825e-08 DIIS
   @DF-RHF iter  12:  -328.29831511297397   -2.84217e-13   2.53310e-09 DIIS
  Energy converged.


  ==> Post-Iterations <==

    Orbital Energies [Eh]
    ---------------------

    Doubly Occupied:                                                      

       1A1    -8.399824     2A1    -6.133527     1B2    -6.133527  
       1B1    -6.133527     3A1    -2.663855     2B2    -2.663854  
       2B1    -2.663854     1A2    -2.663853     4A1    -2.663853  
       5A1    -1.009364     6A1    -0.456086     3B1    -0.456084  
       3B2    -0.456084  

    Virtual:                                                              

       7A1     0.290754     4B1     0.298282     4B2     0.298282  
       8A1     0.338862     5B2     0.352149     5B1     0.352149  
       9A1     0.353054     2A2     0.353054    10A1     0.494070  
      11A1     0.651923     6B1     1.067644     6B2     1.067644  
      12A1     1.089820     7B1     1.150188     7B2     1.150188  
      13A1     1.150189     3A2     1.150189     8B2     1.152296  
       8B1     1.152296    14A1     1.197801     9B2     1.555274  
       9B1     1.555274    15A1     1.571444    16A1     1.684213  
       4A2     1.684213    10B2     1.689655    10B1     1.689655  
      17A1     1.749128    18A1     3.331024    19A1     3.642041  
       5A2     3.642041    11B2     3.642044    11B1     3.642044  
      12B2     3.642106    12B1     3.642106    20A1     3.646045  
      21A1     4.888036    22A1     6.607588     6A2     6.607588  
      13B1     6.608222    13B2     6.608222    23A1     6.612446  
      14B1     8.693842    14B2     8.693842    24A1     8.780228  
      15B2    34.651699    15B1    34.651699    25A1    34.660589  
      26A1    45.098590    27A1    54.454862    28A1   109.274414  

    Final Occupation by Irrep:
             A1    A2    B1    B2 
    DOCC [     6,    1,    3,    3 ]

  @DF-RHF Final Energy:  -328.29831511297397

   => Energetics <=

    Nuclear Repulsion Energy =              0.0000000000000000
    One-Electron Energy =                -571.6020426832342309
    Two-Electron Energy =                 243.3037275702602642
    Total Energy =                       -328.2983151129739667

Computation Completed


Properties will be evaluated at   0.000000,   0.000000,   0.000000 [a0]

Properties computed using the SCF density matrix

  Nuclear Dipole Moment: [e a0]
     X:     0.0000      Y:     0.0000      Z:    19.4004

  Electronic Dipole Moment: [e a0]
     X:     0.0000      Y:     0.0000      Z:   -19.4006

  Dipole Moment: [e a0]
     X:     0.0000      Y:     0.0000      Z:    -0.0002     Total:     0.0002

  Dipole Moment: [D]
     X:     0.0000      Y:     0.0000      Z:    -0.0005     Total:     0.0005


*** tstop() called on login02 at Wed Jan  9 11:31:50 2019
Module time:
	user time   =       3.36 seconds =       0.06 minutes
	system time =       0.06 seconds =       0.00 minutes
	total time  =          4 seconds =       0.07 minutes
Total time:
	user time   =      14.33 seconds =       0.24 minutes
	system time =       0.36 seconds =       0.01 minutes
	total time  =         15 seconds =       0.25 minutes

*** tstart() called on login02
*** at Wed Jan  9 11:31:50 2019


  //>>>>>>>>>>>>>>>>>>>>>>>>>>>>>>>>>>>//
  //               DFMP2               //
  //<<<<<<<<<<<<<<<<<<<<<<<<<<<<<<<<<<<//

   => Loading Basis Set <=

    Name: (DEF2-SVP AUX)
    Role: RIFIT
    Keyword: DF_BASIS_MP2
    atoms 1 entry NE         line   313 file /bigwork/nhcikrau/bin/psi4-dev-1350/share/psi4/basis/def2-svp-ri.gbs 
    atoms 2 entry XE         line  2974 file /bigwork/nhcikrau/bin/psi4-dev-1350/share/psi4/basis/def2-svp-ri.gbs 

	 --------------------------------------------------------
	                          DF-MP2                         
	      2nd-Order Density-Fitted Moller-Plesset Theory     
	              RMP2 Wavefunction,   1 Threads             
	                                                         
	        Rob Parrish, Justin Turney, Andy Simmonett,      
	           Ed Hohenstein, and C. David Sherrill          
	 --------------------------------------------------------

   => Auxiliary Basis Set <=

  -AO BASIS SET INFORMATION:
    Name                   = (DEF2-SVP AUX)
    Blend                  = DEF2-SVP-RI
    Total number of shells = 54
    Number of primitives   = 60
    Number of AO           = 319
    Number of SO           = 232
    Maximum AM             = 5
    Spherical Harmonics    = TRUE

  -Contraction Scheme:
    Atom   Type   All Primitives // Shells:
   ------ ------ --------------------------
       1    NE     8s 6p 5d 3f // 6s 5p 4d 1f 
       2    XE     9s 8p 8d 6f 4g 3h // 9s 8p 8d 6f 4g 3h 

	 --------------------------------------------------------
	                 NBF =    64, NAUX =   232
	 --------------------------------------------------------
	   CLASS    FOCC     OCC    AOCC    AVIR     VIR    FVIR
	   PAIRS       4      13       9      51      51       0
	 --------------------------------------------------------

	-----------------------------------------------------------
	 ==================> DF-MP2 Energies <==================== 
	-----------------------------------------------------------
	 Reference Energy          =    -328.2983151129739667 [Eh]
	 Singles Energy            =      -0.0000000000000000 [Eh]
	 Same-Spin Energy          =      -0.1951729486931885 [Eh]
	 Opposite-Spin Energy      =      -0.3300617792301638 [Eh]
	 Correlation Energy        =      -0.5252347279233522 [Eh]
	 Total Energy              =    -328.8235498408973285 [Eh]
	-----------------------------------------------------------
	 ================> DF-SCS-MP2 Energies <================== 
	-----------------------------------------------------------
	 SCS Same-Spin Scale       =       0.3333333333333333 [-]
	 SCS Opposite-Spin Scale   =       1.2000000000000000 [-]
	 SCS Same-Spin Energy      =      -0.0650576495643961 [Eh]
	 SCS Opposite-Spin Energy  =      -0.3960741350761965 [Eh]
	 SCS Correlation Energy    =      -0.4611317846405927 [Eh]
	 SCS Total Energy          =    -328.7594468976145663 [Eh]
	-----------------------------------------------------------


*** tstop() called on login02 at Wed Jan  9 11:31:50 2019
Module time:
	user time   =       0.40 seconds =       0.01 minutes
	system time =       0.02 seconds =       0.00 minutes
	total time  =          0 seconds =       0.00 minutes
Total time:
	user time   =      14.73 seconds =       0.25 minutes
	system time =       0.38 seconds =       0.01 minutes
	total time  =         15 seconds =       0.25 minutes

       N-Body: Complex Energy (fragments = (2,), basis = (1, 2):  -328.82354984089733)

       N-Body: Computing complex (3/4) with fragments (1,) in the basis of fragments (1, 2).

    SCF Algorithm Type (re)set to DF.

*** tstart() called on login02
*** at Wed Jan  9 11:31:50 2019

   => Loading Basis Set <=

    Name: DEF2-SVP
    Role: ORBITAL
    Keyword: BASIS
    atoms 1 entry NE         line   170 file /bigwork/nhcikrau/bin/psi4-dev-1350/share/psi4/basis/def2-svp.gbs 
    atoms 2 entry XE         line  1722 (ECP: line  2827) file /bigwork/nhcikrau/bin/psi4-dev-1350/share/psi4/basis/def2-svp.gbs 

    !!!  WARNING: ECP capability is in beta. Please check occupations closely.  !!!


         ---------------------------------------------------------
                                   SCF
               by Justin Turney, Rob Parrish, Andy Simmonett
                          and Daniel G. A. Smith
                              RHF Reference
                        1 Threads,    500 MiB Core
         ---------------------------------------------------------

  ==> Geometry <==

    Molecular point group: c2v
    Full point group: C_inf_v

    Geometry (in Angstrom), charge = 0, multiplicity = 1:

       Center              X                  Y                   Z               Mass       
    ------------   -----------------  -----------------  -----------------  -----------------
         NE           0.000000000000     0.000000000000    -2.605143746473    19.992440176200
      Gh(XE)          0.000000000000     0.000000000000     0.394856253527   131.904155085600

  Running in c2v symmetry.

  Rotational constants: A = ************  B =      0.10789  C =      0.10789 [cm^-1]
  Rotational constants: A = ************  B =   3234.43515  C =   3234.43515 [MHz]
  Nuclear repulsion =    0.000000000000000

  Charge       = 0
  Multiplicity = 1
  Electrons    = 10
  Nalpha       = 5
  Nbeta        = 5

  ==> Algorithm <==

  SCF Algorithm Type is DF.
  DIIS enabled.
  MOM disabled.
  Fractional occupation disabled.
  Guess Type is SAD.
  Energy threshold   = 1.00e-08
  Density threshold  = 1.00e-08
  Integral threshold = 0.00e+00

  ==> Primary Basis <==

  -AO BASIS SET INFORMATION:
    Name                   = DEF2-SVP
    Blend                  = DEF2-SVP
    Total number of shells = 22
    Number of primitives   = 43
    Number of AO           = 74
    Number of SO           = 64
    Maximum AM             = 3
    Spherical Harmonics    = TRUE

  -Contraction Scheme:
    Atom   Type   All Primitives // Shells:
   ------ ------ --------------------------
       1    NE     7s 4p 1d // 3s 2p 1d 
       2    XE     11s 10p 8d 2f // 6s 5p 3d 2f 

  -CORE POTENTIAL INFORMATION:
    Total number of shells   = 4
    Number of terms          = 29
    Number of core electrons = 0
    Maximum AM               = 3

  -Contraction Scheme:
    Atom   Type  #elec    All terms // Shells:   
   ------ ------ ----- --------------------------
       1    NE      0   
       2    XE      0   

   => Loading Basis Set <=

    Name: (DEF2-SVP AUX)
    Role: JKFIT
    Keyword: DF_BASIS_SCF
    atoms 1 entry NE         line   443 file /bigwork/nhcikrau/bin/psi4-dev-1350/share/psi4/basis/def2-svp-jkfit.gbs 
    atoms 2 entry XE         line  5086 file /bigwork/nhcikrau/bin/psi4-dev-1350/share/psi4/basis/def2-svp-jkfit.gbs 

  ==> Pre-Iterations <==

   -------------------------------------------------------
    Irrep   Nso     Nmo     Nalpha   Nbeta   Ndocc  Nsocc
   -------------------------------------------------------
     A1        28      28       0       0       0       0
     A2         6       6       0       0       0       0
     B1        15      15       0       0       0       0
     B2        15      15       0       0       0       0
   -------------------------------------------------------
    Total      64      64       5       5       5       0
   -------------------------------------------------------

  ==> Integral Setup <==

  DFHelper Memory: AOs need 0.010 GiB; user supplied 0.366 GiB. Using in-core AOs.

  ==> MemDFJK: Density-Fitted J/K Matrices <==

    J tasked:                   Yes
    K tasked:                   Yes
    wK tasked:                   No
    OpenMP threads:               1
    Memory [MiB]:               375
    Algorithm:                 Core
    Schwarz Cutoff:           1E-12
    Mask sparsity (%):       6.1523
    Fitting Condition:        1E-12

   => Auxiliary Basis Set <=

  -AO BASIS SET INFORMATION:
    Name                   = (DEF2-SVP AUX)
    Blend                  = DEF2-SVP-JKFIT
    Total number of shells = 71
    Number of primitives   = 86
    Number of AO           = 402
    Number of SO           = 295
    Maximum AM             = 5
    Spherical Harmonics    = TRUE

  -Contraction Scheme:
    Atom   Type   All Primitives // Shells:
   ------ ------ --------------------------
       1    NE     14s 10p 6d 2f 1g // 10s 8p 4d 2f 1g 
       2    XE     13s 12p 11d 8f 6g 3h // 11s 10p 10d 7f 5g 3h 

  Minimum eigenvalue in the overlap matrix is 6.0588497777E-03.
  Using Symmetric Orthogonalization.

  SCF Guess: Superposition of Atomic Densities via on-the-fly atomic UHF.

  ==> Iterations <==

                           Total Energy        Delta E     RMS |[F,P]|

   @DF-RHF iter   0:  -128.37632192122462   -1.28376e+02   0.00000e+00 
   @DF-RHF iter   1:  -128.37791982599930   -1.59790e-03   2.41930e-04 DIIS
   @DF-RHF iter   2:  -128.37798896852050   -6.91425e-05   5.62756e-05 DIIS
   @DF-RHF iter   3:  -128.37799305208998   -4.08357e-06   6.21894e-06 DIIS
   @DF-RHF iter   4:  -128.37799308443257   -3.23426e-08   4.86207e-07 DIIS
   @DF-RHF iter   5:  -128.37799308457267   -1.40091e-10   1.52469e-07 DIIS
   @DF-RHF iter   6:  -128.37799308458148   -8.81073e-12   2.42587e-08 DIIS
   @DF-RHF iter   7:  -128.37799308458170   -2.27374e-13   2.18510e-09 DIIS
  Energy converged.


  ==> Post-Iterations <==

    Orbital Energies [Eh]
    ---------------------

    Doubly Occupied:                                                      

       1A1   -32.758303     2A1    -1.885965     1B1    -0.842902  
       1B2    -0.842902     3A1    -0.841799  

    Virtual:                                                              

       2B2     0.187450     2B1     0.187450     4A1     0.198446  
       5A1     0.213803     3B2     0.601623     3B1     0.601623  
       1A2     0.601739     6A1     0.601739     7A1     0.611240  
       4B2     0.718986     4B1     0.718986     8A1     0.729308  
       9A1     1.122191    10A1     1.661076     5B1     1.702173  
       5B2     1.702173    11A1     1.829930     6B2     2.189439  
       6B1     2.189439    12A1     2.203441     7B1     2.217579  
       7B2     2.217579     2A2     2.217690    13A1     2.217690  
       8B1     2.218544     8B2     2.218544    14A1     2.236521  
      15A1     2.403755     3A2     2.403755     9B1     2.408149  
       9B2     2.408149    16A1     2.480897    17A1     4.493311  
       4A2     4.514899    18A1     4.514899    10B2     4.515996  
      10B1     4.515996    19A1     4.536836    11B1    11.071812  
      11B2    11.071812    20A1    11.083159    12B1    11.657350  
      12B2    11.657350    21A1    11.657385     5A2    11.657385  
      13B1    11.657439    13B2    11.657439    22A1    11.658345  
       6A2    13.742302    23A1    13.742302    14B2    13.744020  
      14B1    13.744020    24A1    13.773782    25A1    18.888053  
      15B2    86.259549    15B1    86.259549    26A1    86.270217  
      27A1    95.849746    28A1   299.418137  

    Final Occupation by Irrep:
             A1    A2    B1    B2 
    DOCC [     3,    0,    1,    1 ]

  @DF-RHF Final Energy:  -128.37799308458170

   => Energetics <=

    Nuclear Repulsion Energy =              0.0000000000000000
    One-Electron Energy =                -182.4122468679972258
    Two-Electron Energy =                  54.0342537834155223
    Total Energy =                       -128.3779930845817034

Computation Completed


Properties will be evaluated at   0.000000,   0.000000,   0.000000 [a0]

Properties computed using the SCF density matrix

  Nuclear Dipole Moment: [e a0]
     X:     0.0000      Y:     0.0000      Z:   -49.2301

  Electronic Dipole Moment: [e a0]
     X:     0.0000      Y:     0.0000      Z:    49.2047

  Dipole Moment: [e a0]
     X:     0.0000      Y:     0.0000      Z:    -0.0254     Total:     0.0254

  Dipole Moment: [D]
     X:     0.0000      Y:     0.0000      Z:    -0.0644     Total:     0.0644


*** tstop() called on login02 at Wed Jan  9 11:31:54 2019
Module time:
	user time   =       3.61 seconds =       0.06 minutes
	system time =       0.06 seconds =       0.00 minutes
	total time  =          4 seconds =       0.07 minutes
Total time:
	user time   =      18.35 seconds =       0.31 minutes
	system time =       0.44 seconds =       0.01 minutes
	total time  =         19 seconds =       0.32 minutes

*** tstart() called on login02
*** at Wed Jan  9 11:31:54 2019


  //>>>>>>>>>>>>>>>>>>>>>>>>>>>>>>>>>>>//
  //               DFMP2               //
  //<<<<<<<<<<<<<<<<<<<<<<<<<<<<<<<<<<<//

   => Loading Basis Set <=

    Name: (DEF2-SVP AUX)
    Role: RIFIT
    Keyword: DF_BASIS_MP2
    atoms 1 entry NE         line   313 file /bigwork/nhcikrau/bin/psi4-dev-1350/share/psi4/basis/def2-svp-ri.gbs 
    atoms 2 entry XE         line  2974 file /bigwork/nhcikrau/bin/psi4-dev-1350/share/psi4/basis/def2-svp-ri.gbs 

	 --------------------------------------------------------
	                          DF-MP2                         
	      2nd-Order Density-Fitted Moller-Plesset Theory     
	              RMP2 Wavefunction,   1 Threads             
	                                                         
	        Rob Parrish, Justin Turney, Andy Simmonett,      
	           Ed Hohenstein, and C. David Sherrill          
	 --------------------------------------------------------

   => Auxiliary Basis Set <=

  -AO BASIS SET INFORMATION:
    Name                   = (DEF2-SVP AUX)
    Blend                  = DEF2-SVP-RI
    Total number of shells = 54
    Number of primitives   = 60
    Number of AO           = 319
    Number of SO           = 232
    Maximum AM             = 5
    Spherical Harmonics    = TRUE

  -Contraction Scheme:
    Atom   Type   All Primitives // Shells:
   ------ ------ --------------------------
       1    NE     8s 6p 5d 3f // 6s 5p 4d 1f 
       2    XE     9s 8p 8d 6f 4g 3h // 9s 8p 8d 6f 4g 3h 

	 --------------------------------------------------------
	                 NBF =    64, NAUX =   232
	 --------------------------------------------------------
	   CLASS    FOCC     OCC    AOCC    AVIR     VIR    FVIR
	   PAIRS       1       5       4      59      59       0
	 --------------------------------------------------------

	-----------------------------------------------------------
	 ==================> DF-MP2 Energies <==================== 
	-----------------------------------------------------------
	 Reference Energy          =    -128.3779930845817034 [Eh]
	 Singles Energy            =      -0.0000000000000000 [Eh]
	 Same-Spin Energy          =      -0.0510301008199813 [Eh]
	 Opposite-Spin Energy      =      -0.1333808598090823 [Eh]
	 Correlation Energy        =      -0.1844109606290636 [Eh]
	 Total Energy              =    -128.5624040452107693 [Eh]
	-----------------------------------------------------------
	 ================> DF-SCS-MP2 Energies <================== 
	-----------------------------------------------------------
	 SCS Same-Spin Scale       =       0.3333333333333333 [-]
	 SCS Opposite-Spin Scale   =       1.2000000000000000 [-]
	 SCS Same-Spin Energy      =      -0.0170100336066604 [Eh]
	 SCS Opposite-Spin Energy  =      -0.1600570317708988 [Eh]
	 SCS Correlation Energy    =      -0.1770670653775592 [Eh]
	 SCS Total Energy          =    -128.5550601499592744 [Eh]
	-----------------------------------------------------------


*** tstop() called on login02 at Wed Jan  9 11:31:55 2019
Module time:
	user time   =       0.59 seconds =       0.01 minutes
	system time =       0.01 seconds =       0.00 minutes
	total time  =          1 seconds =       0.02 minutes
Total time:
	user time   =      18.94 seconds =       0.32 minutes
	system time =       0.45 seconds =       0.01 minutes
	total time  =         20 seconds =       0.33 minutes

       N-Body: Complex Energy (fragments = (1,), basis = (1, 2):  -128.56240404521077)

       N-Body: Computing complex (4/4) with fragments (1,) in the basis of fragments (1,).

    SCF Algorithm Type (re)set to DF.

*** tstart() called on login02
*** at Wed Jan  9 11:31:55 2019

   => Loading Basis Set <=

    Name: DEF2-SVP
    Role: ORBITAL
    Keyword: BASIS
    atoms 1 entry NE         line   170 file /bigwork/nhcikrau/bin/psi4-dev-1350/share/psi4/basis/def2-svp.gbs 


         ---------------------------------------------------------
                                   SCF
               by Justin Turney, Rob Parrish, Andy Simmonett
                          and Daniel G. A. Smith
                              RHF Reference
                        1 Threads,    500 MiB Core
         ---------------------------------------------------------

  ==> Geometry <==

    Molecular point group: c2v
    Geometry (in Angstrom), charge = 0, multiplicity = 1:

       Center              X                  Y                   Z               Mass       
    ------------   -----------------  -----------------  -----------------  -----------------
         NE           0.000000000000     0.000000000000    -2.605143746473    19.992440176200

  Running in c2v symmetry.

  Rotational constants: A = ************  B =      0.12424  C =      0.12424 [cm^-1]
  Rotational constants: A = ************  B =   3724.67180  C =   3724.67180 [MHz]
  Nuclear repulsion =    0.000000000000000

  Charge       = 0
  Multiplicity = 1
  Electrons    = 10
  Nalpha       = 5
  Nbeta        = 5

  ==> Algorithm <==

  SCF Algorithm Type is DF.
  DIIS enabled.
  MOM disabled.
  Fractional occupation disabled.
  Guess Type is SAD.
  Energy threshold   = 1.00e-08
  Density threshold  = 1.00e-08
  Integral threshold = 0.00e+00

  ==> Primary Basis <==

  -AO BASIS SET INFORMATION:
    Name                   = DEF2-SVP
    Blend                  = DEF2-SVP
    Total number of shells = 6
    Number of primitives   = 12
    Number of AO           = 15
    Number of SO           = 14
    Maximum AM             = 2
    Spherical Harmonics    = TRUE

  -Contraction Scheme:
    Atom   Type   All Primitives // Shells:
   ------ ------ --------------------------
       1    NE     7s 4p 1d // 3s 2p 1d 

   => Loading Basis Set <=

    Name: (DEF2-SVP AUX)
    Role: JKFIT
    Keyword: DF_BASIS_SCF
    atoms 1 entry NE         line   443 file /bigwork/nhcikrau/bin/psi4-dev-1350/share/psi4/basis/def2-svp-jkfit.gbs 

  ==> Pre-Iterations <==

   -------------------------------------------------------
    Irrep   Nso     Nmo     Nalpha   Nbeta   Ndocc  Nsocc
   -------------------------------------------------------
     A1         7       7       0       0       0       0
     A2         1       1       0       0       0       0
     B1         3       3       0       0       0       0
     B2         3       3       0       0       0       0
   -------------------------------------------------------
    Total      14      14       5       5       5       0
   -------------------------------------------------------

  ==> Integral Setup <==

  DFHelper Memory: AOs need 0.000 GiB; user supplied 0.366 GiB. Using in-core AOs.

  ==> MemDFJK: Density-Fitted J/K Matrices <==

    J tasked:                   Yes
    K tasked:                   Yes
    wK tasked:                   No
    OpenMP threads:               1
    Memory [MiB]:               375
    Algorithm:                 Core
    Schwarz Cutoff:           1E-12
    Mask sparsity (%):       0.0000
    Fitting Condition:        1E-12

   => Auxiliary Basis Set <=

  -AO BASIS SET INFORMATION:
    Name                   = (DEF2-SVP AUX)
    Blend                  = DEF2-SVP-JKFIT
    Total number of shells = 25
    Number of primitives   = 33
    Number of AO           = 93
    Number of SO           = 77
    Maximum AM             = 4
    Spherical Harmonics    = TRUE

  -Contraction Scheme:
    Atom   Type   All Primitives // Shells:
   ------ ------ --------------------------
       1    NE     14s 10p 6d 2f 1g // 10s 8p 4d 2f 1g 

  Minimum eigenvalue in the overlap matrix is 1.9107712976E-01.
  Using Symmetric Orthogonalization.

  SCF Guess: Superposition of Atomic Densities via on-the-fly atomic UHF.

  ==> Iterations <==

                           Total Energy        Delta E     RMS |[F,P]|

   @DF-RHF iter   0:  -128.37632153276806   -1.28376e+02   0.00000e+00 
   @DF-RHF iter   1:  -128.37632385728912   -2.32452e-06   1.83252e-04 DIIS
   @DF-RHF iter   2:  -128.37632432063833   -4.63349e-07   8.41663e-05 DIIS
   @DF-RHF iter   3:  -128.37632444013161   -1.19493e-07   1.20850e-06 DIIS
   @DF-RHF iter   4:  -128.37632444016600   -3.43903e-11   5.83971e-09 DIIS
  Energy converged.


  ==> Post-Iterations <==

    Orbital Energies [Eh]
    ---------------------

    Doubly Occupied:                                                      

       1A1   -32.752827     2A1    -1.882206     3A1    -0.838894  
       1B2    -0.838894     1B1    -0.838894  

    Virtual:                                                              

       4A1     1.634945     5A1     1.696299     2B2     1.696299  
       2B1     1.696299     1A2     4.518912     3B1     4.518912  
       3B2     4.518912     6A1     4.518912     7A1     4.518912  

    Final Occupation by Irrep:
             A1    A2    B1    B2 
    DOCC [     3,    0,    1,    1 ]

  @DF-RHF Final Energy:  -128.37632444016600

   => Energetics <=

    Nuclear Repulsion Energy =              0.0000000000000000
    One-Electron Energy =                -182.4492217449353291
    Two-Electron Energy =                  54.0728973047693344
    Total Energy =                       -128.3763244401660018

Computation Completed


Properties will be evaluated at   0.000000,   0.000000,   0.000000 [a0]

Properties computed using the SCF density matrix

  Nuclear Dipole Moment: [e a0]
     X:     0.0000      Y:     0.0000      Z:   -49.2301

  Electronic Dipole Moment: [e a0]
     X:     0.0000      Y:     0.0000      Z:    49.2301

  Dipole Moment: [e a0]
     X:     0.0000      Y:     0.0000      Z:     0.0000     Total:     0.0000

  Dipole Moment: [D]
     X:     0.0000      Y:     0.0000      Z:     0.0000     Total:     0.0000


*** tstop() called on login02 at Wed Jan  9 11:31:55 2019
Module time:
	user time   =       0.33 seconds =       0.01 minutes
	system time =       0.03 seconds =       0.00 minutes
	total time  =          0 seconds =       0.00 minutes
Total time:
	user time   =      19.27 seconds =       0.32 minutes
	system time =       0.48 seconds =       0.01 minutes
	total time  =         20 seconds =       0.33 minutes

*** tstart() called on login02
*** at Wed Jan  9 11:31:55 2019


  //>>>>>>>>>>>>>>>>>>>>>>>>>>>>>>>>>>>//
  //               DFMP2               //
  //<<<<<<<<<<<<<<<<<<<<<<<<<<<<<<<<<<<//

   => Loading Basis Set <=

    Name: (DEF2-SVP AUX)
    Role: RIFIT
    Keyword: DF_BASIS_MP2
    atoms 1 entry NE         line   313 file /bigwork/nhcikrau/bin/psi4-dev-1350/share/psi4/basis/def2-svp-ri.gbs 

	 --------------------------------------------------------
	                          DF-MP2                         
	      2nd-Order Density-Fitted Moller-Plesset Theory     
	              RMP2 Wavefunction,   1 Threads             
	                                                         
	        Rob Parrish, Justin Turney, Andy Simmonett,      
	           Ed Hohenstein, and C. David Sherrill          
	 --------------------------------------------------------

   => Auxiliary Basis Set <=

  -AO BASIS SET INFORMATION:
    Name                   = (DEF2-SVP AUX)
    Blend                  = DEF2-SVP-RI
    Total number of shells = 16
    Number of primitives   = 22
    Number of AO           = 55
    Number of SO           = 48
    Maximum AM             = 3
    Spherical Harmonics    = TRUE

  -Contraction Scheme:
    Atom   Type   All Primitives // Shells:
   ------ ------ --------------------------
       1    NE     8s 6p 5d 3f // 6s 5p 4d 1f 

	 --------------------------------------------------------
	                 NBF =    14, NAUX =    48
	 --------------------------------------------------------
	   CLASS    FOCC     OCC    AOCC    AVIR     VIR    FVIR
	   PAIRS       1       5       4       9       9       0
	 --------------------------------------------------------

	-----------------------------------------------------------
	 ==================> DF-MP2 Energies <==================== 
	-----------------------------------------------------------
	 Reference Energy          =    -128.3763244401660018 [Eh]
	 Singles Energy            =      -0.0000000000000000 [Eh]
	 Same-Spin Energy          =      -0.0507709258362168 [Eh]
	 Opposite-Spin Energy      =      -0.1327583341490199 [Eh]
	 Correlation Energy        =      -0.1835292599852367 [Eh]
	 Total Energy              =    -128.5598537001512511 [Eh]
	-----------------------------------------------------------
	 ================> DF-SCS-MP2 Energies <================== 
	-----------------------------------------------------------
	 SCS Same-Spin Scale       =       0.3333333333333333 [-]
	 SCS Opposite-Spin Scale   =       1.2000000000000000 [-]
	 SCS Same-Spin Energy      =      -0.0169236419454056 [Eh]
	 SCS Opposite-Spin Energy  =      -0.1593100009788238 [Eh]
	 SCS Correlation Energy    =      -0.1762336429242294 [Eh]
	 SCS Total Energy          =    -128.5525580830902186 [Eh]
	-----------------------------------------------------------


*** tstop() called on login02 at Wed Jan  9 11:31:55 2019
Module time:
	user time   =       0.25 seconds =       0.00 minutes
	system time =       0.01 seconds =       0.00 minutes
	total time  =          0 seconds =       0.00 minutes
Total time:
	user time   =      19.52 seconds =       0.33 minutes
	system time =       0.49 seconds =       0.01 minutes
	total time  =         20 seconds =       0.33 minutes

[...]
     B1g        1       1       0       0       0       0
     B2g        1       1       0       0       0       0
     B3g        1       1       0       0       0       0
     Au         0       0       0       0       0       0
     B1u        4       4       0       0       0       0
     B2u        4       4       0       0       0       0
     B3u        4       4       0       0       0       0
   -------------------------------------------------------
    Total      23      23      18      18      18       0
   -------------------------------------------------------

  ==> Integral Setup <==

  DFHelper Memory: AOs need 0.003 GiB; user supplied 0.366 GiB. Using in-core AOs.

  ==> MemDFJK: Density-Fitted J/K Matrices <==

    J tasked:                   Yes
    K tasked:                   Yes
    wK tasked:                   No
    OpenMP threads:               1
    Memory [MiB]:               375
    Algorithm:                 Core
    Schwarz Cutoff:           1E-12
    Mask sparsity (%):       0.0000
    Fitting Condition:        1E-12

   => Auxiliary Basis Set <=

  -AO BASIS SET INFORMATION:
    Name                   = (3-21G AUX)
    Blend                  = DEF2-SVP-JKFIT
    Total number of shells = 60
    Number of primitives   = 67
    Number of AO           = 371
    Number of SO           = 371
    Maximum AM             = 5
    Spherical Harmonics    = FALSE

  -Contraction Scheme:
    Atom   Type   All Primitives // Shells:
   ------ ------ --------------------------
       1    KR     20s 14p 13d 10f 7g 3h // 17s 13p 12d 9f 6g 3h 

  Minimum eigenvalue in the overlap matrix is 3.8336369020E-03.
  Using Symmetric Orthogonalization.

  SCF Guess: Superposition of Atomic Densities via on-the-fly atomic UHF.

  ==> Iterations <==

                           Total Energy        Delta E     RMS |[F,P]|

   @DF-RHF iter   0: -2739.14567523926689   -2.73915e+03   0.00000e+00 
   @DF-RHF iter   1: -2739.19638198132770   -5.07067e-02   3.68229e-03 DIIS
   @DF-RHF iter   2: -2739.19706193263801   -6.79951e-04   6.07082e-04 DIIS
   @DF-RHF iter   3: -2739.19707668561750   -1.47530e-05   1.79749e-05 DIIS
   @DF-RHF iter   4: -2739.19707670322578   -1.76083e-08   2.45375e-06 DIIS
   @DF-RHF iter   5: -2739.19707670363368   -4.07908e-10   1.78368e-08 DIIS
   @DF-RHF iter   6: -2739.19707670363459   -9.09495e-13   2.28828e-10 DIIS
  Energy converged.


  ==> Post-Iterations <==

    Orbital Energies [Eh]
    ---------------------

    Doubly Occupied:                                                      

       1Ag  -516.892271     2Ag   -69.566141     1B2u  -62.548466  
       1B3u  -62.548466     1B1u  -62.548466     3Ag   -10.782336  
       2B2u   -8.228108     2B3u   -8.228108     2B1u   -8.228108  
       1B2g   -3.712304     1B1g   -3.712304     1B3g   -3.712304  
       4Ag    -3.712304     5Ag    -3.712304     6Ag    -1.126992  
       3B2u   -0.501003     3B3u   -0.501003     3B1u   -0.501003  

    Virtual:                                                              

       7Ag     0.907048     4B3u    0.959050     4B2u    0.959050  
       4B1u    0.959050     8Ag    32.293258  

    Final Occupation by Irrep:
             Ag   B1g   B2g   B3g    Au   B1u   B2u   B3u 
    DOCC [     6,    1,    1,    1,    0,    3,    3,    3 ]

  @DF-RHF Final Energy: -2739.19707670363459

   => Energetics <=

    Nuclear Repulsion Energy =              0.0000000000000000
    One-Electron Energy =               -3816.8701688839414601
    Two-Electron Energy =                1077.6730921803066394
    Total Energy =                      -2739.1970767036345933

Computation Completed


Properties will be evaluated at   0.000000,   0.000000,   0.000000 [a0]

Properties computed using the SCF density matrix

  Nuclear Dipole Moment: [e a0]
     X:     0.0000      Y:     0.0000      Z:     0.0000

  Electronic Dipole Moment: [e a0]
     X:     0.0000      Y:     0.0000      Z:     0.0000

  Dipole Moment: [e a0]
     X:     0.0000      Y:     0.0000      Z:     0.0000     Total:     0.0000

  Dipole Moment: [D]
     X:     0.0000      Y:     0.0000      Z:     0.0000     Total:     0.0000


*** tstop() called on login02 at Wed Jan  9 11:32:31 2019
Module time:
	user time   =       0.79 seconds =       0.01 minutes
	system time =       0.04 seconds =       0.00 minutes
	total time  =          1 seconds =       0.02 minutes
Total time:
	user time   =      52.66 seconds =       0.88 minutes
	system time =       1.60 seconds =       0.03 minutes
	total time  =         56 seconds =       0.93 minutes

*** tstart() called on login02
*** at Wed Jan  9 11:32:31 2019


  //>>>>>>>>>>>>>>>>>>>>>>>>>>>>>>>>>>>//
  //               DFMP2               //
  //<<<<<<<<<<<<<<<<<<<<<<<<<<<<<<<<<<<//

   => Loading Basis Set <=

    Name: (3-21G AUX)
    Role: RIFIT
    Keyword: DF_BASIS_MP2
    atoms 1 entry KR         line  3318 file /bigwork/nhcikrau/bin/psi4-dev-1350/share/psi4/basis/def2-qzvpp-ri.gbs 

	 --------------------------------------------------------
	                          DF-MP2                         
	      2nd-Order Density-Fitted Moller-Plesset Theory     
	              RMP2 Wavefunction,   1 Threads             
	                                                         
	        Rob Parrish, Justin Turney, Andy Simmonett,      
	           Ed Hohenstein, and C. David Sherrill          
	 --------------------------------------------------------

   => Auxiliary Basis Set <=

  -AO BASIS SET INFORMATION:
    Name                   = (3-21G AUX)
    Blend                  = DEF2-QZVPP-RI
    Total number of shells = 58
    Number of primitives   = 58
    Number of AO           = 443
    Number of SO           = 298
    Maximum AM             = 6
    Spherical Harmonics    = TRUE

  -Contraction Scheme:
    Atom   Type   All Primitives // Shells:
   ------ ------ --------------------------
       1    KR     13s 12p 11d 9f 7g 5h 1i // 13s 12p 11d 9f 7g 5h 1i 

	 --------------------------------------------------------
	                 NBF =    23, NAUX =   298
	 --------------------------------------------------------
	   CLASS    FOCC     OCC    AOCC    AVIR     VIR    FVIR
	   PAIRS       1      18      17       5       5       0
	 --------------------------------------------------------

	-----------------------------------------------------------
	 ==================> DF-MP2 Energies <==================== 
	-----------------------------------------------------------
	 Reference Energy          =   -2739.1970767036345933 [Eh]
	 Singles Energy            =      -0.0000000000000000 [Eh]
	 Same-Spin Energy          =      -0.0066559110108763 [Eh]
	 Opposite-Spin Energy      =      -0.0228878731766022 [Eh]
	 Correlation Energy        =      -0.0295437841874785 [Eh]
	 Total Energy              =   -2739.2266204878219469 [Eh]
	-----------------------------------------------------------
	 ================> DF-SCS-MP2 Energies <================== 
	-----------------------------------------------------------
	 SCS Same-Spin Scale       =       0.3333333333333333 [-]
	 SCS Opposite-Spin Scale   =       1.2000000000000000 [-]
	 SCS Same-Spin Energy      =      -0.0022186370036254 [Eh]
	 SCS Opposite-Spin Energy  =      -0.0274654478119227 [Eh]
	 SCS Correlation Energy    =      -0.0296840848155481 [Eh]
	 SCS Total Energy          =   -2739.2267607884500649 [Eh]
	-----------------------------------------------------------


*** tstop() called on login02 at Wed Jan  9 11:32:32 2019
Module time:
	user time   =       0.77 seconds =       0.01 minutes
	system time =       0.02 seconds =       0.00 minutes
	total time  =          1 seconds =       0.02 minutes
Total time:
	user time   =      53.43 seconds =       0.89 minutes
	system time =       1.62 seconds =       0.03 minutes
	total time  =         57 seconds =       0.95 minutes

       N-Body: Complex Energy (fragments = (1,), basis = (1,): -2739.22662048782195)

   ==> N-Body: Now computing 2-body complexes <==


       N-Body: Computing complex (1/1) with fragments (1, 2) in the basis of fragments (1, 2).


*** tstart() called on login02
*** at Wed Jan  9 11:32:32 2019

   => Loading Basis Set <=

    Name: 3-21G
    Role: ORBITAL
    Keyword: BASIS
    atoms 1-2 entry KR         line   636 file /bigwork/nhcikrau/bin/psi4-dev-1350/share/psi4/basis/3-21g.gbs 


         ---------------------------------------------------------
                                   SCF
               by Justin Turney, Rob Parrish, Andy Simmonett
                          and Daniel G. A. Smith
                              RHF Reference
                        1 Threads,    500 MiB Core
         ---------------------------------------------------------

  ==> Geometry <==

    Molecular point group: c2v
    Full point group: C_inf_v

    Geometry (in Angstrom), charge = 0, multiplicity = 1:

       Center              X                  Y                   Z               Mass       
    ------------   -----------------  -----------------  -----------------  -----------------
         KR           0.000000000000     0.000000000000     0.000000000000    83.911497728200
         KR           3.000000000000     0.000000000000     0.000000000000    83.911497728200

  Running in c2v symmetry.

  Rotational constants: A = ************  B =      0.02232  C =      0.02232 [cm^-1]
  Rotational constants: A = ************  B =    669.19582  C =    669.19582 [MHz]
  Nuclear repulsion =  228.604555009440020

  Charge       = 0
  Multiplicity = 1
  Electrons    = 72
  Nalpha       = 36
  Nbeta        = 36

  ==> Algorithm <==

  SCF Algorithm Type is DF.
  DIIS enabled.
  MOM disabled.
  Fractional occupation disabled.
  Guess Type is SAD.
  Energy threshold   = 1.00e-08
  Density threshold  = 1.00e-08
  Integral threshold = 0.00e+00

  ==> Primary Basis <==

  -AO BASIS SET INFORMATION:
    Name                   = 3-21G
    Blend                  = 3-21G
    Total number of shells = 20
    Number of primitives   = 48
    Number of AO           = 46
    Number of SO           = 46
    Maximum AM             = 2
    Spherical Harmonics    = FALSE

  -Contraction Scheme:
    Atom   Type   All Primitives // Shells:
   ------ ------ --------------------------
       1    KR     12s 9p 3d // 5s 4p 1d 
       2    KR     12s 9p 3d // 5s 4p 1d 

   => Loading Basis Set <=

    Name: (3-21G AUX)
    Role: JKFIT
    Keyword: DF_BASIS_SCF
    atoms 1-2 entry KR         line  3258 file /bigwork/nhcikrau/bin/psi4-dev-1350/share/psi4/basis/def2-svp-jkfit.gbs 

  ==> Pre-Iterations <==

   -------------------------------------------------------
    Irrep   Nso     Nmo     Nalpha   Nbeta   Ndocc  Nsocc
   -------------------------------------------------------
     A1        24      24       0       0       0       0
     A2         2       2       0       0       0       0
     B1        10      10       0       0       0       0
     B2        10      10       0       0       0       0
   -------------------------------------------------------
    Total      46      46      36      36      36       0
   -------------------------------------------------------

  ==> Integral Setup <==

  DFHelper Memory: AOs need 0.014 GiB; user supplied 0.366 GiB. Using in-core AOs.

  ==> MemDFJK: Density-Fitted J/K Matrices <==

    J tasked:                   Yes
    K tasked:                   Yes
    wK tasked:                   No
    OpenMP threads:               1
    Memory [MiB]:               375
    Algorithm:                 Core
    Schwarz Cutoff:           1E-12
    Mask sparsity (%):      21.2665
    Fitting Condition:        1E-12

   => Auxiliary Basis Set <=

  -AO BASIS SET INFORMATION:
    Name                   = (3-21G AUX)
    Blend                  = DEF2-SVP-JKFIT
    Total number of shells = 120
    Number of primitives   = 134
    Number of AO           = 742
    Number of SO           = 742
    Maximum AM             = 5
    Spherical Harmonics    = FALSE

  -Contraction Scheme:
    Atom   Type   All Primitives // Shells:
   ------ ------ --------------------------
       1    KR     20s 14p 13d 10f 7g 3h // 17s 13p 12d 9f 6g 3h 
       2    KR     20s 14p 13d 10f 7g 3h // 17s 13p 12d 9f 6g 3h 

  Minimum eigenvalue in the overlap matrix is 3.7251071125E-03.
  Using Symmetric Orthogonalization.

  SCF Guess: Superposition of Atomic Densities via on-the-fly atomic UHF.

  ==> Iterations <==

                           Total Energy        Delta E     RMS |[F,P]|

   @DF-RHF iter   0: -5478.33029715888551   -5.47833e+03   0.00000e+00 
   @DF-RHF iter   1: -5478.37525455890409   -4.49574e-02   2.08174e-03 DIIS
   @DF-RHF iter   2: -5478.37670325522777   -1.44870e-03   3.29979e-04 DIIS
   @DF-RHF iter   3: -5478.37673355857351   -3.03033e-05   2.27888e-05 DIIS
   @DF-RHF iter   4: -5478.37673388252551   -3.23952e-07   3.93471e-06 DIIS
   @DF-RHF iter   5: -5478.37673389309657   -1.05711e-08   2.23340e-07 DIIS
   @DF-RHF iter   6: -5478.37673389312840   -3.18323e-11   1.21231e-08 DIIS
   @DF-RHF iter   7: -5478.37673389313204   -3.63798e-12   1.58975e-09 DIIS
  Energy converged.


  ==> Post-Iterations <==

    Orbital Energies [Eh]
    ---------------------

    Doubly Occupied:                                                      

       1A1  -516.887471     2A1  -516.887337     3A1   -69.561518  
       4A1   -69.561465     5A1   -62.543945     1B1   -62.543829  
       1B2   -62.543829     2B1   -62.543724     2B2   -62.543724  
       6A1   -62.543662     7A1   -10.778544     8A1   -10.778531  
       3B2    -8.224328     3B1    -8.224328     4B2    -8.224325  
       4B1    -8.224325     9A1    -8.224315    10A1    -8.224309  
       1A2    -3.708569    11A1    -3.708569     2A2    -3.708568  
      12A1    -3.708568     5B2    -3.708355     5B1    -3.708355  
      13A1    -3.708347     6B2    -3.708346     6B1    -3.708346  
      14A1    -3.708282    15A1    -1.138194    16A1    -1.117266  
      17A1    -0.548358     7B2    -0.509889     7B1    -0.509889  
       8B2    -0.491357     8B1    -0.491357    18A1    -0.451403  

    Virtual:                                                              

      19A1     0.822738    20A1     0.914771     9B2     0.921461  
       9B1     0.921461    21A1     0.965970    10B2     1.002515  
      10B1     1.002515    22A1     1.222779    23A1    32.042962  
      24A1    32.989256  

    Final Occupation by Irrep:
             A1    A2    B1    B2 
    DOCC [    18,    2,    8,    8 ]

  @DF-RHF Final Energy: -5478.37673389313204

   => Energetics <=

    Nuclear Repulsion Energy =            228.6045550094400198
    One-Electron Energy =               -8091.1515310862960177
    Two-Electron Energy =                2384.1702421837239854
    Total Energy =                      -5478.3767338931320410

Computation Completed


Properties will be evaluated at   0.000000,   0.000000,   0.000000 [a0]

Properties computed using the SCF density matrix

  Nuclear Dipole Moment: [e a0]
     X:   204.0904      Y:     0.0000      Z:     0.0000

  Electronic Dipole Moment: [e a0]
     X:  -204.0904      Y:     0.0000      Z:     0.0000

  Dipole Moment: [e a0]
     X:     0.0000      Y:     0.0000      Z:     0.0000     Total:     0.0000

  Dipole Moment: [D]
     X:     0.0000      Y:     0.0000      Z:     0.0000     Total:     0.0000


*** tstop() called on login02 at Wed Jan  9 11:32:33 2019
Module time:
	user time   =       1.51 seconds =       0.03 minutes
	system time =       0.06 seconds =       0.00 minutes
	total time  =          1 seconds =       0.02 minutes
Total time:
	user time   =      54.95 seconds =       0.92 minutes
	system time =       1.68 seconds =       0.03 minutes
	total time  =         58 seconds =       0.97 minutes

*** tstart() called on login02
*** at Wed Jan  9 11:32:33 2019


  //>>>>>>>>>>>>>>>>>>>>>>>>>>>>>>>>>>>//
  //               DFMP2               //
  //<<<<<<<<<<<<<<<<<<<<<<<<<<<<<<<<<<<//

   => Loading Basis Set <=

    Name: (3-21G AUX)
    Role: RIFIT
    Keyword: DF_BASIS_MP2
    atoms 1-2 entry KR         line  3318 file /bigwork/nhcikrau/bin/psi4-dev-1350/share/psi4/basis/def2-qzvpp-ri.gbs 

	 --------------------------------------------------------
	                          DF-MP2                         
	      2nd-Order Density-Fitted Moller-Plesset Theory     
	              RMP2 Wavefunction,   1 Threads             
	                                                         
	        Rob Parrish, Justin Turney, Andy Simmonett,      
	           Ed Hohenstein, and C. David Sherrill          
	 --------------------------------------------------------

   => Auxiliary Basis Set <=

  -AO BASIS SET INFORMATION:
    Name                   = (3-21G AUX)
    Blend                  = DEF2-QZVPP-RI
    Total number of shells = 116
    Number of primitives   = 116
    Number of AO           = 886
    Number of SO           = 596
    Maximum AM             = 6
    Spherical Harmonics    = TRUE

  -Contraction Scheme:
    Atom   Type   All Primitives // Shells:
   ------ ------ --------------------------
       1    KR     13s 12p 11d 9f 7g 5h 1i // 13s 12p 11d 9f 7g 5h 1i 
       2    KR     13s 12p 11d 9f 7g 5h 1i // 13s 12p 11d 9f 7g 5h 1i 

	 --------------------------------------------------------
	                 NBF =    46, NAUX =   596
	 --------------------------------------------------------
	   CLASS    FOCC     OCC    AOCC    AVIR     VIR    FVIR
	   PAIRS       2      36      34      10      10       0
	 --------------------------------------------------------

	-----------------------------------------------------------
	 ==================> DF-MP2 Energies <==================== 
	-----------------------------------------------------------
	 Reference Energy          =   -5478.3767338931320410 [Eh]
	 Singles Energy            =      -0.0000000000000000 [Eh]
	 Same-Spin Energy          =      -0.0133604081368191 [Eh]
	 Opposite-Spin Energy      =      -0.0456112066227385 [Eh]
	 Correlation Energy        =      -0.0589716147595576 [Eh]
	 Total Energy              =   -5478.4357055078917256 [Eh]
	-----------------------------------------------------------
	 ================> DF-SCS-MP2 Energies <================== 
	-----------------------------------------------------------
	 SCS Same-Spin Scale       =       0.3333333333333333 [-]
	 SCS Opposite-Spin Scale   =       1.2000000000000000 [-]
	 SCS Same-Spin Energy      =      -0.0044534693789397 [Eh]
	 SCS Opposite-Spin Energy  =      -0.0547334479472862 [Eh]
	 SCS Correlation Energy    =      -0.0591869173262259 [Eh]
	 SCS Total Energy          =   -5478.4359208104579011 [Eh]
	-----------------------------------------------------------


*** tstop() called on login02 at Wed Jan  9 11:32:34 2019
Module time:
	user time   =       0.67 seconds =       0.01 minutes
	system time =       0.01 seconds =       0.00 minutes
	total time  =          1 seconds =       0.02 minutes
Total time:
	user time   =      55.62 seconds =       0.93 minutes
	system time =       1.69 seconds =       0.03 minutes
	total time  =         59 seconds =       0.98 minutes

       N-Body: Complex Energy (fragments = (1, 2), basis = (1, 2): -5478.43570550789173)

   ==> N-Body: Non-Counterpoise Corrected (NoCP) energies <==

   n-Body     Total Energy [Eh]       I.E. [kcal/mol]      Delta [kcal/mol]
        1    -5478.453240982150        0.000000000000        0.000000000000
        2    -5478.435705507892       11.003676223941       11.003676223941

   => Loading Basis Set <=

    Name: DEF2-SVP
    Role: ORBITAL
    Keyword: BASIS
    atoms 1-2 entry KR         line  1128 file /bigwork/nhcikrau/bin/psi4-dev-1350/share/psi4/basis/def2-svp.gbs 

	Kr--Kr nocp MP2 interaction energy, freeze_core -3................PASSED

    Psi4 stopped on: Wednesday, 09 January 2019 11:32AM
    Psi4 wall time for execution: 0:00:59.60

*** Psi4 exiting successfully. Buy a developer a beer!
