
    -----------------------------------------------------------------------
          Psi4: An Open-Source Ab Initio Electronic Structure Package
                               Psi4 1.1rc3.dev5 

                         Git: Rev {master} 3fbd859


    R. M. Parrish, L. A. Burns, D. G. A. Smith, A. C. Simmonett,
    A. E. DePrince III, E. G. Hohenstein, U. Bozkaya, A. Yu. Sokolov,
    R. Di Remigio, R. M. Richard, J. F. Gonthier, A. M. James,
    H. R. McAlexander, A. Kumar, M. Saitow, X. Wang, B. P. Pritchard,
    P. Verma, H. F. Schaefer III, K. Patkowski, R. A. King, E. F. Valeev,
    F. A. Evangelista, J. M. Turney, T. D. Crawford, and C. D. Sherrill,
    J. Chem. Theory Comput. in press (2017).
    (doi: 10.1021/acs.jctc.7b00174)

    -----------------------------------------------------------------------


    Psi4 started on: Monday, 15 May 2017 04:00PM

    Process ID:  24596
    PSIDATADIR: /home/psilocaluser/gits/hrw-direct/objdir4/stage/usr/local/psi4/share/psi4
    Memory:     500.0 MiB
    Threads:    1
    
  ==> Input File <==

--------------------------------------------------------------------------
#! OMP2.5 cc-pVDZ gradient for the NO radical

ref_vals = [                                                       #TEST
             [ 0.000000000000,  0.000000000000,  0.011614594883],  #TEST
             [ 0.000000000000,  0.000000000000, -0.011614594883]   #TEST
           ]                                                       #TEST
ref = psi4.Matrix(2, 3)                                          #TEST
ref.set(ref_vals)

molecule no {
0 2
n
o 1 1.158
}

set {
  basis cc-pvdz
  reference rohf
  guess gwh
}

grad = gradient('omp2.5')

compare_matrices(ref, grad, 5, "Analytic gradients")  #TEST

--------------------------------------------------------------------------
gradient() will perform analytic gradient computation.

*** tstart() called on psinet
*** at Mon May 15 16:00:27 2017

   => Loading Basis Set <=

    Name: CC-PVDZ
    Role: ORBITAL
    Keyword: BASIS
    atoms 1 entry N          line   160 file /home/psilocaluser/gits/hrw-direct/objdir4/stage/usr/local/psi4/share/psi4/basis/cc-pvdz.gbs 
    atoms 2 entry O          line   190 file /home/psilocaluser/gits/hrw-direct/objdir4/stage/usr/local/psi4/share/psi4/basis/cc-pvdz.gbs 


         ---------------------------------------------------------
                                   SCF
            by Justin Turney, Rob Parrish, and Andy Simmonett
                             ROHF Reference
                        1 Threads,    500 MiB Core
         ---------------------------------------------------------

  ==> Geometry <==

    Molecular point group: c2v
    Full point group: C_inf_v

    Geometry (in Angstrom), charge = 0, multiplicity = 2:

       Center              X                  Y                   Z               Mass       
    ------------   -----------------  -----------------  -----------------  -----------------
           N          0.000000000000     0.000000000000    -0.617445101450    14.003074004780
           O          0.000000000000     0.000000000000     0.540554898550    15.994914619560

  Running in c2v symmetry.

  Rotational constants: A = ************  B =      1.68371  C =      1.68371 [cm^-1]
  Rotational constants: A = ************  B =  50476.22913  C =  50476.22913 [MHz]
  Nuclear repulsion =   25.590607669291881

  Charge       = 0
  Multiplicity = 2
  Electrons    = 15
  Nalpha       = 8
  Nbeta        = 7

  ==> Algorithm <==

  SCF Algorithm Type is PK.
  DIIS enabled.
  MOM disabled.
  Fractional occupation disabled.
  Guess Type is GWH.
  Energy threshold   = 1.00e-10
  Density threshold  = 1.00e-10
  Integral threshold = 0.00e+00

  ==> Primary Basis <==

  Basis Set: CC-PVDZ
    Blend: CC-PVDZ
    Number of shells: 12
    Number of basis function: 28
    Number of Cartesian functions: 30
    Spherical Harmonics?: true
    Max angular momentum: 2

  ==> Pre-Iterations <==

   -------------------------------------------------------
    Irrep   Nso     Nmo     Nalpha   Nbeta   Ndocc  Nsocc
   -------------------------------------------------------
     A1        14      14       0       0       0       0
     A2         2       2       0       0       0       0
     B1         6       6       0       0       0       0
     B2         6       6       0       0       0       0
   -------------------------------------------------------
    Total      28      28       8       7       7       1
   -------------------------------------------------------

  ==> Integral Setup <==

  Using in-core PK algorithm.
   Calculation information:
      Number of atoms:                   2
      Number of AO shells:              12
      Number of primitives:             44
      Number of atomic orbitals:        30
      Number of basis functions:        28

      Integral cutoff                 1.00e-12
      Number of threads:                 1

  Performing in-core PK
  Using 165242 doubles for integral storage.
  We computed 3081 shell quartets total.
  Whereas there are 3081 unique shell quartets.
  ==> DiskJK: Disk-Based J/K Matrices <==

    J tasked:                  Yes
    K tasked:                  Yes
    wK tasked:                  No
    Memory (MB):               375
    Schwarz Cutoff:          1E-12

    OpenMP threads:              1
  Minimum eigenvalue in the overlap matrix is 1.4652171585E-02.
  Using Symmetric Orthogonalization.

  SCF Guess: Generalized Wolfsberg-Helmholtz.

  ==> Iterations <==

                        Total Energy        Delta E     RMS |[F,P]|

   @ROHF iter   1:  -128.32791740958137   -1.28328e+02   1.09483e-01 
   @ROHF iter   2:  -128.64055693489357   -3.12640e-01   6.03404e-02 DIIS
   @ROHF iter   3:  -129.09116608637936   -4.50609e-01   3.05391e-02 DIIS
   @ROHF iter   4:  -129.25099849300611   -1.59832e-01   1.34456e-03 DIIS
   @ROHF iter   5:  -129.25183415539300   -8.35662e-04   6.56094e-04 DIIS
   @ROHF iter   6:  -129.25215248361013   -3.18328e-04   4.11719e-04 DIIS
   @ROHF iter   7:  -129.25236750028071   -2.15017e-04   2.21783e-04 DIIS
   @ROHF iter   8:  -129.25245425748065   -8.67572e-05   5.35911e-05 DIIS
   @ROHF iter   9:  -129.25245617071008   -1.91323e-06   1.89259e-05 DIIS
   @ROHF iter  10:  -129.25245636977306   -1.99063e-07   3.32687e-06 DIIS
   @ROHF iter  11:  -129.25245637501078   -5.23772e-09   3.17117e-07 DIIS
   @ROHF iter  12:  -129.25245637508266   -7.18785e-11   4.17000e-08 DIIS
   @ROHF iter  13:  -129.25245637508340   -7.38964e-13   6.67580e-09 DIIS
   @ROHF iter  14:  -129.25245637508331    8.52651e-14   8.68075e-10 DIIS
   @ROHF iter  15:  -129.25245637508334   -2.84217e-14   1.63465e-10 DIIS
   @ROHF iter  16:  -129.25245637508345   -1.13687e-13   4.13162e-11 DIIS

  ==> Post-Iterations <==

    Orbital Energies (a.u.)
    -----------------------

    Doubly Occupied:                                                      

       1A1   -20.693294     2A1   -15.725093     3A1    -1.589223  
       4A1    -0.922952     1B2    -0.685435     5A1    -0.672120  
       1B1    -0.641370  

    Singly Occupied:                                                      

       2B2    -0.118726  

    Virtual:                                                              

       2B1     0.105869     6A1     0.517631     3B2     0.915288  
       3B1     0.931314     7A1     0.961533     8A1     1.015422  
       9A1     1.123613     4B2     1.200255     4B1     1.215623  
      10A1     1.940513     1A2     1.940650     5B1     1.971535  
       5B2     1.973964    11A1     1.988534    12A1     2.825490  
       2A2     2.924767    13A1     2.924781     6B1     3.497321  
       6B2     3.507593    14A1     3.877003  

    Final Occupation by Irrep:
             A1    A2    B1    B2 
    DOCC [     5,    0,    1,    1 ]
    SOCC [     0,    0,    0,    1 ]

  Energy converged.

  @ROHF Final Energy:  -129.25245637508345

   => Energetics <=

    Nuclear Repulsion Energy =             25.5906076692918809
    One-Electron Energy =                -227.4083458247227441
    Two-Electron Energy =                  72.5652817803474193
    DFT Exchange-Correlation Energy =       0.0000000000000000
    Empirical Dispersion Energy =           0.0000000000000000
    PCM Polarization Energy =               0.0000000000000000
    EFP Energy =                            0.0000000000000000
    Total Energy =                       -129.2524563750834545



Properties will be evaluated at   0.000000,   0.000000,   0.000000 Bohr

Properties computed using the SCF density matrix

  Nuclear Dipole Moment: (a.u.)
     X:     0.0000      Y:     0.0000      Z:     0.0044

  Electronic Dipole Moment: (a.u.)
     X:     0.0000      Y:     0.0000      Z:    -0.1531

  Dipole Moment: (a.u.)
     X:     0.0000      Y:     0.0000      Z:    -0.1488     Total:     0.1488

  Dipole Moment: (Debye)
     X:     0.0000      Y:     0.0000      Z:    -0.3781     Total:     0.3781


*** tstop() called on psinet at Mon May 15 16:00:27 2017
Module time:
	user time   =       0.22 seconds =       0.00 minutes
	system time =       0.02 seconds =       0.00 minutes
	total time  =          0 seconds =       0.00 minutes
Total time:
	user time   =       0.22 seconds =       0.00 minutes
	system time =       0.02 seconds =       0.00 minutes
	total time  =          0 seconds =       0.00 minutes
 MINTS: Wrapper to libmints.
   by Justin Turney

   Calculation information:
      Number of threads:                 1
      Number of atoms:                   2
      Number of AO shells:              12
      Number of SO shells:              12
      Number of primitives:             44
      Number of atomic orbitals:        30
      Number of basis functions:        28

      Number of irreps:                  4
      Integral cutoff                 0.00e+00
      Number of functions per irrep: [  14    2    6    6 ]

 OEINTS: Overlap, kinetic, potential, dipole, and quadrupole integrals
         stored in file 35.

      Computing two-electron integrals...done
      Computed 21245 non-zero two-electron integrals.
        Stored in file 33.


*** tstart() called on psinet
*** at Mon May 15 16:00:27 2017



  Options:
  ----------------------------------------------------------------------------
  ACTIVE                      => [  ]             
  BASIS_RELATIVISTIC          => (empty)          
  BENCH                       => 0                
  CACHELEVEL                  => 2                
  CCL_ENERGY                  => FALSE            
  CC_DIIS_MAX_VECS            => 6                
  CC_DIIS_MIN_VECS            => 2                
  CC_MAXITER                  => 50               
  CC_TYPE                     => CONV             
  CEPA_OS_SCALE               => 1.27             
  CEPA_SOS_SCALE              => 1.3              
  CEPA_SS_SCALE               => 1.13             
  CEPA_TYPE                   => CEPA0            
  CI_TYPE                     => CONV             
  CUBEPROP_BASIS_FUNCTIONS    => [  ]             
  CUBEPROP_FILEPATH           => .                
  CUBEPROP_ORBITALS           => [  ]             
  CUBEPROP_TASKS              => [  ]             
  CUBIC_BASIS_TOLERANCE       => 1e-12            
  CUBIC_BLOCK_MAX_POINTS      => 1000             
  CUBIC_GRID_OVERAGE          => [  ]             
  CUBIC_GRID_SPACING          => [  ]             
  CUTOFF                      => 14               
  DEBUG                       => 0                
  DERTYPE                     => FIRST           !
  DF_BASIS_CC                 => (empty)          
  DIE_IF_NOT_CONVERGED        => TRUE             
  DKH_ORDER                   => 2                
  DOCC                        => [  ]             
  DO_DIIS                     => TRUE             
  DO_LEVEL_SHIFT              => TRUE             
  DO_SCS                      => FALSE           !
  DO_SOS                      => FALSE           !
  E3_SCALE                    => 0.25             
  EA_POLES                    => FALSE            
  EKT_EA                      => FALSE            
  EKT_IP                      => FALSE            
  EP_EA_POLES                 => FALSE            
  EP_IP_POLES                 => FALSE            
  EP_MAXITER                  => 30               
  EXTERNAL_POTENTIAL_SYMMETRY => FALSE            
  E_CONVERGENCE               => 1e-08           !
  FREEZE_CORE                 => FALSE            
  FROZEN_DOCC                 => [  ]             
  FROZEN_UOCC                 => [  ]             
  INTEGRAL_PACKAGE            => LIBINT           
  IP_POLES                    => FALSE            
  LEVEL_SHIFT                 => 0.02             
  LINEQ_SOLVER                => CDGESV           
  LITERAL_CFOUR               => (empty)          
  MAT_NUM_COLUMN_PRINT        => 5                
  MAX_MOGRAD_CONVERGENCE      => 0.001            
  MOGRAD_DAMPING              => 1                
  MOLDEN_WITH_VIRTUAL         => TRUE             
  MO_DIIS_NUM_VECS            => 6                
  MO_MAXITER                  => 50               
  MO_READ                     => FALSE            
  MO_STEP_MAX                 => 0.5              
  MO_WRITE                    => FALSE            
  MP2_OS_SCALE                => 1.2              
  MP2_SOS_SCALE               => 1.3              
  MP2_SOS_SCALE2              => 1.2              
  MP2_SS_SCALE                => 0.333333         
  MP2_TYPE                    => DF               
  MP_TYPE                     => CONV             
  NAT_ORBS                    => FALSE            
  NUM_FROZEN_DOCC             => 0                
  NUM_FROZEN_UOCC             => 0                
  OCC_ORBS_PRINT              => FALSE            
  OEPROP                      => FALSE            
  OPT_METHOD                  => ORB_RESP         
  ORB_OPT                     => TRUE            !
  ORB_RESP_SOLVER             => PCG              
  ORTH_TYPE                   => MGS              
  PCG_BETA_TYPE               => FLETCHER_REEVES  
  PCG_CONVERGENCE             => 1e-06            
  PCG_MAXITER                 => 30               
  PCM                         => FALSE            
  PCM_CC_TYPE                 => PTE              
  PCM_SCF_TYPE                => TOTAL            
  PRINT                       => 1                
  PRINT_NOONS                 => 3                
  PROPERTIES                  => [  ]             
  PROPERTIES_ORIGIN           => [  ]             
  PUREAM                      => TRUE             
  QC_MODULE                   => (empty)          
  RAS1                        => [  ]             
  RAS2                        => [  ]             
  RAS3                        => [  ]             
  RAS4                        => [  ]             
  RELATIVISTIC                => NO               
  RELAXED                     => TRUE             
  RESTRICTED_DOCC             => [  ]             
  RESTRICTED_UOCC             => [  ]             
  RMS_MOGRAD_CONVERGENCE      => 1e-06            
  R_CONVERGENCE               => 1e-05            
  SCS_TYPE                    => SCS              
  SOCC                        => [  ]             
  SOS_TYPE                    => SOS              
  SYMMETRIZE                  => TRUE             
  TPDM_ABCD_TYPE              => DIRECT           
  UNITS                       => ANGSTROMS        
  WFN                         => SCF              
  WFN_TYPE                    => OMP2.5          !
  WRITER_FILE_LABEL           => (empty)          


 ============================================================================== 
 ============================================================================== 
 ============================================================================== 

                       OMP2.5 (OO-MP2.5)   
              Program Written by Ugur Bozkaya,
              Latest Revision June 25, 2014.

 ============================================================================== 
 ============================================================================== 
 ============================================================================== 

	RMS orbital gradient is changed to :     1.00e-06
	MAX orbital gradient is changed to :     1.00e-04
	MO spaces per irreps... 

	IRREP   FC   AOCC  BOCC  AVIR    BVIR  FV 
	==========================================
	  A1     0     5     5     9      9     0
	  A2     0     0     0     2      2     0
	  B1     0     1     1     5      5     0
	  B2     0     2     1     4      5     0
	==========================================

	Computing MP2 energy using SCF MOs (Canonical MP2)... 
	============================================================================== 
	Nuclear Repulsion Energy (a.u.)    :    25.59060766929188
	SCF Energy (a.u.)                  :  -129.25245637508345
	REF Energy (a.u.)                  :  -129.25245637508340
	Alpha-Alpha Contribution (a.u.)    :    -0.04371430345557
	Alpha-Beta Contribution (a.u.)     :    -0.23974925386267
	Beta-Beta Contribution (a.u.)      :    -0.04756821349507
	Scaled_SS Correlation Energy (a.u.):    -0.03042750565021
	Scaled_OS Correlation Energy (a.u.):    -0.28769910463520
	SCS-MP2 Total Energy (a.u.)        :  -129.57058298536882
	SOS-MP2 Total Energy (a.u.)        :  -129.56413040510486
	SCSN-MP2 Total Energy (a.u.)       :  -129.41311360491653
	SCS-MP2-VDW Total Energy (a.u.)    :  -129.60497667850294
	SOS-PI-MP2 Total Energy (a.u.)     :  -129.58810533049115
	MP2 Correlation Energy (a.u.)      :    -0.33103177081331
	MP2 Total Energy (a.u.)            :  -129.58348814589669
	============================================================================== 


	Computing MP2.5 energy using SCF MOs (Canonical MP2.5)... 
	============================================================================== 
	Nuclear Repulsion Energy (a.u.)    :    25.59060766929188
	SCF Energy (a.u.)                  :  -129.25245637508345
	REF Energy (a.u.)                  :  -129.25245637508340
	Alpha-Alpha Contribution (a.u.)    :    -0.04102194878195
	Alpha-Beta Contribution (a.u.)     :    -0.24333834612470
	Beta-Beta Contribution (a.u.)      :    -0.04395909722309
	0.5 Energy Correction (a.u.)       :     0.00271237868355
	MP2.5 Correlation Energy (a.u.)    :    -0.32831939212974
	MP2.5 Total Energy (a.u.)          :  -129.58077576721314
	============================================================================== 


	Number of alpha independent-pairs: 58
	Number of beta independent-pairs : 55

 ============================================================================== 
 ================ Performing OMP2.5 iterations... ============================= 
 ============================================================================== 
	            Minimizing MP2.5-L Functional 
	            --------------------------- 
 Iter       E_total           DE           RMS MO Grad      MAX MO Grad      RMS T2    
 ----    ---------------    ----------     -----------      -----------     ---------- 
   1     -129.5875501674     -6.77e-03       1.15e-03         2.38e-02        5.16e-06 
   2     -129.5883982420     -8.48e-04       7.42e-04         2.60e-02        4.93e-06 
   3     -129.5885660198     -1.68e-04       7.12e-04         1.66e-02        4.98e-06 
   4     -129.5886212826     -5.53e-05       6.79e-04         1.86e-02        4.91e-06 
   5     -129.5886289723     -7.69e-06       6.58e-04         1.62e-02        4.97e-06 
   6     -129.5888700935     -2.41e-04       4.89e-05         1.29e-03        4.93e-06 
   7     -129.5888751939     -5.10e-06       2.11e-05         5.69e-04        4.94e-06 
   8     -129.5888761214     -9.28e-07       1.06e-05         2.84e-04        4.94e-06 
   9     -129.5888763508     -2.29e-07       7.81e-06         2.03e-04        4.94e-06 
  10     -129.5888760026      3.48e-07       2.46e-05         7.16e-04        4.94e-06 
  11     -129.5888759503      5.22e-08       2.53e-05         7.40e-04        4.94e-06 
  12     -129.5888758559      9.44e-08       2.79e-05         8.13e-04        4.94e-06 
  13     -129.5888758611     -5.21e-09       2.77e-05         8.02e-04        4.94e-06 
  14     -129.5888757884      7.27e-08       3.01e-05         8.49e-04        4.94e-06 
  15     -129.5888758617     -7.33e-08       2.83e-05         8.02e-04        4.94e-06 
  16     -129.5888764176     -5.56e-07       1.68e-05         3.72e-04        4.94e-06 
  17     -129.5888765422     -1.25e-07       1.39e-05         3.01e-04        4.94e-06 
  18     -129.5888765394      2.80e-09       1.31e-05         2.83e-04        4.94e-06 
  19     -129.5888765395     -9.89e-11       1.26e-05         2.75e-04        4.94e-06 
  20     -129.5888765407     -1.21e-09       1.22e-05         2.69e-04        4.94e-06 
  21     -129.5888765485     -7.78e-09       9.10e-06         2.02e-04        4.94e-06 
  22     -129.5888765110      3.75e-08       2.89e-06         5.96e-05        4.94e-06 
  23     -129.5888765022      8.75e-09       2.01e-06         4.69e-05        4.94e-06 
  24     -129.5888765083     -6.13e-09       1.58e-06         4.31e-05        4.94e-06 
  25     -129.5888765124     -4.09e-09       1.57e-06         4.31e-05        4.94e-06 
  26     -129.5888765106      1.79e-09       2.00e-06         5.12e-05        4.94e-06 
  27     -129.5888765150     -4.38e-09       1.37e-06         2.90e-05        4.94e-06 
  28     -129.5888765220     -7.02e-09       4.47e-07         1.11e-05        4.94e-06 

 ============================================================================== 
 ======================== OMP2.5 ITERATIONS ARE CONVERGED ===================== 
 ============================================================================== 

	Computing MP2 energy using optimized MOs... 
	============================================================================== 
	Nuclear Repulsion Energy (a.u.)    :    25.59060766929188
	SCF Energy (a.u.)                  :  -129.25245637508345
	REF Energy (a.u.)                  :  -129.25287866362143
	Alpha-Alpha Contribution (a.u.)    :    -0.04471426790103
	Alpha-Beta Contribution (a.u.)     :    -0.24619747196553
	Beta-Beta Contribution (a.u.)      :    -0.04963900408544
	Scaled_SS Correlation Energy (a.u.):    -0.03145109066216
	Scaled_OS Correlation Energy (a.u.):    -0.29543696635863
	SCS-MP2 Total Energy (a.u.)        :  -129.57976672064223
	SOS-MP2 Total Energy (a.u.)        :  -129.57293537717661
	SCSN-MP2 Total Energy (a.u.)       :  -129.41894042231763
	SCS-MP2-VDW Total Energy (a.u.)    :  -129.61518806373056
	SOS-PI-MP2 Total Energy (a.u.)     :  -129.59755512437317
	MP2 Correlation Energy (a.u.)      :    -0.33599785842046
	MP2 Total Energy (a.u.)            :  -129.59342940757344
	============================================================================== 


	Computing MP2.5 energy using optimized MOs... 
	============================================================================== 
	Nuclear Repulsion Energy (a.u.)    :    25.59060766929188
	SCF Energy (a.u.)                  :  -129.25245637508345
	REF Energy (a.u.)                  :  -129.25287866362143
	Alpha-Alpha Contribution (a.u.)    :    -0.04167333436030
	Alpha-Beta Contribution (a.u.)     :    -0.24881267965209
	Beta-Beta Contribution (a.u.)      :    -0.04551184440807
	0.5 Energy Correction (a.u.)       :     0.00455288553155
	MP2.5 Correlation Energy (a.u.)    :    -0.33599785842046
	MP2.5 Total Energy (a.u.)          :  -129.58887652204189
	============================================================================== 


	============================================================================== 
	================ OMP2.5 FINAL RESULTS ======================================== 
	============================================================================== 
	Nuclear Repulsion Energy (a.u.)    :    25.59060766929188
	SCF Energy (a.u.)                  :  -129.25245637508345
	REF Energy (a.u.)                  :  -129.25287866362143
	OMP2.5 Correlation Energy (a.u.)   :    -0.33642014695843
	Eomp2.5 - Eref (a.u.)              :    -0.33599785842046
	OMP2.5 Total Energy (a.u.)         :  -129.58887652204189
	============================================================================== 

	Analytic gradient computation is starting...
	Computing G_abcd...
	Computing diagonal blocks of GFM...
	Writing particle density matrices and GFM to disk...
	Necessary information has been sent to DERIV, which will take care of the rest.

*** tstop() called on psinet at Mon May 15 16:00:32 2017
Module time:
	user time   =       2.66 seconds =       0.04 minutes
	system time =       1.92 seconds =       0.03 minutes
	total time  =          5 seconds =       0.08 minutes
Total time:
	user time   =       2.99 seconds =       0.05 minutes
	system time =       1.95 seconds =       0.03 minutes
	total time  =          5 seconds =       0.08 minutes
  Cartesian Displacement SALCs
  By SALC:
  Number of SALCs: 2, nirreps: 1
  Project out translations: False
  Project out rotations: False
	irrep = 0, ncomponent = 1
		0: atom 0, direction z, coef 1.000000
	irrep = 0, ncomponent = 1
		0: atom 1, direction z, coef 1.000000

  By Atomic Center:
  Number of atomic centers: 2
   Atomic Center 0:
	x component, size = 0
	y component, size = 0
	z component, size = 1
		0: salc 0, irrep 0, coef 1.000000
   Atomic Center 1:
	x component, size = 0
	y component, size = 0
	z component, size = 1
		0: salc 1, irrep 0, coef 1.000000

    Molecular point group: c2v
    Full point group: C_inf_v

    Geometry (in Bohr), charge = 0, multiplicity = 2:

       Center              X                  Y                   Z       
    ------------   -----------------  -----------------  -----------------
           N          0.000000000000     0.000000000000    -1.166802143832
           O          0.000000000000     0.000000000000     1.021500718049

	Presorting MO-basis TPDMs.
	Sorting File: MO TPDM (AA|AA) nbuckets = 1
	Sorting File: MO TPDM (AA|aa) nbuckets = 1
	Sorting File: MO TPDM (aa|aa) nbuckets = 1
	Starting first half-transformation.
	Sorting half-transformed TPDMs.
	First half integral transformation complete.


  -Nuclear Repulsion Energy 1st Derivatives:
     Atom            X                  Y                   Z
    ------   -----------------  -----------------  -----------------
       1        0.000000000000     0.000000000000    11.694271444350
       2        0.000000000000     0.000000000000   -11.694271444350


  -One-electron contribution to gradient:
     Atom            X                  Y                   Z
    ------   -----------------  -----------------  -----------------
       1        0.000000000000     0.000000000000   -26.311057927760
       2        0.000000000000     0.000000000000    26.311057927760


  -Lagrangian contribution to gradient:
     Atom            X                  Y                   Z
    ------   -----------------  -----------------  -----------------
       1        0.000000000000     0.000000000000     0.799431629449
       2        0.000000000000     0.000000000000    -0.799431629449


  -Two-electron contribution to gradient:
     Atom            X                  Y                   Z
    ------   -----------------  -----------------  -----------------
       1        0.000000000000     0.000000000000    13.828969448844
       2        0.000000000000     0.000000000000   -13.828969448844


  -Total gradient:
     Atom            X                  Y                   Z
    ------   -----------------  -----------------  -----------------
       1        0.000000000000     0.000000000000     0.011614594884
       2        0.000000000000     0.000000000000    -0.011614594884

	Analytic gradients................................................PASSED

*** Psi4 exiting successfully. Buy a developer a beer!
