
    -----------------------------------------------------------------------
          Psi4: An Open-Source Ab Initio Electronic Structure Package
                               Psi4 (inplace)

                         Git: Rev (inplace)


    J. M. Turney, A. C. Simmonett, R. M. Parrish, E. G. Hohenstein,
    F. A. Evangelista, J. T. Fermann, B. J. Mintz, L. A. Burns, J. J. Wilke,
    M. L. Abrams, N. J. Russ, M. L. Leininger, C. L. Janssen, E. T. Seidl,
    W. D. Allen, H. F. Schaefer, R. A. King, E. F. Valeev, C. D. Sherrill,
    and T. D. Crawford, WIREs Comput. Mol. Sci. 2, 556-565 (2012)
    (doi: 10.1002/wcms.93)


                         Additional Contributions by
    A. E. DePrince, U. Bozkaya, A. Yu. Sokolov, D. G. A. Smith, R. Di Remigio,
    R. M. Richard, J. F. Gonthier, H. R. McAlexander, M. Saitow, and
    B. P. Pritchard
    -----------------------------------------------------------------------


    Psi4 started on: Friday, 20 January 2017 04:51PM

    Process ID:  85943
    PSIDATADIR: /Users/daniel/Gits/psixc/psi4/share/psi4
    Memory:     500.0 MiB
    Threads:    1
    
  ==> Input File <==

--------------------------------------------------------------------------
#! Internal match to psi4, test to match to literature values in litref.in/litref.out

molecule water {
0 1
N  -1.578718  -0.046611   0.000000
H  -2.158621   0.136396  -0.809565
H  -2.158621   0.136396   0.809565
H  -0.849471   0.658193   0.000000
--
0 1
N   1.578718   0.046611   0.000000
H   2.158621  -0.136396  -0.809565
H   0.849471  -0.658193   0.000000
H   2.158621  -0.136396   0.809565
}
set basis aug-cc-pvdz

set reference rks
set dft_radial_points 50
set dft_spherical_points 302

e_dhdft = energy('DSD-PBEP86', bsse_type="nocp")
compare_values(e_dhdft * 627.509,  -3.2076, 2, "DSD-PBE-PBE86: Ammonia")  #TEST

--------------------------------------------------------------------------


   ===> N-Body Interaction Abacus <===
        BSSE Treatment:                     nocp
        Number of 1-body computations:     2
        Number of 2-body computations:     1

   ==> N-Body: Now computing 1-body complexes <==


       N-Body: Computing complex (1/2) with fragments (2,) in the basis of fragments (2,).


*** tstart() called on ds23.sherrill.chemistry.gatech.edu
*** at Fri Jan 20 16:51:53 2017


         ---------------------------------------------------------
                                   SCF
            by Justin Turney, Rob Parrish, Andy Simmonett
                             and Daniel Smith
                              RKS Reference
                        1 Threads,    524 MiB Core
         ---------------------------------------------------------

  ==> Geometry <==

    Molecular point group: cs
    Full point group: Cs

    Geometry (in Angstrom), charge = 0, multiplicity = 1:

       Center              X                  Y                   Z               Mass       
    ------------   -----------------  -----------------  -----------------  -----------------
           N         -0.025485383762     0.063383201070     0.000000000000    14.003074004780
           H          0.554417616238    -0.119623798930    -0.809565000000     1.007825032070
           H         -0.754732383762    -0.641420798930     0.000000000000     1.007825032070
           H          0.554417616238    -0.119623798930     0.809565000000     1.007825032070

  Running in cs symmetry.

  Rotational constants: A =      9.98044  B =      9.90180  C =      6.34817 [cm^-1]
  Rotational constants: A = 299206.07370  B = 296848.42611  C = 190313.28388 [MHz]
  Nuclear repulsion =   11.947431723898674

  Charge       = 0
  Multiplicity = 1
  Electrons    = 10
  Nalpha       = 5
  Nbeta        = 5

  ==> Algorithm <==

  SCF Algorithm Type is DF.
  DIIS enabled.
  MOM disabled.
  Fractional occupation disabled.
  Guess Type is SAD.
  Energy threshold   = 1.00e-06
  Density threshold  = 1.00e-06
  Integral threshold = 0.00e+00

  ==> Primary Basis <==

  Basis Set: file /Users/daniel/Gits/psixc/psi4/share/psi4/basis/aug-cc-pvdz.gbs
    Number of shells: 24
    Number of basis function: 50
    Number of Cartesian functions: 52
    Spherical Harmonics?: true
    Max angular momentum: 2

  ==> DFT Potential <==

   => Composite Functional: DSD-PBEP86 <= 

    DSD-PBEP86 Dispersion-corrected SCS Double Hybrid XC Functional (opt. for -D2)

    S. Kozuch, Phys. Chem. Chem. Phys., 13, 20104, 2011


    Deriv               =              1
    GGA                 =           TRUE
    Meta                =          FALSE

    Exchange Hybrid     =           TRUE
    Exchange Alpha      =       0.680000

    Exchange LRC        =          FALSE
    Exchange Beta       =       0.000000
    Exchange Omega      =       0.000000

    MP2 SCS Hybrid      =           TRUE
    MP2 OS Alpha        =       0.510000
    MP2 SS Alpha        =       0.230000

    MP2 LRC             =          FALSE
    MP2 Omega           =       0.000000

   => Exchange Functionals <=

    0.3200   XC_GGA_X_PBE

   => Correlation Functionals <=

    0.4500   XC_GGA_C_P86

   => Molecular Quadrature <=

    Radial Scheme       =       TREUTLER
    Pruning Scheme      =           FLAT
    Nuclear Scheme      =       TREUTLER

    BS radius alpha     =              1
    Pruning alpha       =              1
    Radial Points       =             50
    Spherical Points    =            302
    Total Points        =          60400
    Total Blocks        =            589
    Max Points          =            200
    Max Functions       =             50

  ==> Pre-Iterations <==

   -------------------------------------------------------
    Irrep   Nso     Nmo     Nalpha   Nbeta   Ndocc  Nsocc
   -------------------------------------------------------
     A'        32      32       0       0       0       0
     A"        18      18       0       0       0       0
   -------------------------------------------------------
    Total      50      50       5       5       5       0
   -------------------------------------------------------

  ==> Integral Setup <==

  ==> DFJK: Density-Fitted J/K Matrices <==

    J tasked:                  Yes
    K tasked:                  Yes
    wK tasked:                  No
    OpenMP threads:              1
    Integrals threads:           1
    Memory (MB):               375
    Algorithm:                Core
    Integral Cache:           NONE
    Schwarz Cutoff:          1E-12
    Fitting Condition:       1E-12

   => Auxiliary Basis Set <=

  Basis Set: file /Users/daniel/Gits/psixc/psi4/share/psi4/basis/aug-cc-pvdz-jkfit.gbs
    Number of shells: 64
    Number of basis function: 182
    Number of Cartesian functions: 206
    Spherical Harmonics?: true
    Max angular momentum: 3

  Minimum eigenvalue in the overlap matrix is 2.1292253151E-03.
  Using Symmetric Orthogonalization.

  SCF Guess: Superposition of Atomic Densities via on-the-fly atomic UHF.

  ==> Iterations <==

                           Total Energy        Delta E     RMS |[F,P]|

   @DF-RKS iter   0:   -56.33527391014145   -5.63353e+01   5.02458e-02 
   @DF-RKS iter   1:   -56.32044003067949    1.48339e-02   6.95602e-03 
   @DF-RKS iter   2:   -56.33310822269346   -1.26682e-02   5.46700e-03 DIIS
   @DF-RKS iter   3:   -56.35031402045490   -1.72058e-02   3.13078e-04 DIIS
   @DF-RKS iter   4:   -56.35039818807964   -8.41676e-05   6.00530e-05 DIIS
   @DF-RKS iter   5:   -56.35040242893729   -4.24086e-06   9.93534e-06 DIIS
   @DF-RKS iter   6:   -56.35040260780538   -1.78868e-07   1.43537e-06 DIIS
   @DF-RKS iter   7:   -56.35040261449168   -6.68631e-09   2.62662e-07 DIIS

  ==> Post-Iterations <==

    Orbital Energies (a.u.)
    -----------------------

    Doubly Occupied:                                                      

       1Ap   -15.055000     2Ap    -1.033723     3Ap    -0.565721  
       1App   -0.564849     4Ap    -0.369542  

    Virtual:                                                              

       5Ap     0.019928     6Ap     0.050169     2App    0.050258  
       7Ap     0.128035     8Ap     0.166454     3App    0.180514  
       9Ap     0.180636    10Ap     0.244727     4App    0.244774  
      11Ap     0.296475    12Ap     0.301880     5App    0.302329  
      13Ap     0.425752     6App    0.487547    14Ap     0.491511  
       7App    0.491852    15Ap     0.565136    16Ap     0.596155  
       8App    0.596157     9App    0.640698    17Ap     0.641312  
      18Ap     0.771891    19Ap     0.848973    10App    0.849197  
      20Ap     1.044811    11App    1.120446    21Ap     1.120481  
      22Ap     1.256190    12App    1.708191    23Ap     1.709124  
      13App    1.836839    24Ap     1.957493    14App    1.958553  
      25Ap     1.990010    15App    2.217428    26Ap     2.218190  
      27Ap     2.260521    28Ap     2.278627    16App    2.280594  
      29Ap     2.527592    17App    2.769552    30Ap     2.771943  
      31Ap     2.976062    32Ap     3.375798    18App    3.378321  

    Final Occupation by Irrep:
             Ap   App 
    DOCC [     4,    1 ]

  Energy converged.

  @DF-RKS Final Energy:   -56.35040261449168

   => Energetics <=

    Nuclear Repulsion Energy =             11.9474317238986742
    One-Electron Energy =                 -99.5619040927894332
    Two-Electron Energy =                  33.8599081207719550
    DFT Exchange-Correlation Energy =      -2.5958383663728846
    Empirical Dispersion Energy =           0.0000000000000000
    VV10 Nonlocal Energy =                  0.0000000000000000
    Total Energy =                        -56.3504026144916850



Properties will be evaluated at   0.000000,   0.000000,   0.000000 Bohr

Properties computed using the SCF density matrix

  Nuclear Dipole Moment: (a.u.)
     X:     0.3320      Y:    -0.8258      Z:     0.0000

  Electronic Dipole Moment: (a.u.)
     X:    -0.0977      Y:     0.2414      Z:     0.0000

  Dipole Moment: (a.u.)
     X:     0.2343      Y:    -0.5844      Z:     0.0000     Total:     0.6296

  Dipole Moment: (Debye)
     X:     0.5955      Y:    -1.4854      Z:     0.0000     Total:     1.6004


*** tstop() called on ds23.sherrill.chemistry.gatech.edu at Fri Jan 20 16:51:56 2017
Module time:
	user time   =       2.82 seconds =       0.05 minutes
	system time =       0.06 seconds =       0.00 minutes
	total time  =          3 seconds =       0.05 minutes
Total time:
	user time   =       2.82 seconds =       0.05 minutes
	system time =       0.06 seconds =       0.00 minutes
	total time  =          3 seconds =       0.05 minutes

*** tstart() called on ds23.sherrill.chemistry.gatech.edu
*** at Fri Jan 20 16:51:56 2017

	 --------------------------------------------------------
	                          DF-MP2                         
	      2nd-Order Density-Fitted Moller-Plesset Theory     
	              RMP2 Wavefunction,   1 Threads             
	                                                         
	        Rob Parrish, Justin Turney, Andy Simmonett,      
	           Ed Hohenstein, and C. David Sherrill          
	 --------------------------------------------------------

   => Auxiliary Basis Set <=

  Basis Set: file /Users/daniel/Gits/psixc/psi4/share/psi4/basis/aug-cc-pvdz-ri.gbs
    Number of shells: 49
    Number of basis function: 141
    Number of Cartesian functions: 161
    Spherical Harmonics?: true
    Max angular momentum: 3

	 --------------------------------------------------------
	                 NBF =    50, NAUX =   141
	 --------------------------------------------------------
	   CLASS    FOCC     OCC    AOCC    AVIR     VIR    FVIR
	   PAIRS       0       5       5      45      45       0
	 --------------------------------------------------------

	-----------------------------------------------------------
	 ==================> DF-MP2 Energies <==================== 
	-----------------------------------------------------------
	 Reference Energy          =     -56.3504026144916850 [Eh]
	 Singles Energy            =      -0.0000000000450787 [Eh]
	 Same-Spin Energy          =      -0.0534858884092377 [Eh]
	 Opposite-Spin Energy      =      -0.1750698572475785 [Eh]
	 Correlation Energy        =      -0.2285557457018948 [Eh]
	 Total Energy              =     -56.5789583601935817 [Eh]
	-----------------------------------------------------------
	 ================> DF-SCS-MP2 Energies <================== 
	-----------------------------------------------------------
	 SCS Same-Spin Scale       =       0.2300000000000000 [-]
	 SCS Opposite-Spin Scale   =       0.5100000000000000 [-]
	 SCS Same-Spin Energy      =      -0.0123017543341247 [Eh]
	 SCS Opposite-Spin Energy  =      -0.0892856271962650 [Eh]
	 SCS Correlation Energy    =      -0.1015873815754683 [Eh]
	 SCS Total Energy          =     -56.4519899960671552 [Eh]
	-----------------------------------------------------------



    DSD-PBEP86 Energy Summary
    -------------------------
    DFT Reference Energy                  =   -56.3504026144916850
    Scaled MP2 Correlation                =    -0.1015873815754683
    @Final double-hybrid DFT total energy =   -56.4519899960671552


*** tstop() called on ds23.sherrill.chemistry.gatech.edu at Fri Jan 20 16:51:56 2017
Module time:
	user time   =       0.14 seconds =       0.00 minutes
	system time =       0.00 seconds =       0.00 minutes
	total time  =          0 seconds =       0.00 minutes
Total time:
	user time   =       2.96 seconds =       0.05 minutes
	system time =       0.06 seconds =       0.00 minutes
	total time  =          3 seconds =       0.05 minutes

       N-Body: Complex Energy (fragments = (2,), basis = (2,):   -56.45198999606716)

       N-Body: Computing complex (2/2) with fragments (1,) in the basis of fragments (1,).


*** tstart() called on ds23.sherrill.chemistry.gatech.edu
*** at Fri Jan 20 16:51:56 2017


         ---------------------------------------------------------
                                   SCF
            by Justin Turney, Rob Parrish, Andy Simmonett
                             and Daniel Smith
                              RKS Reference
                        1 Threads,    524 MiB Core
         ---------------------------------------------------------

  ==> Geometry <==

    Molecular point group: cs
    Full point group: Cs

    Geometry (in Angstrom), charge = 0, multiplicity = 1:

       Center              X                  Y                   Z               Mass       
    ------------   -----------------  -----------------  -----------------  -----------------
           N          0.025485383762    -0.063383201070     0.000000000000    14.003074004780
           H         -0.554417616238     0.119623798930    -0.809565000000     1.007825032070
           H         -0.554417616238     0.119623798930     0.809565000000     1.007825032070
           H          0.754732383762     0.641420798930     0.000000000000     1.007825032070

  Running in cs symmetry.

  Rotational constants: A =      9.98044  B =      9.90180  C =      6.34817 [cm^-1]
  Rotational constants: A = 299206.07370  B = 296848.42611  C = 190313.28388 [MHz]
  Nuclear repulsion =   11.947431723898674

  Charge       = 0
  Multiplicity = 1
  Electrons    = 10
  Nalpha       = 5
  Nbeta        = 5

  ==> Algorithm <==

  SCF Algorithm Type is DF.
  DIIS enabled.
  MOM disabled.
  Fractional occupation disabled.
  Guess Type is SAD.
  Energy threshold   = 1.00e-06
  Density threshold  = 1.00e-06
  Integral threshold = 0.00e+00

  ==> Primary Basis <==

  Basis Set: file /Users/daniel/Gits/psixc/psi4/share/psi4/basis/aug-cc-pvdz.gbs
    Number of shells: 24
    Number of basis function: 50
    Number of Cartesian functions: 52
    Spherical Harmonics?: true
    Max angular momentum: 2

  ==> DFT Potential <==

   => Composite Functional: DSD-PBEP86 <= 

    DSD-PBEP86 Dispersion-corrected SCS Double Hybrid XC Functional (opt. for -D2)

    S. Kozuch, Phys. Chem. Chem. Phys., 13, 20104, 2011


    Deriv               =              1
    GGA                 =           TRUE
    Meta                =          FALSE

    Exchange Hybrid     =           TRUE
    Exchange Alpha      =       0.680000

    Exchange LRC        =          FALSE
    Exchange Beta       =       0.000000
    Exchange Omega      =       0.000000

    MP2 SCS Hybrid      =           TRUE
    MP2 OS Alpha        =       0.510000
    MP2 SS Alpha        =       0.230000

    MP2 LRC             =          FALSE
    MP2 Omega           =       0.000000

   => Exchange Functionals <=

    0.3200   XC_GGA_X_PBE

   => Correlation Functionals <=

    0.4500   XC_GGA_C_P86

   => Molecular Quadrature <=

    Radial Scheme       =       TREUTLER
    Pruning Scheme      =           FLAT
    Nuclear Scheme      =       TREUTLER

    BS radius alpha     =              1
    Pruning alpha       =              1
    Radial Points       =             50
    Spherical Points    =            302
    Total Points        =          60400
    Total Blocks        =            589
    Max Points          =            200
    Max Functions       =             50

  ==> Pre-Iterations <==

   -------------------------------------------------------
    Irrep   Nso     Nmo     Nalpha   Nbeta   Ndocc  Nsocc
   -------------------------------------------------------
     A'        32      32       0       0       0       0
     A"        18      18       0       0       0       0
   -------------------------------------------------------
    Total      50      50       5       5       5       0
   -------------------------------------------------------

  ==> Integral Setup <==

  ==> DFJK: Density-Fitted J/K Matrices <==

    J tasked:                  Yes
    K tasked:                  Yes
    wK tasked:                  No
    OpenMP threads:              1
    Integrals threads:           1
    Memory (MB):               375
    Algorithm:                Core
    Integral Cache:           NONE
    Schwarz Cutoff:          1E-12
    Fitting Condition:       1E-12

   => Auxiliary Basis Set <=

  Basis Set: file /Users/daniel/Gits/psixc/psi4/share/psi4/basis/aug-cc-pvdz-jkfit.gbs
    Number of shells: 64
    Number of basis function: 182
    Number of Cartesian functions: 206
    Spherical Harmonics?: true
    Max angular momentum: 3

  Minimum eigenvalue in the overlap matrix is 2.1292253151E-03.
  Using Symmetric Orthogonalization.

  SCF Guess: Superposition of Atomic Densities via on-the-fly atomic UHF.

  ==> Iterations <==

                           Total Energy        Delta E     RMS |[F,P]|

   @DF-RKS iter   0:   -56.33527391014164   -5.63353e+01   5.02458e-02 
   @DF-RKS iter   1:   -56.32044003067969    1.48339e-02   6.95602e-03 
   @DF-RKS iter   2:   -56.33310822269369   -1.26682e-02   5.46700e-03 DIIS
   @DF-RKS iter   3:   -56.35031402045519   -1.72058e-02   3.13078e-04 DIIS
   @DF-RKS iter   4:   -56.35039818807989   -8.41676e-05   6.00530e-05 DIIS
   @DF-RKS iter   5:   -56.35040242893756   -4.24086e-06   9.93534e-06 DIIS
   @DF-RKS iter   6:   -56.35040260780562   -1.78868e-07   1.43537e-06 DIIS
   @DF-RKS iter   7:   -56.35040261449194   -6.68632e-09   2.62662e-07 DIIS

  ==> Post-Iterations <==

    Orbital Energies (a.u.)
    -----------------------

    Doubly Occupied:                                                      

       1Ap   -15.055000     2Ap    -1.033723     3Ap    -0.565721  
       1App   -0.564849     4Ap    -0.369542  

    Virtual:                                                              

       5Ap     0.019928     6Ap     0.050169     2App    0.050258  
       7Ap     0.128035     8Ap     0.166454     3App    0.180514  
       9Ap     0.180636    10Ap     0.244727     4App    0.244774  
      11Ap     0.296475    12Ap     0.301880     5App    0.302329  
      13Ap     0.425752     6App    0.487547    14Ap     0.491511  
       7App    0.491852    15Ap     0.565136    16Ap     0.596155  
       8App    0.596157     9App    0.640698    17Ap     0.641312  
      18Ap     0.771891    19Ap     0.848973    10App    0.849197  
      20Ap     1.044811    11App    1.120446    21Ap     1.120481  
      22Ap     1.256190    12App    1.708191    23Ap     1.709124  
      13App    1.836839    24Ap     1.957493    14App    1.958553  
      25Ap     1.990010    15App    2.217428    26Ap     2.218190  
      27Ap     2.260521    28Ap     2.278627    16App    2.280594  
      29Ap     2.527592    17App    2.769552    30Ap     2.771943  
      31Ap     2.976062    32Ap     3.375798    18App    3.378321  

    Final Occupation by Irrep:
             Ap   App 
    DOCC [     4,    1 ]

  Energy converged.

  @DF-RKS Final Energy:   -56.35040261449194

   => Energetics <=

    Nuclear Repulsion Energy =             11.9474317238986742
    One-Electron Energy =                 -99.5619040927907122
    Two-Electron Energy =                  33.8599081207729000
    DFT Exchange-Correlation Energy =      -2.5958383663728060
    Empirical Dispersion Energy =           0.0000000000000000
    VV10 Nonlocal Energy =                  0.0000000000000000
    Total Energy =                        -56.3504026144919408



Properties will be evaluated at   0.000000,   0.000000,   0.000000 Bohr

Properties computed using the SCF density matrix

  Nuclear Dipole Moment: (a.u.)
     X:    -0.3320      Y:     0.8258      Z:     0.0000

  Electronic Dipole Moment: (a.u.)
     X:     0.0977      Y:    -0.2414      Z:     0.0000

  Dipole Moment: (a.u.)
     X:    -0.2343      Y:     0.5844      Z:     0.0000     Total:     0.6296

  Dipole Moment: (Debye)
     X:    -0.5955      Y:     1.4854      Z:     0.0000     Total:     1.6004


*** tstop() called on ds23.sherrill.chemistry.gatech.edu at Fri Jan 20 16:51:59 2017
Module time:
	user time   =       2.77 seconds =       0.05 minutes
	system time =       0.06 seconds =       0.00 minutes
	total time  =          3 seconds =       0.05 minutes
Total time:
	user time   =       5.75 seconds =       0.10 minutes
	system time =       0.12 seconds =       0.00 minutes
	total time  =          6 seconds =       0.10 minutes

*** tstart() called on ds23.sherrill.chemistry.gatech.edu
*** at Fri Jan 20 16:51:59 2017

	 --------------------------------------------------------
	                          DF-MP2                         
	      2nd-Order Density-Fitted Moller-Plesset Theory     
	              RMP2 Wavefunction,   1 Threads             
	                                                         
	        Rob Parrish, Justin Turney, Andy Simmonett,      
	           Ed Hohenstein, and C. David Sherrill          
	 --------------------------------------------------------

   => Auxiliary Basis Set <=

  Basis Set: file /Users/daniel/Gits/psixc/psi4/share/psi4/basis/aug-cc-pvdz-ri.gbs
    Number of shells: 49
    Number of basis function: 141
    Number of Cartesian functions: 161
    Spherical Harmonics?: true
    Max angular momentum: 3

	 --------------------------------------------------------
	                 NBF =    50, NAUX =   141
	 --------------------------------------------------------
	   CLASS    FOCC     OCC    AOCC    AVIR     VIR    FVIR
	   PAIRS       0       5       5      45      45       0
	 --------------------------------------------------------

	-----------------------------------------------------------
	 ==================> DF-MP2 Energies <==================== 
	-----------------------------------------------------------
	 Reference Energy          =     -56.3504026144919408 [Eh]
	 Singles Energy            =      -0.0000000000450787 [Eh]
	 Same-Spin Energy          =      -0.0534858884092292 [Eh]
	 Opposite-Spin Energy      =      -0.1750698572474900 [Eh]
	 Correlation Energy        =      -0.2285557457017979 [Eh]
	 Total Energy              =     -56.5789583601937380 [Eh]
	-----------------------------------------------------------
	 ================> DF-SCS-MP2 Energies <================== 
	-----------------------------------------------------------
	 SCS Same-Spin Scale       =       0.2300000000000000 [-]
	 SCS Opposite-Spin Scale   =       0.5100000000000000 [-]
	 SCS Same-Spin Energy      =      -0.0123017543341227 [Eh]
	 SCS Opposite-Spin Energy  =      -0.0892856271962199 [Eh]
	 SCS Correlation Energy    =      -0.1015873815754213 [Eh]
	 SCS Total Energy          =     -56.4519899960673612 [Eh]
	-----------------------------------------------------------



    DSD-PBEP86 Energy Summary
    -------------------------
    DFT Reference Energy                  =   -56.3504026144919408
    Scaled MP2 Correlation                =    -0.1015873815754213
    @Final double-hybrid DFT total energy =   -56.4519899960673612


*** tstop() called on ds23.sherrill.chemistry.gatech.edu at Fri Jan 20 16:51:59 2017
Module time:
	user time   =       0.15 seconds =       0.00 minutes
	system time =       0.00 seconds =       0.00 minutes
	total time  =          0 seconds =       0.00 minutes
Total time:
	user time   =       5.90 seconds =       0.10 minutes
	system time =       0.12 seconds =       0.00 minutes
	total time  =          6 seconds =       0.10 minutes

       N-Body: Complex Energy (fragments = (1,), basis = (1,):   -56.45198999606736)

   ==> N-Body: Now computing 2-body complexes <==


       N-Body: Computing complex (1/1) with fragments (1, 2) in the basis of fragments (1, 2).


*** tstart() called on ds23.sherrill.chemistry.gatech.edu
*** at Fri Jan 20 16:51:59 2017


         ---------------------------------------------------------
                                   SCF
            by Justin Turney, Rob Parrish, Andy Simmonett
                             and Daniel Smith
                              RKS Reference
                        1 Threads,    524 MiB Core
         ---------------------------------------------------------

  ==> Geometry <==

    Molecular point group: c2h
    Full point group: C2h

    Geometry (in Angstrom), charge = 0, multiplicity = 1:

       Center              X                  Y                   Z               Mass       
    ------------   -----------------  -----------------  -----------------  -----------------
           N         -1.578718000000    -0.046611000000     0.000000000000    14.003074004780
           H         -2.158621000000     0.136396000000    -0.809565000000     1.007825032070
           H         -2.158621000000     0.136396000000     0.809565000000     1.007825032070
           H         -0.849471000000     0.658193000000     0.000000000000     1.007825032070
           N          1.578718000000     0.046611000000     0.000000000000    14.003074004780
           H          2.158621000000    -0.136396000000    -0.809565000000     1.007825032070
           H          0.849471000000    -0.658193000000     0.000000000000     1.007825032070
           H          2.158621000000    -0.136396000000     0.809565000000     1.007825032070

  Running in c2h symmetry.

  Rotational constants: A =      4.61798  B =      0.18515  C =      0.18189 [cm^-1]
  Rotational constants: A = 138443.45959  B =   5550.61944  C =   5452.77659 [MHz]
  Nuclear repulsion =   40.314239839067191

  Charge       = 0
  Multiplicity = 1
  Electrons    = 20
  Nalpha       = 10
  Nbeta        = 10

  ==> Algorithm <==

  SCF Algorithm Type is DF.
  DIIS enabled.
  MOM disabled.
  Fractional occupation disabled.
  Guess Type is SAD.
  Energy threshold   = 1.00e-06
  Density threshold  = 1.00e-06
  Integral threshold = 0.00e+00

  ==> Primary Basis <==

  Basis Set: file /Users/daniel/Gits/psixc/psi4/share/psi4/basis/aug-cc-pvdz.gbs
    Number of shells: 48
    Number of basis function: 100
    Number of Cartesian functions: 104
    Spherical Harmonics?: true
    Max angular momentum: 2

  ==> DFT Potential <==

   => Composite Functional: DSD-PBEP86 <= 

    DSD-PBEP86 Dispersion-corrected SCS Double Hybrid XC Functional (opt. for -D2)

    S. Kozuch, Phys. Chem. Chem. Phys., 13, 20104, 2011


    Deriv               =              1
    GGA                 =           TRUE
    Meta                =          FALSE

    Exchange Hybrid     =           TRUE
    Exchange Alpha      =       0.680000

    Exchange LRC        =          FALSE
    Exchange Beta       =       0.000000
    Exchange Omega      =       0.000000

    MP2 SCS Hybrid      =           TRUE
    MP2 OS Alpha        =       0.510000
    MP2 SS Alpha        =       0.230000

    MP2 LRC             =          FALSE
    MP2 Omega           =       0.000000

   => Exchange Functionals <=

    0.3200   XC_GGA_X_PBE

   => Correlation Functionals <=

    0.4500   XC_GGA_C_P86

   => Molecular Quadrature <=

    Radial Scheme       =       TREUTLER
    Pruning Scheme      =           FLAT
    Nuclear Scheme      =       TREUTLER

    BS radius alpha     =              1
    Pruning alpha       =              1
    Radial Points       =             50
    Spherical Points    =            302
    Total Points        =         120800
    Total Blocks        =           1146
    Max Points          =            200
    Max Functions       =            100

  ==> Pre-Iterations <==

   -------------------------------------------------------
    Irrep   Nso     Nmo     Nalpha   Nbeta   Ndocc  Nsocc
   -------------------------------------------------------
     Ag        32      32       0       0       0       0
     Bg        18      18       0       0       0       0
     Au        18      18       0       0       0       0
     Bu        32      32       0       0       0       0
   -------------------------------------------------------
    Total     100     100      10      10      10       0
   -------------------------------------------------------

  ==> Integral Setup <==

  ==> DFJK: Density-Fitted J/K Matrices <==

    J tasked:                  Yes
    K tasked:                  Yes
    wK tasked:                  No
    OpenMP threads:              1
    Integrals threads:           1
    Memory (MB):               375
    Algorithm:                Core
    Integral Cache:           NONE
    Schwarz Cutoff:          1E-12
    Fitting Condition:       1E-12

   => Auxiliary Basis Set <=

  Basis Set: file /Users/daniel/Gits/psixc/psi4/share/psi4/basis/aug-cc-pvdz-jkfit.gbs
    Number of shells: 128
    Number of basis function: 364
    Number of Cartesian functions: 412
    Spherical Harmonics?: true
    Max angular momentum: 3

  Minimum eigenvalue in the overlap matrix is 1.1196633069E-03.
  Using Symmetric Orthogonalization.

  SCF Guess: Superposition of Atomic Densities via on-the-fly atomic UHF.

  ==> Iterations <==

                           Total Energy        Delta E     RMS |[F,P]|

   @DF-RKS iter   0:  -112.69620224501371   -1.12696e+02   5.04761e-02 
   @DF-RKS iter   1:  -112.64813783667356    4.80644e-02   6.77641e-03 
   @DF-RKS iter   2:  -112.67319095230444   -2.50531e-02   5.21860e-03 DIIS
   @DF-RKS iter   3:  -112.70447028137396   -3.12793e-02   3.13475e-04 DIIS
   @DF-RKS iter   4:  -112.70464120951397   -1.70928e-04   5.70132e-05 DIIS
   @DF-RKS iter   5:  -112.70464919110175   -7.98159e-06   1.00164e-05 DIIS
   @DF-RKS iter   6:  -112.70464955994601   -3.68844e-07   1.73793e-06 DIIS
   @DF-RKS iter   7:  -112.70464957448985   -1.45438e-08   5.30606e-07 DIIS

  ==> Post-Iterations <==

    Orbital Energies (a.u.)
    -----------------------

    Doubly Occupied:                                                      

       1Bu   -15.048861     1Ag   -15.048856     2Ag    -1.032526  
       2Bu    -1.025171     3Ag    -0.576419     1Au    -0.561708  
       1Bg    -0.559251     3Bu    -0.543516     4Bu    -0.368041  
       4Ag    -0.365071  

    Virtual:                                                              

       5Ag     0.019302     5Bu     0.035935     2Au     0.045704  
       6Bu     0.062305     2Bg     0.062837     6Ag     0.073536  
       7Ag     0.143621     8Ag     0.160414     7Bu     0.166607  
       3Au     0.166860     8Bu     0.193484     9Ag     0.196511  
       3Bg     0.206111     9Bu     0.206287     4Au     0.237985  
      10Bu     0.257693    10Ag     0.268471     4Bg     0.280749  
      11Bu     0.294767     5Au     0.326164     5Bg     0.326331  
      11Ag     0.358653    12Ag     0.413205    13Ag     0.436662  
      12Bu     0.443227     6Au     0.487295     6Bg     0.499328  
      13Bu     0.500785    14Ag     0.512147     7Au     0.518898  
       7Bg     0.529334    14Bu     0.555123    15Ag     0.576991  
       8Bg     0.595262    15Bu     0.602869     8Au     0.616558  
      16Ag     0.650302    17Ag     0.666256     9Bg     0.680027  
      16Bu     0.692488     9Au     0.713526    17Bu     0.761010  
      18Ag     0.806530    10Au     0.864753    10Bg     0.866291  
      19Ag     0.872421    18Bu     0.897296    19Bu     0.941153  
      20Bu     1.096281    20Ag     1.128974    21Bu     1.137094  
      11Au     1.173646    21Ag     1.193401    11Bg     1.256679  
      22Bu     1.333185    22Ag     1.467145    23Ag     1.660765  
      12Au     1.699340    23Bu     1.763114    12Bg     1.793001  
      13Bg     1.855655    13Au     1.883499    24Bu     1.905928  
      14Bg     1.981471    14Au     1.986898    24Ag     2.013874  
      25Ag     2.097365    25Bu     2.123024    15Au     2.211969  
      26Ag     2.253876    15Bg     2.262463    26Bu     2.278358  
      16Au     2.284792    16Bg     2.298019    27Ag     2.306808  
      28Ag     2.323660    27Bu     2.323806    28Bu     2.347776  
      29Bu     2.540320    29Ag     2.630459    17Au     2.780346  
      17Bg     2.787434    30Ag     2.799169    30Bu     2.876021  
      31Ag     2.990365    31Bu     3.016127    18Au     3.413109  
      32Bu     3.417733    18Bg     3.418881    32Ag     3.456596  

    Final Occupation by Irrep:
             Ag    Bg    Au    Bu 
    DOCC [     4,    1,    1,    4 ]

  Energy converged.

  @DF-RKS Final Energy:  -112.70464957448985

   => Energetics <=

    Nuclear Repulsion Energy =             40.3142398390671914
    One-Electron Energy =                -232.0643809034737046
    Two-Electron Energy =                  84.2406610034864798
    DFT Exchange-Correlation Energy =      -5.1951695135698301
    Empirical Dispersion Energy =           0.0000000000000000
    VV10 Nonlocal Energy =                  0.0000000000000000
    Total Energy =                       -112.7046495744898493



Properties will be evaluated at   0.000000,   0.000000,   0.000000 Bohr

Properties computed using the SCF density matrix

  Nuclear Dipole Moment: (a.u.)
     X:    -0.0000      Y:     0.0000      Z:     0.0000

  Electronic Dipole Moment: (a.u.)
     X:     0.0000      Y:     0.0000      Z:     0.0000

  Dipole Moment: (a.u.)
     X:    -0.0000      Y:     0.0000      Z:     0.0000     Total:     0.0000

  Dipole Moment: (Debye)
     X:    -0.0000      Y:     0.0000      Z:     0.0000     Total:     0.0000


*** tstop() called on ds23.sherrill.chemistry.gatech.edu at Fri Jan 20 16:52:09 2017
Module time:
	user time   =       9.38 seconds =       0.16 minutes
	system time =       0.17 seconds =       0.00 minutes
	total time  =         10 seconds =       0.17 minutes
Total time:
	user time   =      15.30 seconds =       0.26 minutes
	system time =       0.29 seconds =       0.00 minutes
	total time  =         16 seconds =       0.27 minutes

*** tstart() called on ds23.sherrill.chemistry.gatech.edu
*** at Fri Jan 20 16:52:09 2017

	 --------------------------------------------------------
	                          DF-MP2                         
	      2nd-Order Density-Fitted Moller-Plesset Theory     
	              RMP2 Wavefunction,   1 Threads             
	                                                         
	        Rob Parrish, Justin Turney, Andy Simmonett,      
	           Ed Hohenstein, and C. David Sherrill          
	 --------------------------------------------------------

   => Auxiliary Basis Set <=

  Basis Set: file /Users/daniel/Gits/psixc/psi4/share/psi4/basis/aug-cc-pvdz-ri.gbs
    Number of shells: 98
    Number of basis function: 282
    Number of Cartesian functions: 322
    Spherical Harmonics?: true
    Max angular momentum: 3

	 --------------------------------------------------------
	                 NBF =   100, NAUX =   282
	 --------------------------------------------------------
	   CLASS    FOCC     OCC    AOCC    AVIR     VIR    FVIR
	   PAIRS       0      10      10      90      90       0
	 --------------------------------------------------------

	-----------------------------------------------------------
	 ==================> DF-MP2 Energies <==================== 
	-----------------------------------------------------------
	 Reference Energy          =    -112.7046495744898493 [Eh]
	 Singles Energy            =      -0.0000000001646986 [Eh]
	 Same-Spin Energy          =      -0.1086246972868943 [Eh]
	 Opposite-Spin Energy      =      -0.3518844283738142 [Eh]
	 Correlation Energy        =      -0.4605091258254072 [Eh]
	 Total Energy              =    -113.1651587003152599 [Eh]
	-----------------------------------------------------------
	 ================> DF-SCS-MP2 Energies <================== 
	-----------------------------------------------------------
	 SCS Same-Spin Scale       =       0.2300000000000000 [-]
	 SCS Opposite-Spin Scale   =       0.5100000000000000 [-]
	 SCS Same-Spin Energy      =      -0.0249836803759857 [Eh]
	 SCS Opposite-Spin Energy  =      -0.1794610584706453 [Eh]
	 SCS Correlation Energy    =      -0.2044447390113296 [Eh]
	 SCS Total Energy          =    -112.9090943135011855 [Eh]
	-----------------------------------------------------------



    DSD-PBEP86 Energy Summary
    -------------------------
    DFT Reference Energy                  =  -112.7046495744898493
    Scaled MP2 Correlation                =    -0.2044447390113296
    @Final double-hybrid DFT total energy =  -112.9090943135011855


*** tstop() called on ds23.sherrill.chemistry.gatech.edu at Fri Jan 20 16:52:09 2017
Module time:
	user time   =       0.48 seconds =       0.01 minutes
	system time =       0.04 seconds =       0.00 minutes
	total time  =          0 seconds =       0.00 minutes
Total time:
	user time   =      15.78 seconds =       0.26 minutes
	system time =       0.33 seconds =       0.01 minutes
	total time  =         16 seconds =       0.27 minutes

       N-Body: Complex Energy (fragments = (1, 2), basis = (1, 2):  -112.90909431350119)

   ==> N-Body: Non-Counterpoise Corrected (NoCP)  energies <==

   n-Body     Total Energy [Eh]       I.E. [kcal/mol]      Delta [kcal/mol]
        1     -112.903979992135        0.000000000000        0.000000000000
        2     -112.909094313501       -3.209285243642       -3.209285243642

	DSD-PBE-PBE86: Ammonia............................................PASSED

*** Psi4 exiting successfully. Buy a developer a beer!
