    -----------------------------------------------------------------------
          PSI4: An Open-Source Ab Initio Electronic Structure Package
                              PSI 4.0.0-beta2+ Driver

               Git: Rev 52d13f02afbdc529107dd7990af55e1e61dc4f22

    J. M. Turney, A. C. Simmonett, R. M. Parrish, E. G. Hohenstein,
    F. A. Evangelista, J. T. Fermann, B. J. Mintz, L. A. Burns, J. J. Wilke,
    M. L. Abrams, N. J. Russ, M. L. Leininger, C. L. Janssen, E. T. Seidl,
    W. D. Allen, H. F. Schaefer, R. A. King, E. F. Valeev, C. D. Sherrill,
    and T. D. Crawford, WIREs Comput. Mol. Sci., (2011) (doi: 10.1002/wcms.93)

                         Additional Contributions by
    A. E. DePrince, M. Saitow, U. Bozkaya, A. Yu. Sokolov
    -----------------------------------------------------------------------

    Process ID:  42610
    PSI4DATADIR: /Users/rking/psi4/lib

    Using LocalCommunicator (Number of processes = 1)

    Memory level set to 256.000 MB

  ==> Input File <==

--------------------------------------------------------------------------
#! Test Gibbs free energies at 298 K of N2, H2O, and CH4.

memory 500 mb

N2_321G_RHF_G  = -108.313412 #TEST
H2O_321G_RHF_G =  -75.581830 #TEST
NH3_321G_RHF_G =  -55.854174 #TEST
CH4_321G_RHF_G =  -39.946175 #TEST

molecule N2 {
  N
  N 1 1.1
}

set globals {
  basis 3-21G
  max_disp_g_convergence = 1e-5
}

optimize('scf')
frequencies('scf')
thermo()
compare_values( N2_321G_RHF_G, get_variable('GIBBS FREE ENERGY'), 6, "N2 Gibbs Free Energy") #TEST

#

molecule H2O {
 0 1
 H
 O 1 1.0
 H 2 1.0 1 109.5
}

set globals {
  basis 3-21G
  max_disp_g_convergence = 1e-5
}

optimize('scf')
frequencies('scf')
thermo()
compare_values( H2O_321G_RHF_G, get_variable('GIBBS FREE ENERGY'), 6, "H2O Gibbs Free Energy") #TEST

#

molecule nh3 {
  N         -0.000000000075    -0.055054563313     0.000000000000
  H         -0.477097924216     0.254982462134    -0.826357845779
  H         -0.477097924216     0.254982462134     0.826357845779
  H          0.954195849480     0.254982462271     0.000000000000
}

set globals {
  basis 3-21G
  max_disp_g_convergence = 1e-5
}

optimize('scf')
frequencies('scf')
thermo()
compare_values( NH3_321G_RHF_G, get_variable('GIBBS FREE ENERGY'), 6, "NH3 Gibbs Free Energy") #TEST

#

molecule CH4 {
   C
   H 1 r
   H 1 r 2 TDA
   H 1 r 2 TDA 3 120
   H 1 r 2 TDA 4 120
   r = 1.09
}

set globals {
  basis 3-21G
  max_disp_g_convergence = 1e-5
}

optimize('scf')
frequencies('scf')
thermo()
compare_values( CH4_321G_RHF_G, get_variable('GIBBS FREE ENERGY'), 6, "CH4 Gibbs Free Energy") #TEST

--------------------------------------------------------------------------

  Memory set to 500.000 MiB by Python script.
    Molecular point group: d2h
    Full point group: D_inf_h

    Geometry (in Angstrom), charge = 0, multiplicity = 1:

       Center              X                  Y                   Z       
    ------------   -----------------  -----------------  -----------------
           N          0.000000000000     0.000000000000    -0.550000000000
           N          0.000000000000     0.000000000000     0.550000000000

  -AO BASIS SET INFORMATION:
    Name                   = 3-21G
    Total number of shells = 10
    Number of primitives   = 18
    Number of AO           = 18
    Number of SO           = 18
    Maximum AM             = 1
    Spherical Harmonics    = FALSE

  -Contraction Scheme:
    Atom   Type   All Primitives // Shells:
   ------ ------ --------------------------
       1     N     6s 3p // 3s 2p 
       2     N     6s 3p // 3s 2p 

  -Basis set on unique center 1: N
     S (        242.76600000           2.62409200)
       (         36.48510000           3.73435921)
       (          7.81449000           2.35345410)
     S (          5.42522000          -1.04710105)
       (          1.14915000           0.96855007)
     P (          5.42522000           2.80858564)
       (          1.14915000           1.45673455)
     S (          0.28320500           0.27668510)
     P (          0.28320500           0.29448707)

  -Basis set on unique center 2: N
     S (        242.76600000           2.62409200)
       (         36.48510000           3.73435921)
       (          7.81449000           2.35345410)
     S (          5.42522000          -1.04710105)
       (          1.14915000           0.96855007)
     P (          5.42522000           2.80858564)
       (          1.14915000           1.45673455)
     S (          0.28320500           0.27668510)
     P (          0.28320500           0.29448707)


*** tstart() called on mac10147
*** at Tue Jul 10 20:36:08 2012

	There are an even number of electrons - assuming singlet.
	Specify the multiplicity with the MULTP option in the
	input if this is incorrect


         ---------------------------------------------------------
                                   SCF
            by Justin Turney, Rob Parrish, and Andy Simmonett
                              RHF Reference
                        1 Threads,    500 MiB Core
         ---------------------------------------------------------

  ==> Geometry <==

    Molecular point group: d2h
    Full point group: D_inf_h

    Geometry (in Angstrom), charge = 0, multiplicity = 1:

       Center              X                  Y                   Z       
    ------------   -----------------  -----------------  -----------------
           N          0.000000000000     0.000000000000    -0.550000000000
           N          0.000000000000     0.000000000000     0.550000000000

  Running in d2h symmetry.

  Nuclear repulsion =   23.572439291736362

  Charge       = 0
  Multiplicity = 1
  Electrons    = 14
  Nalpha       = 7
  Nbeta        = 7

  ==> Algorithm <==

  SCF Algorithm Type is PK.
  DIIS enabled.
  MOM disabled.
  Fractional occupation disabled.
  Guess Type is CORE.
  Energy threshold   = 1.00e-08
  Density threshold  = 1.00e-08
  Integral threshold = 0.00e+00

  ==> Primary Basis <==

  Basis Set: 3-21G
    Number of shells: 10
    Number of basis function: 18
    Number of Cartesian functions: 18
    Spherical Harmonics?: false
    Max angular momentum: 1

  ==> Pre-Iterations <==

   -------------------------------------------------------
    Irrep   Nso     Nmo     Nalpha   Nbeta   Ndocc  Nsocc
   -------------------------------------------------------
     Ag         5       5       0       0       0       0
     B1g        0       0       0       0       0       0
     B2g        2       2       0       0       0       0
     B3g        2       2       0       0       0       0
     Au         0       0       0       0       0       0
     B1u        5       5       0       0       0       0
     B2u        2       2       0       0       0       0
     B3u        2       2       0       0       0       0
   -------------------------------------------------------
    Total      18      18       7       7       7       0
   -------------------------------------------------------

  ==> Integral Setup <==

 MINTS: Wrapper to libmints.
   by Justin Turney

   Calculation information:
      Number of atoms:                   2
      Number of AO shells:              10
      Number of SO shells:               5
      Number of primitives:             18
      Number of atomic orbitals:        18
      Number of basis functions:        18

      Number of irreps:                  8
      Number of functions per irrep: [   5    0    2    2    0    5    2    2 ]

      Overlap, kinetic, potential, dipole, and quadrupole integrals
        stored in file 35.

      Computing two-electron integrals...done
      Computed 2376 non-zero two-electron integrals.
        Stored in file 33.

  Minimum eigenvalue in the overlap matrix is 1.6664831711E-02.
  Using Symmetric Orthogonalization.
  SCF Guess: Core (One-Electron) Hamiltonian.

  Initial RHF energy:   -78.69812561824735

  ==> Iterations <==

                        Total Energy        Delta E     Density RMS

   @RHF iter   1:   -99.13260451368218   -2.04345e+01   0.00000e+00 
	Occupation by irrep:
	         Ag   B1g   B2g   B3g    Au   B1u   B2u   B3u 
	DOCC [     3,    0,    0,    0,    0,    2,    1,    1 ]

   @RHF iter   2:  -106.97892364214808   -7.84632e+00   3.73632e-01 DIIS
   @RHF iter   3:  -108.23903651594186   -1.26011e+00   1.67096e-01 DIIS
   @RHF iter   4:  -108.29891808777326   -5.98816e-02   6.01553e-02 DIIS
   @RHF iter   5:  -108.30003483723029   -1.11675e-03   3.74437e-03 DIIS
   @RHF iter   6:  -108.30004148002168   -6.64279e-06   3.99511e-04 DIIS
   @RHF iter   7:  -108.30004152539884   -4.53772e-08   3.56299e-05 DIIS
   @RHF iter   8:  -108.30004152581195   -4.13110e-10   7.25720e-06 DIIS
   @RHF iter   9:  -108.30004152581581   -3.86535e-12   5.10984e-07 DIIS
   @RHF iter  10:  -108.30004152581579    2.84217e-14   1.83232e-08 DIIS

  ==> Post-Iterations <==

	Orbital Energies (a.u.)
	-----------------------

	Doubly Occupied:                                                      

	   1Ag   -15.615680     1B1u  -15.615118     2Ag    -1.505696  
	   2B1u   -0.762530     3Ag    -0.614138     1B2u   -0.612566  
	   1B3u   -0.612566  

	Virtual:                                                              

	   1B3g    0.176291     1B2g    0.176291     3B1u    0.745039  
	   4Ag     1.208342     2B2u    1.280331     2B3u    1.280331  
	   2B3g    1.417407     2B2g    1.417407     4B1u    1.468552  
	   5Ag     1.849730     5B1u    2.560083  

	Final Occupation by Irrep:
	         Ag   B1g   B2g   B3g    Au   B1u   B2u   B3u 
	DOCC [     3,    0,    0,    0,    0,    2,    1,    1 ]

  Energy converged.

  @RHF Final Energy:  -108.30004152581579

   => Energetics <=

    Nuclear Repulsion Energy =         23.5724392917363623
    One-Electron Energy =            -193.0683716642052445
    Two-Electron Energy =              61.1958908466530858
    DFT Functional Energy =             0.0000000000000000
    Empirical Dispersion Energy =       0.0000000000000000
    Total Energy =                   -108.3000415258157858

  ==> Properties <==

  Nuclear Dipole Moment: (a.u.)
     X:     0.0000      Y:     0.0000      Z:     0.0000

  Electronic Dipole Moment: (a.u.)
     X:     0.0000      Y:     0.0000      Z:     0.0000

  Dipole Moment: (a.u.)
     X:     0.0000      Y:     0.0000      Z:     0.0000     Total:     0.0000

  Dipole Moment: (Debye)
     X:     0.0000      Y:     0.0000      Z:     0.0000     Total:     0.0000


  Saving occupied orbitals to File 180.

*** tstop() called on mac10147 at Tue Jul 10 20:36:08 2012
Module time:
	user time   =       0.02 seconds =       0.00 minutes
	system time =       0.01 seconds =       0.00 minutes
	total time  =          0 seconds =       0.00 minutes
Total time:
	user time   =       0.02 seconds =       0.00 minutes
	system time =       0.01 seconds =       0.00 minutes
	total time  =          0 seconds =       0.00 minutes

*** tstart() called on mac10147
*** at Tue Jul 10 20:36:08 2012

 DERIV: Derivative code.
   by Justin Turney

  Cartesian Displacement SALCs
  By SALC:
  Number of SALCs: 1, nirreps: 1
  Project out translations: False
  Project out rotations: False
	irrep = 0, ncomponent = 2
		0: atom 0, direction z, coef 0.707107
		1: atom 1, direction z, coef -0.707107

  By Atomic Center:
  Number of atomic centers: 2
   Atomic Center 0:
	x component, size = 0
	y component, size = 0
	z component, size = 1
		0: salc 0, irrep 0, coef 0.707107
   Atomic Center 1:
	x component, size = 0
	y component, size = 0
	z component, size = 1
		0: salc 0, irrep 0, coef -0.707107

    Molecular point group: d2h
    Full point group: D_inf_h

    Geometry (in Bohr), charge = 0, multiplicity = 1:

       Center              X                  Y                   Z       
    ------------   -----------------  -----------------  -----------------
           N          0.000000000000     0.000000000000    -1.039349373087
           N          0.000000000000     0.000000000000     1.039349373087


  -Nuclear Repulsion Energy 1st Derivatives:
     Atom            X                  Y                   Z
    ------   -----------------  -----------------  -----------------
       1        0.000000000000     0.000000000000    11.339997840053
       2        0.000000000000     0.000000000000   -11.339997840053


  -One-electron contribution to gradient:
     Atom            X                  Y                   Z
    ------   -----------------  -----------------  -----------------
       1        0.000000000000     0.000000000000   -25.803904397081
       2        0.000000000000     0.000000000000    25.803904397081


  -Lagrangian contribution to gradient:
     Atom            X                  Y                   Z
    ------   -----------------  -----------------  -----------------
       1        0.000000000000     0.000000000000     1.126053785419
       2        0.000000000000     0.000000000000    -1.126053785419


  -Two-electron contribution to gradient:
     Atom            X                  Y                   Z
    ------   -----------------  -----------------  -----------------
       1        0.000000000000     0.000000000000    13.282804195537
       2        0.000000000000     0.000000000000   -13.282804195537


  -Total gradient:
     Atom            X                  Y                   Z
    ------   -----------------  -----------------  -----------------
       1        0.000000000000     0.000000000000    -0.055048576072
       2        0.000000000000     0.000000000000     0.055048576072


*** tstop() called on mac10147 at Tue Jul 10 20:36:08 2012
Module time:
	user time   =       0.03 seconds =       0.00 minutes
	system time =       0.00 seconds =       0.00 minutes
	total time  =          0 seconds =       0.00 minutes
Total time:
	user time   =       0.06 seconds =       0.00 minutes
	system time =       0.01 seconds =       0.00 minutes
	total time  =          0 seconds =       0.00 minutes

			----------------------------------
			 OPTKING: for geometry optimizations  
			  - R.A. King,  Bethel University   
			------------------------------------

	Internal coordinates to be generated automatically.
	Detected frag with atoms:  1 2
	---Fragment 1 Bond Connectivity---
	 1 : 2
	 2 : 1

	---Fragment 1 Geometry and Gradient---
	 N           0.0000000000        0.0000000000       -1.0393493731
	 N           0.0000000000        0.0000000000        1.0393493731
	             0.0000000000        0.0000000000       -0.0550485761
	             0.0000000000        0.0000000000        0.0550485761

	Previous optimization step data not found.  Starting new optimization.

	---Fragment 1 Intrafragment Coordinates---
	 - Coordinate -           - BOHR/RAD -       - ANG/DEG -
	 R(1,2)           =         2.078699	       1.100000

	Current energy   :      -108.3000415258

	Generating empirical Hessian (Schlegel '84) for each fragment.
	Going to follow RFO solution 1.
	Projected energy change by RFO approximation:        -0.0008565575

	Back-transformation to cartesian coordinates...
	Successfully converged to displaced geometry.

	---Internal Coordinate Step in ANG or DEG, aJ/ANG or AJ/DEG ---
	 ----------------------------------------------------------------------
	 Coordinate             Previous        Force       Change         New 
	 ----------             --------       ------       ------       ------
	 R(1,2)          =      1.100000    -0.453530    -0.016468     1.083532
	 ----------------------------------------------------------------------

  ==> Convergence Check <==

  Measures of convergence in internal coordinates in au.
  Criteria marked as inactive (o), active & met (*), and active & unmet ( ).
  --------------------------------------------------------------------------------------------- ~
   Step     Total Energy     Delta E     MAX Force     RMS Force      MAX Disp      RMS Disp    ~
  --------------------------------------------------------------------------------------------- ~
    Convergence Criteria    1.00e-06 *    3.00e-04 *             o    1.00e-05 *             o  ~
  --------------------------------------------------------------------------------------------- ~
      1    -108.30004153   -1.08e+02      5.50e-02      5.50e-02 o    3.11e-02      3.11e-02 o  ~
  ---------------------------------------------------------------------------------------------

	Writing optimization data to binary file.
	Structure for next step:
	Cartesian Geometry (au)
	    N     0.0000000000   0.0000000000  -1.0237893432
	    N     0.0000000000   0.0000000000   1.0237893432
			--------------------------
			 OPTKING Finished Execution 
			--------------------------
    Molecular point group: d2h
    Full point group: D_inf_h

    Geometry (in Angstrom), charge = 0, multiplicity = 1:

       Center              X                  Y                   Z       
    ------------   -----------------  -----------------  -----------------
           N          0.000000000000     0.000000000000    -0.541765986824
           N          0.000000000000     0.000000000000     0.541765986824

  -AO BASIS SET INFORMATION:
    Name                   = 3-21G
    Total number of shells = 10
    Number of primitives   = 18
    Number of AO           = 18
    Number of SO           = 18
    Maximum AM             = 1
    Spherical Harmonics    = FALSE

  -Contraction Scheme:
    Atom   Type   All Primitives // Shells:
   ------ ------ --------------------------
       1     N     6s 3p // 3s 2p 
       2     N     6s 3p // 3s 2p 

  -Basis set on unique center 1: N
     S (        242.76600000           2.62409200)
       (         36.48510000           3.73435921)
       (          7.81449000           2.35345410)
     S (          5.42522000          -1.04710105)
       (          1.14915000           0.96855007)
     P (          5.42522000           2.80858564)
       (          1.14915000           1.45673455)
     S (          0.28320500           0.27668510)
     P (          0.28320500           0.29448707)

  -Basis set on unique center 2: N
     S (        242.76600000           2.62409200)
       (         36.48510000           3.73435921)
       (          7.81449000           2.35345410)
     S (          5.42522000          -1.04710105)
       (          1.14915000           0.96855007)
     P (          5.42522000           2.80858564)
       (          1.14915000           1.45673455)
     S (          0.28320500           0.27668510)
     P (          0.28320500           0.29448707)


*** tstart() called on mac10147
*** at Tue Jul 10 20:36:08 2012

	There are an even number of electrons - assuming singlet.
	Specify the multiplicity with the MULTP option in the
	input if this is incorrect


         ---------------------------------------------------------
                                   SCF
            by Justin Turney, Rob Parrish, and Andy Simmonett
                              RHF Reference
                        1 Threads,    500 MiB Core
         ---------------------------------------------------------

  ==> Geometry <==

    Molecular point group: d2h
    Full point group: D_inf_h

    Geometry (in Angstrom), charge = 0, multiplicity = 1:

       Center              X                  Y                   Z       
    ------------   -----------------  -----------------  -----------------
           N          0.000000000000     0.000000000000    -0.541765986824
           N          0.000000000000     0.000000000000     0.541765986824

  Running in d2h symmetry.

  Nuclear repulsion =   23.930704263040351

  Charge       = 0
  Multiplicity = 1
  Electrons    = 14
  Nalpha       = 7
  Nbeta        = 7

  ==> Algorithm <==

  SCF Algorithm Type is PK.
  DIIS enabled.
  MOM disabled.
  Fractional occupation disabled.
  Guess Type is CORE.
  Energy threshold   = 1.00e-08
  Density threshold  = 1.00e-08
  Integral threshold = 0.00e+00

  ==> Primary Basis <==

  Basis Set: 3-21G
    Number of shells: 10
    Number of basis function: 18
    Number of Cartesian functions: 18
    Spherical Harmonics?: false
    Max angular momentum: 1

  ==> Pre-Iterations <==

   -------------------------------------------------------
    Irrep   Nso     Nmo     Nalpha   Nbeta   Ndocc  Nsocc
   -------------------------------------------------------
     Ag         5       5       0       0       0       0
     B1g        0       0       0       0       0       0
     B2g        2       2       0       0       0       0
     B3g        2       2       0       0       0       0
     Au         0       0       0       0       0       0
     B1u        5       5       0       0       0       0
     B2u        2       2       0       0       0       0
     B3u        2       2       0       0       0       0
   -------------------------------------------------------
    Total      18      18       7       7       7       0
   -------------------------------------------------------

  ==> Integral Setup <==

 MINTS: Wrapper to libmints.
   by Justin Turney

   Calculation information:
      Number of atoms:                   2
      Number of AO shells:              10
      Number of SO shells:               5
      Number of primitives:             18
      Number of atomic orbitals:        18
      Number of basis functions:        18

      Number of irreps:                  8
      Number of functions per irrep: [   5    0    2    2    0    5    2    2 ]

      Overlap, kinetic, potential, dipole, and quadrupole integrals
        stored in file 35.

      Computing two-electron integrals...done
      Computed 2376 non-zero two-electron integrals.
        Stored in file 33.

  Minimum eigenvalue in the overlap matrix is 1.5480623843E-02.
  Using Symmetric Orthogonalization.
  SCF Guess: Core (One-Electron) Hamiltonian.

  Initial RHF energy:   -78.67882665481284

  ==> Iterations <==

                        Total Energy        Delta E     Density RMS

   @RHF iter   1:   -99.05182067811003   -2.03730e+01   0.00000e+00 
	Occupation by irrep:
	         Ag   B1g   B2g   B3g    Au   B1u   B2u   B3u 
	DOCC [     3,    0,    0,    0,    0,    2,    1,    1 ]

   @RHF iter   2:  -106.95274873496192   -7.90093e+00   3.78865e-01 DIIS
   @RHF iter   3:  -108.23918514948420   -1.28644e+00   1.72426e-01 DIIS
   @RHF iter   4:  -108.29979025112215   -6.06051e-02   6.22740e-02 DIIS
   @RHF iter   5:  -108.30094519844917   -1.15495e-03   3.89593e-03 DIIS
   @RHF iter   6:  -108.30095194863648   -6.75019e-06   3.84769e-04 DIIS
   @RHF iter   7:  -108.30095199230564   -4.36692e-08   3.10757e-05 DIIS
   @RHF iter   8:  -108.30095199264190   -3.36257e-10   6.71420e-06 DIIS
   @RHF iter   9:  -108.30095199264539   -3.49587e-12   5.20625e-07 DIIS
   @RHF iter  10:  -108.30095199264542   -2.84217e-14   1.88144e-08 DIIS

  ==> Post-Iterations <==

	Orbital Energies (a.u.)
	-----------------------

	Doubly Occupied:                                                      

	   1Ag   -15.610512     1B1u  -15.609603     2Ag    -1.518592  
	   2B1u   -0.756999     1B2u   -0.619354     1B3u   -0.619354  
	   3Ag    -0.616183  

	Virtual:                                                              

	   1B3g    0.185643     1B2g    0.185643     3B1u    0.761429  
	   4Ag     1.193648     2B2u    1.276851     2B3u    1.276851  
	   2B3g    1.421919     2B2g    1.421919     4B1u    1.494366  
	   5Ag     1.844844     5B1u    2.583288  

	Final Occupation by Irrep:
	         Ag   B1g   B2g   B3g    Au   B1u   B2u   B3u 
	DOCC [     3,    0,    0,    0,    0,    2,    1,    1 ]

  Energy converged.

  @RHF Final Energy:  -108.30095199264542

   => Energetics <=

    Nuclear Repulsion Energy =         23.9307042630403508
    One-Electron Energy =            -193.7621180770520368
    Two-Electron Energy =              61.5304618213662806
    DFT Functional Energy =             0.0000000000000000
    Empirical Dispersion Energy =       0.0000000000000000
    Total Energy =                   -108.3009519926453947

  ==> Properties <==

  Nuclear Dipole Moment: (a.u.)
     X:     0.0000      Y:     0.0000      Z:     0.0000

  Electronic Dipole Moment: (a.u.)
     X:     0.0000      Y:     0.0000      Z:     0.0000

  Dipole Moment: (a.u.)
     X:     0.0000      Y:     0.0000      Z:     0.0000     Total:     0.0000

  Dipole Moment: (Debye)
     X:     0.0000      Y:     0.0000      Z:     0.0000     Total:     0.0000


  Saving occupied orbitals to File 180.

*** tstop() called on mac10147 at Tue Jul 10 20:36:08 2012
Module time:
	user time   =       0.03 seconds =       0.00 minutes
	system time =       0.00 seconds =       0.00 minutes
	total time  =          0 seconds =       0.00 minutes
Total time:
	user time   =       0.10 seconds =       0.00 minutes
	system time =       0.02 seconds =       0.00 minutes
	total time  =          0 seconds =       0.00 minutes

*** tstart() called on mac10147
*** at Tue Jul 10 20:36:08 2012

 DERIV: Derivative code.
   by Justin Turney

  Cartesian Displacement SALCs
  By SALC:
  Number of SALCs: 1, nirreps: 1
  Project out translations: False
  Project out rotations: False
	irrep = 0, ncomponent = 2
		0: atom 0, direction z, coef 0.707107
		1: atom 1, direction z, coef -0.707107

  By Atomic Center:
  Number of atomic centers: 2
   Atomic Center 0:
	x component, size = 0
	y component, size = 0
	z component, size = 1
		0: salc 0, irrep 0, coef 0.707107
   Atomic Center 1:
	x component, size = 0
	y component, size = 0
	z component, size = 1
		0: salc 0, irrep 0, coef -0.707107

    Molecular point group: d2h
    Full point group: D_inf_h

    Geometry (in Bohr), charge = 0, multiplicity = 1:

       Center              X                  Y                   Z       
    ------------   -----------------  -----------------  -----------------
           N          0.000000000000     0.000000000000    -1.023789343210
           N          0.000000000000     0.000000000000     1.023789343210


  -Nuclear Repulsion Energy 1st Derivatives:
     Atom            X                  Y                   Z
    ------   -----------------  -----------------  -----------------
       1        0.000000000000     0.000000000000    11.687318500512
       2        0.000000000000     0.000000000000   -11.687318500512


  -One-electron contribution to gradient:
     Atom            X                  Y                   Z
    ------   -----------------  -----------------  -----------------
       1        0.000000000000     0.000000000000   -26.423167246004
       2        0.000000000000     0.000000000000    26.423167246004


  -Lagrangian contribution to gradient:
     Atom            X                  Y                   Z
    ------   -----------------  -----------------  -----------------
       1        0.000000000000     0.000000000000     1.156156275439
       2        0.000000000000     0.000000000000    -1.156156275439


  -Two-electron contribution to gradient:
     Atom            X                  Y                   Z
    ------   -----------------  -----------------  -----------------
       1        0.000000000000     0.000000000000    13.577316042951
       2        0.000000000000     0.000000000000   -13.577316042951


  -Total gradient:
     Atom            X                  Y                   Z
    ------   -----------------  -----------------  -----------------
       1        0.000000000000     0.000000000000    -0.002376427102
       2        0.000000000000     0.000000000000     0.002376427102


*** tstop() called on mac10147 at Tue Jul 10 20:36:08 2012
Module time:
	user time   =       0.03 seconds =       0.00 minutes
	system time =       0.01 seconds =       0.00 minutes
	total time  =          0 seconds =       0.00 minutes
Total time:
	user time   =       0.13 seconds =       0.00 minutes
	system time =       0.03 seconds =       0.00 minutes
	total time  =          0 seconds =       0.00 minutes

			----------------------------------
			 OPTKING: for geometry optimizations  
			  - R.A. King,  Bethel University   
			------------------------------------

	Previous internal coordinate definitions found.
	---Fragment 1 Geometry and Gradient---
	 N           0.0000000000        0.0000000000       -1.0237893432
	 N           0.0000000000        0.0000000000        1.0237893432
	             0.0000000000        0.0000000000       -0.0023764271
	             0.0000000000        0.0000000000        0.0023764271

	---Fragment 1 Intrafragment Coordinates---
	 - Coordinate -           - BOHR/RAD -       - ANG/DEG -
	 R(1,2)           =         2.047579	       1.083532

	Current energy   :      -108.3009519926

	Energy change for the previous step:
		Projected    :        -0.0008565575
		Actual       :        -0.0009104668
	Energy ratio indicates good step: Trust radius increased to 8.000e-01.


	Performing BFGS update with previous 1 gradient(s).
	Going to follow RFO solution 1.
	Projected energy change by RFO approximation:        -0.0000016683

	Back-transformation to cartesian coordinates...
	Successfully converged to displaced geometry.

	---Internal Coordinate Step in ANG or DEG, aJ/ANG or AJ/DEG ---
	 ----------------------------------------------------------------------
	 Coordinate             Previous        Force       Change         New 
	 ----------             --------       ------       ------       ------
	 R(1,2)          =      1.083532    -0.019579    -0.000743     1.082789
	 ----------------------------------------------------------------------

  ==> Convergence Check <==

  Measures of convergence in internal coordinates in au.
  Criteria marked as inactive (o), active & met (*), and active & unmet ( ).
  ---------------------------------------------------------------------------------------------
   Step     Total Energy     Delta E     MAX Force     RMS Force      MAX Disp      RMS Disp   
  ---------------------------------------------------------------------------------------------
    Convergence Criteria    1.00e-06 *    3.00e-04 *             o    1.00e-05 *             o
  ---------------------------------------------------------------------------------------------
      2    -108.30095199   -9.10e-04      2.38e-03      2.38e-03 o    1.40e-03      1.40e-03 o  ~
  ---------------------------------------------------------------------------------------------

	Writing optimization data to binary file.
	Structure for next step:
	Cartesian Geometry (au)
	    N     0.0000000000   0.0000000000  -1.0230873175
	    N     0.0000000000   0.0000000000   1.0230873175
			--------------------------
			 OPTKING Finished Execution 
			--------------------------
    Molecular point group: d2h
    Full point group: D_inf_h

    Geometry (in Angstrom), charge = 0, multiplicity = 1:

       Center              X                  Y                   Z       
    ------------   -----------------  -----------------  -----------------
           N          0.000000000000     0.000000000000    -0.541394490808
           N          0.000000000000     0.000000000000     0.541394490808

  -AO BASIS SET INFORMATION:
    Name                   = 3-21G
    Total number of shells = 10
    Number of primitives   = 18
    Number of AO           = 18
    Number of SO           = 18
    Maximum AM             = 1
    Spherical Harmonics    = FALSE

  -Contraction Scheme:
    Atom   Type   All Primitives // Shells:
   ------ ------ --------------------------
       1     N     6s 3p // 3s 2p 
       2     N     6s 3p // 3s 2p 

  -Basis set on unique center 1: N
     S (        242.76600000           2.62409200)
       (         36.48510000           3.73435921)
       (          7.81449000           2.35345410)
     S (          5.42522000          -1.04710105)
       (          1.14915000           0.96855007)
     P (          5.42522000           2.80858564)
       (          1.14915000           1.45673455)
     S (          0.28320500           0.27668510)
     P (          0.28320500           0.29448707)

  -Basis set on unique center 2: N
     S (        242.76600000           2.62409200)
       (         36.48510000           3.73435921)
       (          7.81449000           2.35345410)
     S (          5.42522000          -1.04710105)
       (          1.14915000           0.96855007)
     P (          5.42522000           2.80858564)
       (          1.14915000           1.45673455)
     S (          0.28320500           0.27668510)
     P (          0.28320500           0.29448707)


*** tstart() called on mac10147
*** at Tue Jul 10 20:36:08 2012

	There are an even number of electrons - assuming singlet.
	Specify the multiplicity with the MULTP option in the
	input if this is incorrect


         ---------------------------------------------------------
                                   SCF
            by Justin Turney, Rob Parrish, and Andy Simmonett
                              RHF Reference
                        1 Threads,    500 MiB Core
         ---------------------------------------------------------

  ==> Geometry <==

    Molecular point group: d2h
    Full point group: D_inf_h

    Geometry (in Angstrom), charge = 0, multiplicity = 1:

       Center              X                  Y                   Z       
    ------------   -----------------  -----------------  -----------------
           N          0.000000000000     0.000000000000    -0.541394490808
           N          0.000000000000     0.000000000000     0.541394490808

  Running in d2h symmetry.

  Nuclear repulsion =   23.947125119635331

  Charge       = 0
  Multiplicity = 1
  Electrons    = 14
  Nalpha       = 7
  Nbeta        = 7

  ==> Algorithm <==

  SCF Algorithm Type is PK.
  DIIS enabled.
  MOM disabled.
  Fractional occupation disabled.
  Guess Type is CORE.
  Energy threshold   = 1.00e-08
  Density threshold  = 1.00e-08
  Integral threshold = 0.00e+00

  ==> Primary Basis <==

  Basis Set: 3-21G
    Number of shells: 10
    Number of basis function: 18
    Number of Cartesian functions: 18
    Spherical Harmonics?: false
    Max angular momentum: 1

  ==> Pre-Iterations <==

   -------------------------------------------------------
    Irrep   Nso     Nmo     Nalpha   Nbeta   Ndocc  Nsocc
   -------------------------------------------------------
     Ag         5       5       0       0       0       0
     B1g        0       0       0       0       0       0
     B2g        2       2       0       0       0       0
     B3g        2       2       0       0       0       0
     Au         0       0       0       0       0       0
     B1u        5       5       0       0       0       0
     B2u        2       2       0       0       0       0
     B3u        2       2       0       0       0       0
   -------------------------------------------------------
    Total      18      18       7       7       7       0
   -------------------------------------------------------

  ==> Integral Setup <==

 MINTS: Wrapper to libmints.
   by Justin Turney

   Calculation information:
      Number of atoms:                   2
      Number of AO shells:              10
      Number of SO shells:               5
      Number of primitives:             18
      Number of atomic orbitals:        18
      Number of basis functions:        18

      Number of irreps:                  8
      Number of functions per irrep: [   5    0    2    2    0    5    2    2 ]

      Overlap, kinetic, potential, dipole, and quadrupole integrals
        stored in file 35.

      Computing two-electron integrals...done
      Computed 2376 non-zero two-electron integrals.
        Stored in file 33.

  Minimum eigenvalue in the overlap matrix is 1.5428556353E-02.
  Using Symmetric Orthogonalization.
  SCF Guess: Core (One-Electron) Hamiltonian.

  Initial RHF energy:   -78.67785275082198

  ==> Iterations <==

                        Total Energy        Delta E     Density RMS

   @RHF iter   1:   -99.04817342063151   -2.03703e+01   0.00000e+00 
	Occupation by irrep:
	         Ag   B1g   B2g   B3g    Au   B1u   B2u   B3u 
	DOCC [     3,    0,    0,    0,    0,    2,    1,    1 ]

   @RHF iter   2:  -106.95155002411821   -7.90338e+00   3.79114e-01 DIIS
   @RHF iter   3:  -108.23915779010991   -1.28761e+00   1.72673e-01 DIIS
   @RHF iter   4:  -108.29979007367498   -6.06323e-02   6.23680e-02 DIIS
   @RHF iter   5:  -108.30094675388315   -1.15668e-03   3.90300e-03 DIIS
   @RHF iter   6:  -108.30095350867316   -6.75479e-06   3.84012e-04 DIIS
   @RHF iter   7:  -108.30095355228934   -4.36162e-08   3.08647e-05 DIIS
   @RHF iter   8:  -108.30095355262230   -3.32960e-10   6.68473e-06 DIIS
   @RHF iter   9:  -108.30095355262583   -3.52429e-12   5.20482e-07 DIIS
   @RHF iter  10:  -108.30095355262586   -2.84217e-14   1.88385e-08 DIIS

  ==> Post-Iterations <==

	Orbital Energies (a.u.)
	-----------------------

	Doubly Occupied:                                                      

	   1Ag   -15.610278     1B1u  -15.609351     2Ag    -1.519174  
	   2B1u   -0.756748     1B2u   -0.619665     1B3u   -0.619665  
	   3Ag    -0.616274  

	Virtual:                                                              

	   1B3g    0.186070     1B2g    0.186070     3B1u    0.762146  
	   4Ag     1.192989     2B2u    1.276683     2B3u    1.276683  
	   2B3g    1.422132     2B2g    1.422132     4B1u    1.495577  
	   5Ag     1.844633     5B1u    2.584379  

	Final Occupation by Irrep:
	         Ag   B1g   B2g   B3g    Au   B1u   B2u   B3u 
	DOCC [     3,    0,    0,    0,    0,    2,    1,    1 ]

  Energy converged.

  @RHF Final Energy:  -108.30095355262586

   => Energetics <=

    Nuclear Repulsion Energy =         23.9471251196353307
    One-Electron Energy =            -193.7938497746052917
    Two-Electron Energy =              61.5457711023441405
    DFT Functional Energy =             0.0000000000000000
    Empirical Dispersion Energy =       0.0000000000000000
    Total Energy =                   -108.3009535526258276

  ==> Properties <==

  Nuclear Dipole Moment: (a.u.)
     X:     0.0000      Y:     0.0000      Z:     0.0000

  Electronic Dipole Moment: (a.u.)
     X:     0.0000      Y:     0.0000      Z:     0.0000

  Dipole Moment: (a.u.)
     X:     0.0000      Y:     0.0000      Z:     0.0000     Total:     0.0000

  Dipole Moment: (Debye)
     X:     0.0000      Y:     0.0000      Z:     0.0000     Total:     0.0000


  Saving occupied orbitals to File 180.

*** tstop() called on mac10147 at Tue Jul 10 20:36:09 2012
Module time:
	user time   =       0.03 seconds =       0.00 minutes
	system time =       0.01 seconds =       0.00 minutes
	total time  =          1 seconds =       0.02 minutes
Total time:
	user time   =       0.17 seconds =       0.00 minutes
	system time =       0.04 seconds =       0.00 minutes
	total time  =          1 seconds =       0.02 minutes

*** tstart() called on mac10147
*** at Tue Jul 10 20:36:09 2012

 DERIV: Derivative code.
   by Justin Turney

  Cartesian Displacement SALCs
  By SALC:
  Number of SALCs: 1, nirreps: 1
  Project out translations: False
  Project out rotations: False
	irrep = 0, ncomponent = 2
		0: atom 0, direction z, coef 0.707107
		1: atom 1, direction z, coef -0.707107

  By Atomic Center:
  Number of atomic centers: 2
   Atomic Center 0:
	x component, size = 0
	y component, size = 0
	z component, size = 1
		0: salc 0, irrep 0, coef 0.707107
   Atomic Center 1:
	x component, size = 0
	y component, size = 0
	z component, size = 1
		0: salc 0, irrep 0, coef -0.707107

    Molecular point group: d2h
    Full point group: D_inf_h

    Geometry (in Bohr), charge = 0, multiplicity = 1:

       Center              X                  Y                   Z       
    ------------   -----------------  -----------------  -----------------
           N          0.000000000000     0.000000000000    -1.023087317480
           N          0.000000000000     0.000000000000     1.023087317480


  -Nuclear Repulsion Energy 1st Derivatives:
     Atom            X                  Y                   Z
    ------   -----------------  -----------------  -----------------
       1        0.000000000000     0.000000000000    11.703363295826
       2        0.000000000000     0.000000000000   -11.703363295826


  -One-electron contribution to gradient:
     Atom            X                  Y                   Z
    ------   -----------------  -----------------  -----------------
       1        0.000000000000     0.000000000000   -26.451246968748
       2        0.000000000000     0.000000000000    26.451246968748


  -Lagrangian contribution to gradient:
     Atom            X                  Y                   Z
    ------   -----------------  -----------------  -----------------
       1        0.000000000000     0.000000000000     1.157485208930
       2        0.000000000000     0.000000000000    -1.157485208930


  -Two-electron contribution to gradient:
     Atom            X                  Y                   Z
    ------   -----------------  -----------------  -----------------
       1        0.000000000000     0.000000000000    13.590555105162
       2        0.000000000000     0.000000000000   -13.590555105162


  -Total gradient:
     Atom            X                  Y                   Z
    ------   -----------------  -----------------  -----------------
       1        0.000000000000     0.000000000000     0.000156641170
       2        0.000000000000     0.000000000000    -0.000156641170


*** tstop() called on mac10147 at Tue Jul 10 20:36:09 2012
Module time:
	user time   =       0.04 seconds =       0.00 minutes
	system time =       0.00 seconds =       0.00 minutes
	total time  =          0 seconds =       0.00 minutes
Total time:
	user time   =       0.21 seconds =       0.00 minutes
	system time =       0.04 seconds =       0.00 minutes
	total time  =          1 seconds =       0.02 minutes

			----------------------------------
			 OPTKING: for geometry optimizations  
			  - R.A. King,  Bethel University   
			------------------------------------

	Previous internal coordinate definitions found.
	---Fragment 1 Geometry and Gradient---
	 N           0.0000000000        0.0000000000       -1.0230873175
	 N           0.0000000000        0.0000000000        1.0230873175
	             0.0000000000        0.0000000000        0.0001566412
	             0.0000000000        0.0000000000       -0.0001566412

	---Fragment 1 Intrafragment Coordinates---
	 - Coordinate -           - BOHR/RAD -       - ANG/DEG -
	 R(1,2)           =         2.046175	       1.082789

	Current energy   :      -108.3009535526

	Energy change for the previous step:
		Projected    :        -0.0000016683
		Actual       :        -0.0000015600
	Energy ratio indicates good step: Trust radius increased to 1.000e+00.


	Performing BFGS update with previous 1 gradient(s).
	Going to follow RFO solution 1.
	Projected energy change by RFO approximation:        -0.0000000068

	Back-transformation to cartesian coordinates...
	Successfully converged to displaced geometry.

	---Internal Coordinate Step in ANG or DEG, aJ/ANG or AJ/DEG ---
	 ----------------------------------------------------------------------
	 Coordinate             Previous        Force       Change         New 
	 ----------             --------       ------       ------       ------
	 R(1,2)          =      1.082789     0.001291     0.000046     1.082835
	 ----------------------------------------------------------------------

  ==> Convergence Check <==

  Measures of convergence in internal coordinates in au.
  Criteria marked as inactive (o), active & met (*), and active & unmet ( ).
  ---------------------------------------------------------------------------------------------
   Step     Total Energy     Delta E     MAX Force     RMS Force      MAX Disp      RMS Disp   
  ---------------------------------------------------------------------------------------------
    Convergence Criteria    1.00e-06 *    3.00e-04 *             o    1.00e-05 *             o
  ---------------------------------------------------------------------------------------------
      3    -108.30095355   -1.56e-06      1.57e-04 *    1.57e-04 o    8.68e-05      8.68e-05 o  ~
  ---------------------------------------------------------------------------------------------

	Writing optimization data to binary file.
	Structure for next step:
	Cartesian Geometry (au)
	    N     0.0000000000   0.0000000000  -1.0231307297
	    N     0.0000000000   0.0000000000   1.0231307297
			--------------------------
			 OPTKING Finished Execution 
			--------------------------
    Molecular point group: d2h
    Full point group: D_inf_h

    Geometry (in Angstrom), charge = 0, multiplicity = 1:

       Center              X                  Y                   Z       
    ------------   -----------------  -----------------  -----------------
           N          0.000000000000     0.000000000000    -0.541417463568
           N          0.000000000000     0.000000000000     0.541417463568

  -AO BASIS SET INFORMATION:
    Name                   = 3-21G
    Total number of shells = 10
    Number of primitives   = 18
    Number of AO           = 18
    Number of SO           = 18
    Maximum AM             = 1
    Spherical Harmonics    = FALSE

  -Contraction Scheme:
    Atom   Type   All Primitives // Shells:
   ------ ------ --------------------------
       1     N     6s 3p // 3s 2p 
       2     N     6s 3p // 3s 2p 

  -Basis set on unique center 1: N
     S (        242.76600000           2.62409200)
       (         36.48510000           3.73435921)
       (          7.81449000           2.35345410)
     S (          5.42522000          -1.04710105)
       (          1.14915000           0.96855007)
     P (          5.42522000           2.80858564)
       (          1.14915000           1.45673455)
     S (          0.28320500           0.27668510)
     P (          0.28320500           0.29448707)

  -Basis set on unique center 2: N
     S (        242.76600000           2.62409200)
       (         36.48510000           3.73435921)
       (          7.81449000           2.35345410)
     S (          5.42522000          -1.04710105)
       (          1.14915000           0.96855007)
     P (          5.42522000           2.80858564)
       (          1.14915000           1.45673455)
     S (          0.28320500           0.27668510)
     P (          0.28320500           0.29448707)


*** tstart() called on mac10147
*** at Tue Jul 10 20:36:09 2012

	There are an even number of electrons - assuming singlet.
	Specify the multiplicity with the MULTP option in the
	input if this is incorrect


         ---------------------------------------------------------
                                   SCF
            by Justin Turney, Rob Parrish, and Andy Simmonett
                              RHF Reference
                        1 Threads,    500 MiB Core
         ---------------------------------------------------------

  ==> Geometry <==

    Molecular point group: d2h
    Full point group: D_inf_h

    Geometry (in Angstrom), charge = 0, multiplicity = 1:

       Center              X                  Y                   Z       
    ------------   -----------------  -----------------  -----------------
           N          0.000000000000     0.000000000000    -0.541417463568
           N          0.000000000000     0.000000000000     0.541417463568

  Running in d2h symmetry.

  Nuclear repulsion =   23.946109024661716

  Charge       = 0
  Multiplicity = 1
  Electrons    = 14
  Nalpha       = 7
  Nbeta        = 7

  ==> Algorithm <==

  SCF Algorithm Type is PK.
  DIIS enabled.
  MOM disabled.
  Fractional occupation disabled.
  Guess Type is CORE.
  Energy threshold   = 1.00e-08
  Density threshold  = 1.00e-08
  Integral threshold = 0.00e+00

  ==> Primary Basis <==

  Basis Set: 3-21G
    Number of shells: 10
    Number of basis function: 18
    Number of Cartesian functions: 18
    Spherical Harmonics?: false
    Max angular momentum: 1

  ==> Pre-Iterations <==

   -------------------------------------------------------
    Irrep   Nso     Nmo     Nalpha   Nbeta   Ndocc  Nsocc
   -------------------------------------------------------
     Ag         5       5       0       0       0       0
     B1g        0       0       0       0       0       0
     B2g        2       2       0       0       0       0
     B3g        2       2       0       0       0       0
     Au         0       0       0       0       0       0
     B1u        5       5       0       0       0       0
     B2u        2       2       0       0       0       0
     B3u        2       2       0       0       0       0
   -------------------------------------------------------
    Total      18      18       7       7       7       0
   -------------------------------------------------------

  ==> Integral Setup <==

 MINTS: Wrapper to libmints.
   by Justin Turney

   Calculation information:
      Number of atoms:                   2
      Number of AO shells:              10
      Number of SO shells:               5
      Number of primitives:             18
      Number of atomic orbitals:        18
      Number of basis functions:        18

      Number of irreps:                  8
      Number of functions per irrep: [   5    0    2    2    0    5    2    2 ]

      Overlap, kinetic, potential, dipole, and quadrupole integrals
        stored in file 35.

      Computing two-electron integrals...done
      Computed 2376 non-zero two-electron integrals.
        Stored in file 33.

  Minimum eigenvalue in the overlap matrix is 1.5431772733E-02.
  Using Symmetric Orthogonalization.
  SCF Guess: Core (One-Electron) Hamiltonian.

  Initial RHF energy:   -78.67791324269101

  ==> Iterations <==

                        Total Energy        Delta E     Density RMS

   @RHF iter   1:   -99.04839893527981   -2.03705e+01   0.00000e+00 
	Occupation by irrep:
	         Ag   B1g   B2g   B3g    Au   B1u   B2u   B3u 
	DOCC [     3,    0,    0,    0,    0,    2,    1,    1 ]

   @RHF iter   2:  -106.95162418647840   -7.90323e+00   3.79099e-01 DIIS
   @RHF iter   3:  -108.23915957002754   -1.28754e+00   1.72658e-01 DIIS
   @RHF iter   4:  -108.29979018791141   -6.06306e-02   6.23622e-02 DIIS
   @RHF iter   5:  -108.30094676094586   -1.15657e-03   3.90256e-03 DIIS
   @RHF iter   6:  -108.30095351545205   -6.75451e-06   3.84059e-04 DIIS
   @RHF iter   7:  -108.30095355907142   -4.36194e-08   3.08777e-05 DIIS
   @RHF iter   8:  -108.30095355940455   -3.33131e-10   6.68657e-06 DIIS
   @RHF iter   9:  -108.30095355940810   -3.55271e-12   5.20493e-07 DIIS
   @RHF iter  10:  -108.30095355940813   -2.84217e-14   1.88370e-08 DIIS

  ==> Post-Iterations <==

	Orbital Energies (a.u.)
	-----------------------

	Doubly Occupied:                                                      

	   1Ag   -15.610292     1B1u  -15.609367     2Ag    -1.519138  
	   2B1u   -0.756763     1B2u   -0.619646     1B3u   -0.619646  
	   3Ag    -0.616268  

	Virtual:                                                              

	   1B3g    0.186044     1B2g    0.186044     3B1u    0.762102  
	   4Ag     1.193030     2B2u    1.276693     2B3u    1.276693  
	   2B3g    1.422119     2B2g    1.422119     4B1u    1.495502  
	   5Ag     1.844646     5B1u    2.584311  

	Final Occupation by Irrep:
	         Ag   B1g   B2g   B3g    Au   B1u   B2u   B3u 
	DOCC [     3,    0,    0,    0,    0,    2,    1,    1 ]

  Energy converged.

  @RHF Final Energy:  -108.30095355940813

   => Energetics <=

    Nuclear Repulsion Energy =         23.9461090246617161
    One-Electron Energy =            -193.7918864414490656
    Two-Electron Energy =              61.5448238573792210
    DFT Functional Energy =             0.0000000000000000
    Empirical Dispersion Energy =       0.0000000000000000
    Total Energy =                   -108.3009535594081285

  ==> Properties <==

  Nuclear Dipole Moment: (a.u.)
     X:     0.0000      Y:     0.0000      Z:     0.0000

  Electronic Dipole Moment: (a.u.)
     X:     0.0000      Y:     0.0000      Z:     0.0000

  Dipole Moment: (a.u.)
     X:     0.0000      Y:     0.0000      Z:     0.0000     Total:     0.0000

  Dipole Moment: (Debye)
     X:     0.0000      Y:     0.0000      Z:     0.0000     Total:     0.0000


  Saving occupied orbitals to File 180.

*** tstop() called on mac10147 at Tue Jul 10 20:36:09 2012
Module time:
	user time   =       0.03 seconds =       0.00 minutes
	system time =       0.01 seconds =       0.00 minutes
	total time  =          0 seconds =       0.00 minutes
Total time:
	user time   =       0.25 seconds =       0.00 minutes
	system time =       0.05 seconds =       0.00 minutes
	total time  =          1 seconds =       0.02 minutes

*** tstart() called on mac10147
*** at Tue Jul 10 20:36:09 2012

 DERIV: Derivative code.
   by Justin Turney

  Cartesian Displacement SALCs
  By SALC:
  Number of SALCs: 1, nirreps: 1
  Project out translations: False
  Project out rotations: False
	irrep = 0, ncomponent = 2
		0: atom 0, direction z, coef 0.707107
		1: atom 1, direction z, coef -0.707107

  By Atomic Center:
  Number of atomic centers: 2
   Atomic Center 0:
	x component, size = 0
	y component, size = 0
	z component, size = 1
		0: salc 0, irrep 0, coef 0.707107
   Atomic Center 1:
	x component, size = 0
	y component, size = 0
	z component, size = 1
		0: salc 0, irrep 0, coef -0.707107

    Molecular point group: d2h
    Full point group: D_inf_h

    Geometry (in Bohr), charge = 0, multiplicity = 1:

       Center              X                  Y                   Z       
    ------------   -----------------  -----------------  -----------------
           N          0.000000000000     0.000000000000    -1.023130729705
           N          0.000000000000     0.000000000000     1.023130729705


  -Nuclear Repulsion Energy 1st Derivatives:
     Atom            X                  Y                   Z
    ------   -----------------  -----------------  -----------------
       1        0.000000000000     0.000000000000    11.702370151449
       2        0.000000000000     0.000000000000   -11.702370151449


  -One-electron contribution to gradient:
     Atom            X                  Y                   Z
    ------   -----------------  -----------------  -----------------
       1        0.000000000000     0.000000000000   -26.449510255571
       2        0.000000000000     0.000000000000    26.449510255571


  -Lagrangian contribution to gradient:
     Atom            X                  Y                   Z
    ------   -----------------  -----------------  -----------------
       1        0.000000000000     0.000000000000     1.157403110785
       2        0.000000000000     0.000000000000    -1.157403110785


  -Two-electron contribution to gradient:
     Atom            X                  Y                   Z
    ------   -----------------  -----------------  -----------------
       1        0.000000000000     0.000000000000    13.589736587874
       2        0.000000000000     0.000000000000   -13.589736587874


  -Total gradient:
     Atom            X                  Y                   Z
    ------   -----------------  -----------------  -----------------
       1        0.000000000000     0.000000000000    -0.000000405463
       2        0.000000000000     0.000000000000     0.000000405463


*** tstop() called on mac10147 at Tue Jul 10 20:36:09 2012
Module time:
	user time   =       0.03 seconds =       0.00 minutes
	system time =       0.00 seconds =       0.00 minutes
	total time  =          0 seconds =       0.00 minutes
Total time:
	user time   =       0.28 seconds =       0.00 minutes
	system time =       0.05 seconds =       0.00 minutes
	total time  =          1 seconds =       0.02 minutes

			----------------------------------
			 OPTKING: for geometry optimizations  
			  - R.A. King,  Bethel University   
			------------------------------------

	Previous internal coordinate definitions found.
	---Fragment 1 Geometry and Gradient---
	 N           0.0000000000        0.0000000000       -1.0231307297
	 N           0.0000000000        0.0000000000        1.0231307297
	             0.0000000000        0.0000000000       -0.0000004055
	             0.0000000000        0.0000000000        0.0000004055

	---Fragment 1 Intrafragment Coordinates---
	 - Coordinate -           - BOHR/RAD -       - ANG/DEG -
	 R(1,2)           =         2.046261	       1.082835

	Current energy   :      -108.3009535594

	Energy change for the previous step:
		Projected    :        -0.0000000068
		Actual       :        -0.0000000068

	Performing BFGS update with previous 1 gradient(s).
	Denominators (dg)(dq) or (dq)(dq) are very small.
	 Skipping Hessian update for step 3.
	Going to follow RFO solution 1.
	Projected energy change by RFO approximation:        -0.0000000000

	Back-transformation to cartesian coordinates...
	Successfully converged to displaced geometry.

	---Internal Coordinate Step in ANG or DEG, aJ/ANG or AJ/DEG ---
	 ----------------------------------------------------------------------
	 Coordinate             Previous        Force       Change         New 
	 ----------             --------       ------       ------       ------
	 R(1,2)          =      1.082835    -0.000003    -0.000000     1.082835
	 ----------------------------------------------------------------------

  ==> Convergence Check <==

  Measures of convergence in internal coordinates in au.
  Criteria marked as inactive (o), active & met (*), and active & unmet ( ).
  ---------------------------------------------------------------------------------------------
   Step     Total Energy     Delta E     MAX Force     RMS Force      MAX Disp      RMS Disp   
  ---------------------------------------------------------------------------------------------
    Convergence Criteria    1.00e-06 *    3.00e-04 *             o    1.00e-05 *             o
  ---------------------------------------------------------------------------------------------
      4    -108.30095356   -6.78e-09 *    4.05e-07 *    4.05e-07 o    2.25e-07 *    2.25e-07 o  ~
  ---------------------------------------------------------------------------------------------


  **** Optimization is complete! ****

  ==> Optimization Summary <==

  Measures of convergence in internal coordinates in au.
  --------------------------------------------------------------------------------------------------------------- ~
   Step         Total Energy             Delta E       MAX Force       RMS Force        MAX Disp        RMS Disp  ~
  --------------------------------------------------------------------------------------------------------------- ~
      1    -108.300041525816   -108.300041525816      0.05504858      0.05504858      0.03112006      0.03112006  ~
      2    -108.300951992645     -0.000910466830      0.00237643      0.00237643      0.00140405      0.00140405  ~
      3    -108.300953552626     -0.000001559980      0.00015664      0.00015664      0.00008682      0.00008682  ~
      4    -108.300953559408     -0.000000006782      0.00000041      0.00000041      0.00000022      0.00000022  ~
  --------------------------------------------------------------------------------------------------------------- ~

	Writing optimization data to binary file.
	Final energy is   -108.3009535594081
	Final (previous) structure:
	Cartesian Geometry (au)
	    N     0.0000000000   0.0000000000  -1.0231307297
	    N     0.0000000000   0.0000000000   1.0231307297
	Saving final (previous) structure.
			--------------------------
			 OPTKING Finished Execution 
			--------------------------

	Final optimized geometry and variables (in Angstrom):

	N
	N     1    1.082835


-------------------------------------------------------------

  Using finite-differences of gradients to determine vibrational frequencies and 
  normal modes.  Resulting frequencies are only valid at stationary points.
	Generating geometries for use with 3-point formula.
	Displacement size will be 5.00e-03.
	Number of atoms is 2.
	Number of irreps is 8.
	Number of SALCS is 1.
	Index of salcs per irrep:
	 1 :  0 
	 2 : 
	 3 : 
	 4 : 
	 5 : 
	 6 : 
	 7 : 
	 8 : 
	Number of SALC's per irrep:
		 Irrep 1: 1
		 Irrep 2: 0
		 Irrep 3: 0
		 Irrep 4: 0
		 Irrep 5: 0
		 Irrep 6: 0
		 Irrep 7: 0
		 Irrep 8: 0
	Number of geometries (including reference) is 3.
	Number of displacements per irrep:
	  Irrep 1: 2
	  Irrep 2: 0
	  Irrep 3: 0
	  Irrep 4: 0
	  Irrep 5: 0
	  Irrep 6: 0
	  Irrep 7: 0
	  Irrep 8: 0

-------------------------------------------------------------

  //>>>>>>>>>>>>>>>>>>>>>>>>>>>>>>>>>>>//
  //    Loading displacement 1 of 3    //
  //<<<<<<<<<<<<<<<<<<<<<<<<<<<<<<<<<<<//
    Molecular point group: d2h
    Full point group: D_inf_h

    Geometry (in Angstrom), charge = 0, multiplicity = 1:

       Center              X                  Y                   Z       
    ------------   -----------------  -----------------  -----------------
           N          0.000000000000     0.000000000000    -0.541917434143
           N          0.000000000000     0.000000000000     0.541917434143

  -AO BASIS SET INFORMATION:
    Name                   = 3-21G
    Total number of shells = 10
    Number of primitives   = 18
    Number of AO           = 18
    Number of SO           = 18
    Maximum AM             = 1
    Spherical Harmonics    = FALSE

  -Contraction Scheme:
    Atom   Type   All Primitives // Shells:
   ------ ------ --------------------------
       1     N     6s 3p // 3s 2p 
       2     N     6s 3p // 3s 2p 

  -Basis set on unique center 1: N
     S (        242.76600000           2.62409200)
       (         36.48510000           3.73435921)
       (          7.81449000           2.35345410)
     S (          5.42522000          -1.04710105)
       (          1.14915000           0.96855007)
     P (          5.42522000           2.80858564)
       (          1.14915000           1.45673455)
     S (          0.28320500           0.27668510)
     P (          0.28320500           0.29448707)

  -Basis set on unique center 2: N
     S (        242.76600000           2.62409200)
       (         36.48510000           3.73435921)
       (          7.81449000           2.35345410)
     S (          5.42522000          -1.04710105)
       (          1.14915000           0.96855007)
     P (          5.42522000           2.80858564)
       (          1.14915000           1.45673455)
     S (          0.28320500           0.27668510)
     P (          0.28320500           0.29448707)


*** tstart() called on mac10147
*** at Tue Jul 10 20:36:09 2012

	There are an even number of electrons - assuming singlet.
	Specify the multiplicity with the MULTP option in the
	input if this is incorrect


         ---------------------------------------------------------
                                   SCF
            by Justin Turney, Rob Parrish, and Andy Simmonett
                              RHF Reference
                        1 Threads,    500 MiB Core
         ---------------------------------------------------------

  ==> Geometry <==

    Molecular point group: d2h
    Full point group: D_inf_h

    Geometry (in Angstrom), charge = 0, multiplicity = 1:

       Center              X                  Y                   Z       
    ------------   -----------------  -----------------  -----------------
           N          0.000000000000     0.000000000000    -0.541917434143
           N          0.000000000000     0.000000000000     0.541917434143

  Running in d2h symmetry.

  Nuclear repulsion =   23.924016452713747

  Charge       = 0
  Multiplicity = 1
  Electrons    = 14
  Nalpha       = 7
  Nbeta        = 7

  ==> Algorithm <==

  SCF Algorithm Type is PK.
  DIIS enabled.
  MOM disabled.
  Fractional occupation disabled.
  Guess Type is CORE.
  Energy threshold   = 1.00e-08
  Density threshold  = 1.00e-08
  Integral threshold = 0.00e+00

  ==> Primary Basis <==

  Basis Set: 3-21G
    Number of shells: 10
    Number of basis function: 18
    Number of Cartesian functions: 18
    Spherical Harmonics?: false
    Max angular momentum: 1

  ==> Pre-Iterations <==

   -------------------------------------------------------
    Irrep   Nso     Nmo     Nalpha   Nbeta   Ndocc  Nsocc
   -------------------------------------------------------
     Ag         5       5       0       0       0       0
     B1g        0       0       0       0       0       0
     B2g        2       2       0       0       0       0
     B3g        2       2       0       0       0       0
     Au         0       0       0       0       0       0
     B1u        5       5       0       0       0       0
     B2u        2       2       0       0       0       0
     B3u        2       2       0       0       0       0
   -------------------------------------------------------
    Total      18      18       7       7       7       0
   -------------------------------------------------------

  ==> Integral Setup <==

 MINTS: Wrapper to libmints.
   by Justin Turney

   Calculation information:
      Number of atoms:                   2
      Number of AO shells:              10
      Number of SO shells:               5
      Number of primitives:             18
      Number of atomic orbitals:        18
      Number of basis functions:        18

      Number of irreps:                  8
      Number of functions per irrep: [   5    0    2    2    0    5    2    2 ]

      Overlap, kinetic, potential, dipole, and quadrupole integrals
        stored in file 35.

      Computing two-electron integrals...done
      Computed 2376 non-zero two-electron integrals.
        Stored in file 33.

  Minimum eigenvalue in the overlap matrix is 1.5501883733E-02.
  Using Symmetric Orthogonalization.
  SCF Guess: Core (One-Electron) Hamiltonian.

  Initial RHF energy:   -78.67922104805906

  ==> Iterations <==

                        Total Energy        Delta E     Density RMS

   @RHF iter   1:   -99.05330779033896   -2.03741e+01   0.00000e+00 
	Occupation by irrep:
	         Ag   B1g   B2g   B3g    Au   B1u   B2u   B3u 
	DOCC [     3,    0,    0,    0,    0,    2,    1,    1 ]

   @RHF iter   2:  -106.95323705150608   -7.89993e+00   3.78764e-01 DIIS
   @RHF iter   3:  -108.23919543360648   -1.28596e+00   1.72325e-01 DIIS
   @RHF iter   4:  -108.29978930452873   -6.05939e-02   6.22356e-02 DIIS
   @RHF iter   5:  -108.30094354556834   -1.15424e-03   3.89305e-03 DIIS
   @RHF iter   6:  -108.30095029387138   -6.74830e-06   3.85075e-04 DIIS
   @RHF iter   7:  -108.30095033756263   -4.36912e-08   3.11617e-05 DIIS
   @RHF iter   8:  -108.30095033790036   -3.37735e-10   6.72609e-06 DIIS
   @RHF iter   9:  -108.30095033790386   -3.49587e-12   5.20667e-07 DIIS
   @RHF iter  10:  -108.30095033790386    0.00000e+00   1.88046e-08 DIIS

  ==> Post-Iterations <==

	Orbital Energies (a.u.)
	-----------------------

	Doubly Occupied:                                                      

	   1Ag   -15.610607     1B1u  -15.609705     2Ag    -1.518354  
	   2B1u   -0.757101     1B2u   -0.619228     1B3u   -0.619228  
	   3Ag    -0.616146  

	Virtual:                                                              

	   1B3g    0.185468     1B2g    0.185468     3B1u    0.761135  
	   4Ag     1.193917     2B2u    1.276919     2B3u    1.276919  
	   2B3g    1.421832     2B2g    1.421832     4B1u    1.493874  
	   5Ag     1.844929     5B1u    2.582844  

	Final Occupation by Irrep:
	         Ag   B1g   B2g   B3g    Au   B1u   B2u   B3u 
	DOCC [     3,    0,    0,    0,    0,    2,    1,    1 ]

  Energy converged.

  @RHF Final Energy:  -108.30095033790386

   => Energetics <=

    Nuclear Repulsion Energy =         23.9240164527137473
    One-Electron Energy =            -193.7491928532002419
    Two-Electron Energy =              61.5242260625826418
    DFT Functional Energy =             0.0000000000000000
    Empirical Dispersion Energy =       0.0000000000000000
    Total Energy =                   -108.3009503379038563

  ==> Properties <==

  Nuclear Dipole Moment: (a.u.)
     X:     0.0000      Y:     0.0000      Z:     0.0000

  Electronic Dipole Moment: (a.u.)
     X:     0.0000      Y:     0.0000      Z:     0.0000

  Dipole Moment: (a.u.)
     X:     0.0000      Y:     0.0000      Z:     0.0000     Total:     0.0000

  Dipole Moment: (Debye)
     X:     0.0000      Y:     0.0000      Z:     0.0000     Total:     0.0000


  Saving occupied orbitals to File 180.

*** tstop() called on mac10147 at Tue Jul 10 20:36:09 2012
Module time:
	user time   =       0.02 seconds =       0.00 minutes
	system time =       0.01 seconds =       0.00 minutes
	total time  =          0 seconds =       0.00 minutes
Total time:
	user time   =       0.32 seconds =       0.01 minutes
	system time =       0.06 seconds =       0.00 minutes
	total time  =          1 seconds =       0.02 minutes

*** tstart() called on mac10147
*** at Tue Jul 10 20:36:09 2012

 DERIV: Derivative code.
   by Justin Turney

  Cartesian Displacement SALCs
  By SALC:
  Number of SALCs: 1, nirreps: 1
  Project out translations: False
  Project out rotations: False
	irrep = 0, ncomponent = 2
		0: atom 0, direction z, coef 0.707107
		1: atom 1, direction z, coef -0.707107

  By Atomic Center:
  Number of atomic centers: 2
   Atomic Center 0:
	x component, size = 0
	y component, size = 0
	z component, size = 1
		0: salc 0, irrep 0, coef 0.707107
   Atomic Center 1:
	x component, size = 0
	y component, size = 0
	z component, size = 1
		0: salc 0, irrep 0, coef -0.707107

    Molecular point group: d2h
    Full point group: D_inf_h

    Geometry (in Bohr), charge = 0, multiplicity = 1:

       Center              X                  Y                   Z       
    ------------   -----------------  -----------------  -----------------
           N          0.000000000000     0.000000000000    -1.024075537167
           N          0.000000000000     0.000000000000     1.024075537167


  -Nuclear Repulsion Energy 1st Derivatives:
     Atom            X                  Y                   Z
    ------   -----------------  -----------------  -----------------
       1        0.000000000000     0.000000000000    11.680787004688
       2        0.000000000000     0.000000000000   -11.680787004688


  -One-electron contribution to gradient:
     Atom            X                  Y                   Z
    ------   -----------------  -----------------  -----------------
       1        0.000000000000     0.000000000000   -26.411723063901
       2        0.000000000000     0.000000000000    26.411723063901


  -Lagrangian contribution to gradient:
     Atom            X                  Y                   Z
    ------   -----------------  -----------------  -----------------
       1        0.000000000000     0.000000000000     1.155613713001
       2        0.000000000000     0.000000000000    -1.155613713001


  -Two-electron contribution to gradient:
     Atom            X                  Y                   Z
    ------   -----------------  -----------------  -----------------
       1        0.000000000000     0.000000000000    13.571917269324
       2        0.000000000000     0.000000000000   -13.571917269324


  -Total gradient:
     Atom            X                  Y                   Z
    ------   -----------------  -----------------  -----------------
       1        0.000000000000     0.000000000000    -0.003405076887
       2        0.000000000000     0.000000000000     0.003405076887


*** tstop() called on mac10147 at Tue Jul 10 20:36:09 2012
Module time:
	user time   =       0.03 seconds =       0.00 minutes
	system time =       0.00 seconds =       0.00 minutes
	total time  =          0 seconds =       0.00 minutes
Total time:
	user time   =       0.36 seconds =       0.01 minutes
	system time =       0.06 seconds =       0.00 minutes
	total time  =          1 seconds =       0.02 minutes

  //>>>>>>>>>>>>>>>>>>>>>>>>>>>>>>>>>>>//
  //    Loading displacement 2 of 3    //
  //<<<<<<<<<<<<<<<<<<<<<<<<<<<<<<<<<<<//
    Molecular point group: d2h
    Full point group: D_inf_h

    Geometry (in Angstrom), charge = 0, multiplicity = 1:

       Center              X                  Y                   Z       
    ------------   -----------------  -----------------  -----------------
           N          0.000000000000     0.000000000000    -0.540917492993
           N          0.000000000000     0.000000000000     0.540917492993

  -AO BASIS SET INFORMATION:
    Name                   = 3-21G
    Total number of shells = 10
    Number of primitives   = 18
    Number of AO           = 18
    Number of SO           = 18
    Maximum AM             = 1
    Spherical Harmonics    = FALSE

  -Contraction Scheme:
    Atom   Type   All Primitives // Shells:
   ------ ------ --------------------------
       1     N     6s 3p // 3s 2p 
       2     N     6s 3p // 3s 2p 

  -Basis set on unique center 1: N
     S (        242.76600000           2.62409200)
       (         36.48510000           3.73435921)
       (          7.81449000           2.35345410)
     S (          5.42522000          -1.04710105)
       (          1.14915000           0.96855007)
     P (          5.42522000           2.80858564)
       (          1.14915000           1.45673455)
     S (          0.28320500           0.27668510)
     P (          0.28320500           0.29448707)

  -Basis set on unique center 2: N
     S (        242.76600000           2.62409200)
       (         36.48510000           3.73435921)
       (          7.81449000           2.35345410)
     S (          5.42522000          -1.04710105)
       (          1.14915000           0.96855007)
     P (          5.42522000           2.80858564)
       (          1.14915000           1.45673455)
     S (          0.28320500           0.27668510)
     P (          0.28320500           0.29448707)


*** tstart() called on mac10147
*** at Tue Jul 10 20:36:09 2012

	There are an even number of electrons - assuming singlet.
	Specify the multiplicity with the MULTP option in the
	input if this is incorrect


         ---------------------------------------------------------
                                   SCF
            by Justin Turney, Rob Parrish, and Andy Simmonett
                              RHF Reference
                        1 Threads,    500 MiB Core
         ---------------------------------------------------------

  ==> Geometry <==

    Molecular point group: d2h
    Full point group: D_inf_h

    Geometry (in Angstrom), charge = 0, multiplicity = 1:

       Center              X                  Y                   Z       
    ------------   -----------------  -----------------  -----------------
           N          0.000000000000     0.000000000000    -0.540917492993
           N          0.000000000000     0.000000000000     0.540917492993

  Running in d2h symmetry.

  Nuclear repulsion =   23.968242436982010

  Charge       = 0
  Multiplicity = 1
  Electrons    = 14
  Nalpha       = 7
  Nbeta        = 7

  ==> Algorithm <==

  SCF Algorithm Type is PK.
  DIIS enabled.
  MOM disabled.
  Fractional occupation disabled.
  Guess Type is CORE.
  Energy threshold   = 1.00e-08
  Density threshold  = 1.00e-08
  Integral threshold = 0.00e+00

  ==> Primary Basis <==

  Basis Set: 3-21G
    Number of shells: 10
    Number of basis function: 18
    Number of Cartesian functions: 18
    Spherical Harmonics?: false
    Max angular momentum: 1

  ==> Pre-Iterations <==

   -------------------------------------------------------
    Irrep   Nso     Nmo     Nalpha   Nbeta   Ndocc  Nsocc
   -------------------------------------------------------
     Ag         5       5       0       0       0       0
     B1g        0       0       0       0       0       0
     B2g        2       2       0       0       0       0
     B3g        2       2       0       0       0       0
     Au         0       0       0       0       0       0
     B1u        5       5       0       0       0       0
     B2u        2       2       0       0       0       0
     B3u        2       2       0       0       0       0
   -------------------------------------------------------
    Total      18      18       7       7       7       0
   -------------------------------------------------------

  ==> Integral Setup <==

 MINTS: Wrapper to libmints.
   by Justin Turney

   Calculation information:
      Number of atoms:                   2
      Number of AO shells:              10
      Number of SO shells:               5
      Number of primitives:             18
      Number of atomic orbitals:        18
      Number of basis functions:        18

      Number of irreps:                  8
      Number of functions per irrep: [   5    0    2    2    0    5    2    2 ]

      Overlap, kinetic, potential, dipole, and quadrupole integrals
        stored in file 35.

      Computing two-electron integrals...done
      Computed 2376 non-zero two-electron integrals.
        Stored in file 33.

  Minimum eigenvalue in the overlap matrix is 1.5361873763E-02.
  Using Symmetric Orthogonalization.
  SCF Guess: Core (One-Electron) Hamiltonian.

  Initial RHF energy:   -78.67658873851538

  ==> Iterations <==

                        Total Energy        Delta E     Density RMS

   @RHF iter   1:   -99.04349181188594   -2.03669e+01   0.00000e+00 
	Occupation by irrep:
	         Ag   B1g   B2g   B3g    Au   B1u   B2u   B3u 
	DOCC [     3,    0,    0,    0,    0,    2,    1,    1 ]

   @RHF iter   2:  -106.95000910543648   -7.90652e+00   3.79436e-01 DIIS
   @RHF iter   3:  -108.23911820172357   -1.28911e+00   1.72992e-01 DIIS
   @RHF iter   4:  -108.29978461298212   -6.06664e-02   6.24886e-02 DIIS
   @RHF iter   5:  -108.30094351892500   -1.15891e-03   3.91210e-03 DIIS
   @RHF iter   6:  -108.30095027958323   -6.76066e-06   3.83027e-04 DIIS
   @RHF iter   7:  -108.30095032313461   -4.35514e-08   3.05933e-05 DIIS
   @RHF iter   8:  -108.30095032346323   -3.28612e-10   6.64625e-06 DIIS
   @RHF iter   9:  -108.30095032346678   -3.55271e-12   5.20213e-07 DIIS
   @RHF iter  10:  -108.30095032346684   -5.68434e-14   1.88696e-08 DIIS

  ==> Post-Iterations <==

	Orbital Energies (a.u.)
	-----------------------

	Doubly Occupied:                                                      

	   1Ag   -15.609977     1B1u  -15.609027     2Ag    -1.519922  
	   2B1u   -0.756425     1B2u   -0.620064     1B3u   -0.620064  
	   3Ag    -0.616390  

	Virtual:                                                              

	   1B3g    0.186620     1B2g    0.186620     3B1u    0.763065  
	   4Ag     1.192144     2B2u    1.276465     2B3u    1.276465  
	   2B3g    1.422406     2B2g    1.422406     4B1u    1.497138  
	   5Ag     1.844365     5B1u    2.585785  

	Final Occupation by Irrep:
	         Ag   B1g   B2g   B3g    Au   B1u   B2u   B3u 
	DOCC [     3,    0,    0,    0,    0,    2,    1,    1 ]

  Energy converged.

  @RHF Final Energy:  -108.30095032346684

   => Energetics <=

    Nuclear Repulsion Energy =         23.9682424369820097
    One-Electron Energy =            -193.8346482576178857
    Two-Electron Energy =              61.5654554971690686
    DFT Functional Energy =             0.0000000000000000
    Empirical Dispersion Energy =       0.0000000000000000
    Total Energy =                   -108.3009503234667932

  ==> Properties <==

  Nuclear Dipole Moment: (a.u.)
     X:     0.0000      Y:     0.0000      Z:     0.0000

  Electronic Dipole Moment: (a.u.)
     X:     0.0000      Y:     0.0000      Z:     0.0000

  Dipole Moment: (a.u.)
     X:     0.0000      Y:     0.0000      Z:     0.0000     Total:     0.0000

  Dipole Moment: (Debye)
     X:     0.0000      Y:     0.0000      Z:     0.0000     Total:     0.0000


[...]
    ------   -----------------  -----------------  -----------------
       1        0.000000000000     0.001332720769    -0.000005303754
       2        0.000000000000    -0.000855571006     0.000735885969
       3        0.000000063122     0.000185259213    -0.000000053037
       4       -0.000000063122     0.000185259213    -0.000000053037
       5        0.000000000000    -0.000847668189    -0.000730476141


*** tstop() called on mac10147 at Tue Jul 10 20:36:13 2012
Module time:
	user time   =       0.03 seconds =       0.00 minutes
	system time =       0.00 seconds =       0.00 minutes
	total time  =          0 seconds =       0.00 minutes
Total time:
	user time   =       3.60 seconds =       0.06 minutes
	system time =       0.53 seconds =       0.01 minutes
	total time  =          5 seconds =       0.08 minutes

  //>>>>>>>>>>>>>>>>>>>>>>>>>>>>>>>>>>>//
  //   Loading displacement 14 of 14   //
  //<<<<<<<<<<<<<<<<<<<<<<<<<<<<<<<<<<<//
    Molecular point group: c2v
    Full point group: Td

    Geometry (in Angstrom), charge = 0, multiplicity = 1:

       Center              X                  Y                   Z       
    ------------   -----------------  -----------------  -----------------
           C          0.000000000000     0.000000000000    -0.000000000000
           H          0.000000000000     0.884185432672    -0.625213515268
           H          0.884185432671     0.000000000000     0.625213515268
           H         -0.884185432671     0.000000000000     0.625213515268
           H          0.000000000000    -0.884185432672    -0.625213515268

  -AO BASIS SET INFORMATION:
    Name                   = 3-21G
    Total number of shells = 13
    Number of primitives   = 21
    Number of AO           = 17
    Number of SO           = 17
    Maximum AM             = 1
    Spherical Harmonics    = FALSE

  -Contraction Scheme:
    Atom   Type   All Primitives // Shells:
   ------ ------ --------------------------
       1     C     6s 3p // 3s 2p 
       2     H     3s // 2s 
       3     H     3s // 2s 
       4     H     3s // 2s 
       5     H     3s // 2s 

  -Basis set on unique center 1: C
     S (        172.25600000           2.09313248)
       (         25.91090000           2.93675143)
       (          5.53335000           1.80173712)
     S (          3.66498000          -0.74738434)
       (          0.77054500           0.71266103)
     P (          3.66498000           1.70917758)
       (          0.77054500           0.88562206)
     S (          0.19585700           0.20982847)
     P (          0.19585700           0.18572226)

  -Basis set on unique center 2: H
     S (          5.44717800           0.39715132)
       (          0.82454700           0.55791992)
     S (          0.18319200           0.19956757)

  -Basis set on unique center 3: H
     S (          5.44717800           0.39715132)
       (          0.82454700           0.55791992)
     S (          0.18319200           0.19956757)

  -Basis set on unique center 4: H
     S (          5.44717800           0.39715132)
       (          0.82454700           0.55791992)
     S (          0.18319200           0.19956757)

  -Basis set on unique center 5: H
     S (          5.44717800           0.39715132)
       (          0.82454700           0.55791992)
     S (          0.18319200           0.19956757)


*** tstart() called on mac10147
*** at Tue Jul 10 20:36:13 2012

	There are an even number of electrons - assuming singlet.
	Specify the multiplicity with the MULTP option in the
	input if this is incorrect


         ---------------------------------------------------------
                                   SCF
            by Justin Turney, Rob Parrish, and Andy Simmonett
                              RHF Reference
                        1 Threads,    500 MiB Core
         ---------------------------------------------------------

  ==> Geometry <==

    Molecular point group: c2v
    Full point group: Td

    Geometry (in Angstrom), charge = 0, multiplicity = 1:

       Center              X                  Y                   Z       
    ------------   -----------------  -----------------  -----------------
           C          0.000000000000     0.000000000000    -0.000000000000
           H          0.000000000000     0.884185432672    -0.625213515268
           H          0.884185432671     0.000000000000     0.625213515268
           H         -0.884185432671     0.000000000000     0.625213515268
           H          0.000000000000    -0.884185432672    -0.625213515268

  Running in c2v symmetry.

  Nuclear repulsion =   13.523458247993347

  Charge       = 0
  Multiplicity = 1
  Electrons    = 10
  Nalpha       = 5
  Nbeta        = 5

  ==> Algorithm <==

  SCF Algorithm Type is PK.
  DIIS enabled.
  MOM disabled.
  Fractional occupation disabled.
  Guess Type is CORE.
  Energy threshold   = 1.00e-08
  Density threshold  = 1.00e-08
  Integral threshold = 0.00e+00

  ==> Primary Basis <==

  Basis Set: 3-21G
    Number of shells: 13
    Number of basis function: 17
    Number of Cartesian functions: 17
    Spherical Harmonics?: false
    Max angular momentum: 1

  ==> Pre-Iterations <==

   -------------------------------------------------------
    Irrep   Nso     Nmo     Nalpha   Nbeta   Ndocc  Nsocc
   -------------------------------------------------------
     A1         9       9       0       0       0       0
     A2         0       0       0       0       0       0
     B1         4       4       0       0       0       0
     B2         4       4       0       0       0       0
   -------------------------------------------------------
    Total      17      17       5       5       5       0
   -------------------------------------------------------

  ==> Integral Setup <==

 MINTS: Wrapper to libmints.
   by Justin Turney

   Calculation information:
      Number of atoms:                   5
      Number of AO shells:              13
      Number of SO shells:               9
      Number of primitives:             21
      Number of atomic orbitals:        17
      Number of basis functions:        17

      Number of irreps:                  4
      Number of functions per irrep: [   9    0    4    4 ]

      Overlap, kinetic, potential, dipole, and quadrupole integrals
        stored in file 35.

      Computing two-electron integrals...done
      Computed 3455 non-zero two-electron integrals.
        Stored in file 33.

  Minimum eigenvalue in the overlap matrix is 3.2959951392E-02.
  Using Symmetric Orthogonalization.
  SCF Guess: Core (One-Electron) Hamiltonian.

  Initial RHF energy:   -30.99538073572045

  ==> Iterations <==

                        Total Energy        Delta E     Density RMS

   @RHF iter   1:   -32.32539798756635   -1.33002e+00   0.00000e+00 
   @RHF iter   2:   -37.39763456732561   -5.07224e+00   3.63241e-01 DIIS
   @RHF iter   3:   -39.96314765593877   -2.56551e+00   2.87595e-01 DIIS
   @RHF iter   4:   -39.97641525763669   -1.32676e-02   2.28593e-02 DIIS
   @RHF iter   5:   -39.97683895537608   -4.23698e-04   3.48044e-03 DIIS
   @RHF iter   6:   -39.97687672330574   -3.77679e-05   7.40350e-04 DIIS
   @RHF iter   7:   -39.97687754905432   -8.25749e-07   1.01060e-04 DIIS
   @RHF iter   8:   -39.97687755309691   -4.04258e-09   5.90886e-06 DIIS
   @RHF iter   9:   -39.97687755319952   -1.02617e-10   1.10100e-06 DIIS
   @RHF iter  10:   -39.97687755320054   -1.01608e-12   9.42150e-08 DIIS

  ==> Post-Iterations <==

	Orbital Energies (a.u.)
	-----------------------

	Doubly Occupied:                                                      

	   1A1   -11.144459     2A1    -0.945882     3A1    -0.544838  
	   1B2    -0.544838     1B1    -0.544838  

	Virtual:                                                              

	   4A1     0.296678     2B1     0.352575     2B2     0.352575  
	   5A1     0.352575     3B1     0.923094     6A1     0.923094  
	   3B2     0.923094     7A1     1.333289     4B1     1.358977  
	   4B2     1.358977     8A1     1.358977     9A1     1.955856  

	Final Occupation by Irrep:
	         A1    A2    B1    B2 
	DOCC [     3,    0,    1,    1 ]

  Energy converged.

  @RHF Final Energy:   -39.97687755320054

   => Energetics <=

    Nuclear Repulsion Energy =         13.5234582479933465
    One-Electron Energy =             -79.5509623689894454
    Two-Electron Energy =              26.0506265677955682
    DFT Functional Energy =             0.0000000000000000
    Empirical Dispersion Energy =       0.0000000000000000
    Total Energy =                    -39.9768775532005307

  ==> Properties <==

  Nuclear Dipole Moment: (a.u.)
     X:     0.0000      Y:     0.0000      Z:     0.0000

  Electronic Dipole Moment: (a.u.)
     X:     0.0000      Y:     0.0000      Z:    -0.0000

  Dipole Moment: (a.u.)
     X:     0.0000      Y:     0.0000      Z:     0.0000     Total:     0.0000

  Dipole Moment: (Debye)
     X:     0.0000      Y:     0.0000      Z:     0.0000     Total:     0.0000


  Saving occupied orbitals to File 180.

*** tstop() called on mac10147 at Tue Jul 10 20:36:13 2012
Module time:
	user time   =       0.03 seconds =       0.00 minutes
	system time =       0.00 seconds =       0.00 minutes
	total time  =          0 seconds =       0.00 minutes
Total time:
	user time   =       3.64 seconds =       0.06 minutes
	system time =       0.54 seconds =       0.01 minutes
	total time  =          5 seconds =       0.08 minutes

*** tstart() called on mac10147
*** at Tue Jul 10 20:36:13 2012

 DERIV: Derivative code.
   by Justin Turney

  Cartesian Displacement SALCs
  By SALC:
  Number of SALCs: 5, nirreps: 1
  Project out translations: False
  Project out rotations: False
	irrep = 0, ncomponent = 1
		0: atom 0, direction z, coef 1.000000
	irrep = 0, ncomponent = 2
		0: atom 1, direction y, coef 0.707107
		1: atom 4, direction y, coef -0.707107
	irrep = 0, ncomponent = 2
		0: atom 1, direction z, coef 0.707107
		1: atom 4, direction z, coef 0.707107
	irrep = 0, ncomponent = 2
		0: atom 2, direction x, coef 0.707107
		1: atom 3, direction x, coef -0.707107
	irrep = 0, ncomponent = 2
		0: atom 2, direction z, coef 0.707107
		1: atom 3, direction z, coef 0.707107

  By Atomic Center:
  Number of atomic centers: 5
   Atomic Center 0:
	x component, size = 0
	y component, size = 0
	z component, size = 1
		0: salc 0, irrep 0, coef 1.000000
   Atomic Center 1:
	x component, size = 0
	y component, size = 1
		0: salc 1, irrep 0, coef 0.707107
	z component, size = 1
		0: salc 2, irrep 0, coef 0.707107
   Atomic Center 2:
	x component, size = 1
		0: salc 3, irrep 0, coef 0.707107
	y component, size = 0
	z component, size = 1
		0: salc 4, irrep 0, coef 0.707107
   Atomic Center 3:
	x component, size = 1
		0: salc 3, irrep 0, coef -0.707107
	y component, size = 0
	z component, size = 1
		0: salc 4, irrep 0, coef 0.707107
   Atomic Center 4:
	x component, size = 0
	y component, size = 1
		0: salc 1, irrep 0, coef -0.707107
	z component, size = 1
		0: salc 2, irrep 0, coef 0.707107

    Molecular point group: c2v
    Full point group: Td

    Geometry (in Bohr), charge = 0, multiplicity = 1:

       Center              X                  Y                   Z       
    ------------   -----------------  -----------------  -----------------
           C          0.000000000000     0.000000000000    -0.000000000000
           H          0.000000000000     1.670868318436    -1.181482318436
           H          1.670868318436     0.000000000000     1.181482318436
           H         -1.670868318436     0.000000000000     1.181482318436
           H          0.000000000000    -1.670868318436    -1.181482318436


  -Nuclear Repulsion Energy 1st Derivatives:
     Atom            X                  Y                   Z
    ------   -----------------  -----------------  -----------------
       1        0.000000000000     0.000000000000     0.000000000000
       2        0.000000000000    -1.348945146143     0.953848260287
       3       -1.348945146143     0.000000000000    -0.953848260287
       4        1.348945146143     0.000000000000    -0.953848260287
       5        0.000000000000     1.348945146143     0.953848260287


  -One-electron contribution to gradient:
     Atom            X                  Y                   Z
    ------   -----------------  -----------------  -----------------
       1        0.000000000000     0.000000000000    -0.000000000001
       2        0.000000000000     2.970927238580    -2.100762796812
       3        2.970927238580     0.000000000000     2.100762796812
       4       -2.970927238580     0.000000000000     2.100762796812
       5        0.000000000000    -2.970927238580    -2.100762796812


  -Lagrangian contribution to gradient:
     Atom            X                  Y                   Z
    ------   -----------------  -----------------  -----------------
       1        0.000000000000     0.000000000000     0.000000000000
       2        0.000000000000    -0.156413380050     0.110600961702
       3       -0.156413380050     0.000000000000    -0.110600961702
       4        0.156413380050     0.000000000000    -0.110600961702
       5        0.000000000000     0.156413380050     0.110600961702


  -Two-electron contribution to gradient:
     Atom            X                  Y                   Z
    ------   -----------------  -----------------  -----------------
       1        0.000000000000     0.000000000000     0.000000000001
       2        0.000000000000    -1.465568698788     1.036313565207
       3       -1.465568698787     0.000000000000    -1.036313565208
       4        1.465568698787     0.000000000000    -1.036313565208
       5        0.000000000000     1.465568698788     1.036313565207


  -Total gradient:
     Atom            X                  Y                   Z
    ------   -----------------  -----------------  -----------------
       1        0.000000000000     0.000000000000     0.000000000000
       2        0.000000000000     0.000000013599    -0.000000009616
       3        0.000000013599     0.000000000000     0.000000009616
       4       -0.000000013599     0.000000000000     0.000000009616
       5        0.000000000000    -0.000000013599    -0.000000009616


*** tstop() called on mac10147 at Tue Jul 10 20:36:13 2012
Module time:
	user time   =       0.04 seconds =       0.00 minutes
	system time =       0.00 seconds =       0.00 minutes
	total time  =          0 seconds =       0.00 minutes
Total time:
	user time   =       3.68 seconds =       0.06 minutes
	system time =       0.54 seconds =       0.01 minutes
	total time  =          5 seconds =       0.08 minutes

-------------------------------------------------------------

  Computing second-derivative from gradients using projected, 
  symmetry-adapted, cartesian coordinates (fd_freq_1).

  14 gradients passed in, including the reference geometry.
  Generating complete list of displacements from unique ones.

	Operation 3 takes plus displacements of irrep A2 to minus ones.
	Operation 2 takes plus displacements of irrep B1 to minus ones.
	Operation 2 takes plus displacements of irrep B2 to minus ones.

	  Irrep      Harmonic Frequency   
	                  (cm-1)          
	-----------------------------------------------
	     A1         1520.3016  
	     B2         1520.3164  
	     B1         1520.3164  
	     A1         1739.7712  
	     A2         1739.7793  
	     A1         3186.7709  
	     A1         3280.1377  
	     B1         3280.1413  
	     B2         3280.1413  
	-----------------------------------------------

	Normal Modes (mass-weighted).
	Molecular mass is   16.03130 amu.
	Frequencies in cm^-1; force constants in au.

   Frequency:       1520.30
   Force constant:   0.0875
	     X       Y       Z 	
  C 	   0.000   0.000   0.401
  H 	   0.000  -0.300  -0.346
  H 	   0.300   0.000  -0.346
  H 	  -0.300   0.000  -0.346
  H 	   0.000   0.300  -0.346

   Frequency:       1520.32
   Force constant:   0.0875
	     X       Y       Z 	
  C 	   0.000  -0.401   0.000
  H 	   0.000   0.134   0.300
  H 	   0.000   0.558   0.000
  H 	   0.000   0.558   0.000
  H 	   0.000   0.134  -0.300

   Frequency:       1520.32
   Force constant:   0.0875
	     X       Y       Z 	
  C 	  -0.401   0.000   0.000
  H 	   0.558   0.000   0.000
  H 	   0.134   0.000  -0.300
  H 	   0.134   0.000   0.300
  H 	   0.558   0.000   0.000

   Frequency:       1739.77
   Force constant:   0.1145
	     X       Y       Z 	
  C 	   0.000   0.000   0.000
  H 	   0.000  -0.289  -0.408
  H 	  -0.289   0.000   0.408
  H 	   0.289   0.000   0.408
  H 	   0.000   0.289  -0.408

   Frequency:       1739.78
   Force constant:   0.1145
	     X       Y       Z 	
  C 	   0.000   0.000   0.000
  H 	   0.500   0.000   0.000
  H 	   0.000   0.500   0.000
  H 	   0.000  -0.500   0.000
  H 	  -0.500   0.000   0.000

   Frequency:       3186.77
   Force constant:   0.3843
	     X       Y       Z 	
  C 	   0.000   0.000   0.000
  H 	   0.000   0.408  -0.289
  H 	   0.408   0.000   0.289
  H 	  -0.408   0.000   0.289
  H 	   0.000  -0.408  -0.289

   Frequency:       3280.14
   Force constant:   0.4072
	     X       Y       Z 	
  C 	   0.000   0.000  -0.301
  H 	   0.000  -0.400   0.259
  H 	   0.400   0.000   0.260
  H 	  -0.400   0.000   0.260
  H 	   0.000   0.400   0.259

   Frequency:       3280.14
   Force constant:   0.4072
	     X       Y       Z 	
  C 	   0.301   0.000   0.000
  H 	   0.023   0.000   0.000
  H 	  -0.542   0.000  -0.400
  H 	  -0.542   0.000   0.400
  H 	   0.023   0.000   0.000

   Frequency:       3280.14
   Force constant:   0.4072
	     X       Y       Z 	
  C 	   0.000  -0.301   0.000
  H 	   0.000   0.542  -0.400
  H 	   0.000  -0.023   0.000
  H 	   0.000  -0.023   0.000
  H 	   0.000   0.542   0.400

-------------------------------------------------------------
			*********************************************
			* Thermodynamic Analysis by R.A. King, 2012 *
			*********************************************
	Full point group: Td (Td)

	Data used to determine thermochemical information:
	Temperature (K):          298.15
	Pressure (Pa)  :       101325.00
	Multiplicity   :               1
	Rotor type     :   SPHERICAL_TOP
	Rotational symmetry number :  12

	Rotational constants:
		   wavenumbers      GHz
		A:    5.348902    160.35605
		B:    5.348902    160.35605
		C:    5.348902    160.35605

	Nuclear masses:
		 12.000000  1.007825  1.007825  1.007825  1.007825

	Vibrational frequencies (cm^-1)      Temperatures (K):
	            1520.302                       2187.372
	            1520.316                       2187.393
	            1520.316                       2187.393
	            1739.771                       2503.140
	            1739.779                       2503.151
	            3186.771                       4585.047
	            3280.138                       4719.381
	            3280.141                       4719.386
	            3280.141                       4719.386

	                * Thermal Energy *       * Cv *          * S *
	                        kcal/mol      cal/(mol K)    cal/(mol K) 
	Electronic    :           0.000          0.000          0.000
	Translational :           0.889          2.981         34.261
	Rotational    :           0.889          2.981         10.081
	Vibrational   :          30.129          0.273          0.041
	Total         :          31.906          6.234         44.383

	                          cm^(-1)             au         kJ/mol
	Zero-point energy:    10533.8379651137   0.0479956966 126.0126847977
	Energies in Hartree/particle:       Correction         Total
		Energy (0 K)         =      0.04799570     -39.92888186
		Internal energy      =      0.05084539     -39.92603217
		Enthalpy             =      0.05178957     -39.92508798
		Gibbs Free Energy    =      0.03070182     -39.94617573

*** PSI4 exiting successfully. Buy a developer a beer!
