    -----------------------------------------------------------------------
          Psi4: An Open-Source Ab Initio Electronic Structure Package
                              Psi4 0.5 Driver

                          Git: Rev {master} dbe9080

    J. M. Turney, A. C. Simmonett, R. M. Parrish, E. G. Hohenstein,
    F. A. Evangelista, J. T. Fermann, B. J. Mintz, L. A. Burns, J. J. Wilke,
    M. L. Abrams, N. J. Russ, M. L. Leininger, C. L. Janssen, E. T. Seidl,
    W. D. Allen, H. F. Schaefer, R. A. King, E. F. Valeev, C. D. Sherrill,
    and T. D. Crawford, WIREs Comput. Mol. Sci. 2, 556-565 (2012)
    (doi: 10.1002/wcms.93)

                         Additional Contributions by
    A. E. DePrince, M. Saitow, U. Bozkaya, A. Yu. Sokolov
    -----------------------------------------------------------------------


    Psi4 started on: Mon Mar 14 15:21:20 2016

    Process ID:  11561
    PSI4DATADIR: /home/dsmith/Gits/dgas_psi/share
    Memory level set to 256.000 MB

  ==> Input File <==

--------------------------------------------------------------------------
#! Restricted DF-DCFT ODC-12 gradient for ethylene with cc-pVDZ/cc-pVDZ-RI standard/auxiliary basis set

ref_vals_aonone = [                                                             
                [ 0.000000000000,     0.000000000000,    -0.087812168179],
                [ 0.000000000000,     0.000000000000,     0.087812168179],
                [ 0.000000000000,    -0.074677395781,     0.046776131677],
                [ 0.000000000000,     0.074677395781,     0.046776131677],
                [ 0.000000000000,     0.074677395781,    -0.046776131677],
                [ 0.000000000000,    -0.074677395781,    -0.046776131677]      
                ]                                                             
ref_aonone = psi4.Matrix(6, 3)                                                
ref_aonone.set(ref_vals_aonone)                                               

memory 512 Mb

molecule c2h4{
symmetry d2h
0 1
C
C 1 RCC
H 1 RCH 2 AHCC
H 1 RCH 2 AHCC 3 D1
H 2 RCH 1 AHCC 4 D2
H 2 RCH 1 AHCC 4 D1

RCC = 1.35 
RCH = 1.00
AHCC = 120.0
D1 = 180.0
D2 = 0.0
}

set {
  basis cc-pvdz
  dcft_type df
  df_basis_dcft cc-pvdz-ri
  dcft_guess mp2
  algorithm simultaneous
  dcft_functional odc-12
  diis_min_vecs 1
  diis_start_convergence 1.0E-1
  r_convergence 1.0E-10
  maxiter 50
}

set reference rhf
set ao_basis none
grad = gradient('dcft')
compare_matrices(ref_aonone, grad, 8, "DF-RODC-12 analytic gradient (ao_basis=none)")
clean()

--------------------------------------------------------------------------

  Memory set to 512.000 MiB by Python script.
gradient() will perform analytic gradient computation.

*** tstart() called on ds1.sherrill.chemistry.gatech.edu
*** at Mon Mar 14 15:21:20 2016


         ---------------------------------------------------------
                                   SCF
            by Justin Turney, Rob Parrish, and Andy Simmonett
                              RHF Reference
                        1 Threads,    512 MiB Core
         ---------------------------------------------------------

  ==> Geometry <==

    Molecular point group: d2h
    Full point group: D2h

    Geometry (in Angstrom), charge = 0, multiplicity = 1:

       Center              X                  Y                   Z               Mass       
    ------------   -----------------  -----------------  -----------------  -----------------
           C          0.000000000000     0.000000000000    -0.675000000000    12.000000000000
           C          0.000000000000     0.000000000000     0.675000000000    12.000000000000
           H          0.000000000000     0.866025403784    -1.175000000000     1.007825032070
           H          0.000000000000    -0.866025403784    -1.175000000000     1.007825032070
           H          0.000000000000    -0.866025403784     1.175000000000     1.007825032070
           H          0.000000000000     0.866025403784     1.175000000000     1.007825032070

  Running in d2h symmetry.

  Rotational constants: A =      5.57558  B =      1.02163  C =      0.86342 [cm^-1]
  Rotational constants: A = 167151.70091  B =  30627.70574  C =  25884.76322 [MHz]
  Nuclear repulsion =   34.453060270908111

  Charge       = 0
  Multiplicity = 1
  Electrons    = 16
  Nalpha       = 8
  Nbeta        = 8

  ==> Algorithm <==

  SCF Algorithm Type is PK.
  DIIS disabled.
  MOM disabled.
  Fractional occupation disabled.
  Guess Type is CORE.
  Energy threshold   = 1.00e-10
  Density threshold  = 1.00e-10
  Integral threshold = 0.00e+00

  ==> Primary Basis <==

  Basis Set: CC-PVDZ
    Number of shells: 24
    Number of basis function: 48
    Number of Cartesian functions: 50
    Spherical Harmonics?: true
    Max angular momentum: 2

  ==> Pre-Iterations <==

   -------------------------------------------------------
    Irrep   Nso     Nmo     Nalpha   Nbeta   Ndocc  Nsocc
   -------------------------------------------------------
     Ag        11      11       0       0       0       0
     B1g        2       2       0       0       0       0
     B2g        4       4       0       0       0       0
     B3g        7       7       0       0       0       0
     Au         2       2       0       0       0       0
     B1u       11      11       0       0       0       0
     B2u        7       7       0       0       0       0
     B3u        4       4       0       0       0       0
   -------------------------------------------------------
    Total      48      48       8       8       8       0
   -------------------------------------------------------

  ==> Integral Setup <==

	Batch   1 pq = [       0,     214] index = [             0,23005]
  ==> DiskJK: Disk-Based J/K Matrices <==

    J tasked:                  Yes
    K tasked:                  Yes
    wK tasked:                  No
    Memory (MB):               366
    Schwarz Cutoff:          1E-12

  Minimum eigenvalue in the overlap matrix is 5.1200294996E-03.
  Using Symmetric Orthogonalization.
  SCF Guess: Core (One-Electron) Hamiltonian.

  ==> Iterations <==

                        Total Energy        Delta E     RMS |[F,P]|

    Occupation by irrep:
             Ag   B1g   B2g   B3g    Au   B1u   B2u   B3u 
    DOCC [     3,    0,    0,    1,    0,    3,    1,    0 ]

   @RHF iter   1:   -65.77953266648940   -6.57795e+01   1.80707e-01 
    Occupation by irrep:
             Ag   B1g   B2g   B3g    Au   B1u   B2u   B3u 
    DOCC [     3,    0,    0,    1,    0,    2,    1,    1 ]

   @RHF iter   2:   -70.20924855762584   -4.42972e+00   1.25940e-01 
   @RHF iter   3:   -75.58912271411515   -5.37987e+00   1.03907e-01 
   @RHF iter   4:   -77.46739375714027   -1.87827e+00   5.01629e-02 
   @RHF iter   5:   -77.92945784610120   -4.62064e-01   2.12626e-02 
   @RHF iter   6:   -78.00461903905810   -7.51612e-02   7.36842e-03 
   @RHF iter   7:   -78.01439940948288   -9.78037e-03   2.66647e-03 
   @RHF iter   8:   -78.01561081563946   -1.21141e-03   9.13559e-04 
   @RHF iter   9:   -78.01575837305045   -1.47557e-04   3.22585e-04 
   @RHF iter  10:   -78.01577630966025   -1.79366e-05   1.11711e-04 
   @RHF iter  11:   -78.01577848977107   -2.18011e-06   3.91020e-05 
   @RHF iter  12:   -78.01577875488141   -2.65110e-07   1.36250e-05 
   @RHF iter  13:   -78.01577878713172   -3.22503e-08   4.75006e-06 
   @RHF iter  14:   -78.01577879105587   -3.92414e-09   1.66006e-06 
   @RHF iter  15:   -78.01577879153342   -4.77556e-10   5.77657e-07 
   @RHF iter  16:   -78.01577879159160   -5.81792e-11   2.02156e-07 
   @RHF iter  17:   -78.01577879159866   -7.06279e-12   7.02864e-08 
   @RHF iter  18:   -78.01577879159950   -8.38440e-13   2.46112e-08 
   @RHF iter  19:   -78.01577879159962   -1.13687e-13   8.55442e-09 
   @RHF iter  20:   -78.01577879159962    0.00000e+00   2.99582e-09 
   @RHF iter  21:   -78.01577879159963   -1.42109e-14   1.04130e-09 
   @RHF iter  22:   -78.01577879159964   -1.42109e-14   3.64641e-10 
   @RHF iter  23:   -78.01577879159964    0.00000e+00   1.26765e-10 
   @RHF iter  24:   -78.01577879159964    0.00000e+00   4.43813e-11 

  ==> Post-Iterations <==

    Orbital Energies (a.u.)
    -----------------------

    Doubly Occupied:                                                      

       1Ag   -11.217935     1B1u  -11.216402     2Ag    -1.041251  
       2B1u   -0.822001     1B2u   -0.670604     3Ag    -0.583354  
       1B3g   -0.536687     1B3u   -0.367325  

    Virtual:                                                              

       1B2g    0.165017     4Ag     0.209751     2B2u    0.243974  
       3B1u    0.250579     2B3g    0.304136     4B1u    0.461763  
       5Ag     0.574497     3B2u    0.635442     2B3u    0.694896  
       6Ag     0.742383     2B2g    0.807066     5B1u    0.824469  
       4B2u    0.892944     3B3g    0.971826     6B1u    0.981564  
       7Ag     1.036587     1B1g    1.141880     7B1u    1.217383  
       3B3u    1.268523     4B3g    1.295617     1Au     1.309807  
       8Ag     1.658924     5B3g    1.775242     5B2u    1.808889  
       3B2g    1.864454     9Ag     1.864955     8B1u    1.932918  
       6B2u    2.006502     4B3u    2.030863     2B1g    2.040308  
       4B2g    2.224181     9B1u    2.283942     2Au     2.473212  
      10Ag     2.621460     6B3g    2.626790    10B1u    2.745561  
      11Ag     3.013265     7B2u    3.028435    11B1u    3.391012  
       7B3g    3.622036  

    Final Occupation by Irrep:
             Ag   B1g   B2g   B3g    Au   B1u   B2u   B3u 
    DOCC [     3,    0,    0,    1,    0,    2,    1,    1 ]

  Energy converged.

  @RHF Final Energy:   -78.01577879159964

   => Energetics <=

    Nuclear Repulsion Energy =             34.4530602709081109
    One-Electron Energy =                -172.0265606237596785
    Two-Electron Energy =                  59.5577215612519382
    DFT Exchange-Correlation Energy =       0.0000000000000000
    Empirical Dispersion Energy =           0.0000000000000000
    PCM Polarization Energy =               0.0000000000000000
    EFP Energy =                            0.0000000000000000
    Total Energy =                        -78.0157787915996295

    Alert: EFP and PCM quantities not currently incorporated into SCF psivars.

Properties will be evaluated at   0.000000,   0.000000,   0.000000 Bohr
  ==> Properties <==


Properties computed using the SCF density matrix

  Nuclear Dipole Moment: (a.u.)
     X:     0.0000      Y:     0.0000      Z:     0.0000

  Electronic Dipole Moment: (a.u.)
     X:     0.0000      Y:     0.0000      Z:     0.0000

  Dipole Moment: (a.u.)
     X:     0.0000      Y:     0.0000      Z:     0.0000     Total:     0.0000

  Dipole Moment: (Debye)
     X:     0.0000      Y:     0.0000      Z:     0.0000     Total:     0.0000


  Saving occupied orbitals to File 180.

*** tstop() called on ds1.sherrill.chemistry.gatech.edu at Mon Mar 14 15:21:20 2016
Module time:
	user time   =       0.15 seconds =       0.00 minutes
	system time =       0.01 seconds =       0.00 minutes
	total time  =          0 seconds =       0.00 minutes
Total time:
	user time   =       0.15 seconds =       0.00 minutes
	system time =       0.01 seconds =       0.00 minutes
	total time  =          0 seconds =       0.00 minutes

*** tstart() called on ds1.sherrill.chemistry.gatech.edu
*** at Mon Mar 14 15:21:20 2016



	***********************************************************************************
	*                        Density Cumulant Functional Theory                       *
	*                by Alexander Sokolov, Andy Simmonett, and Xiao Wang              *
	***********************************************************************************


	                  ************************************************
	                  *        Density Fitting Module in DCFT        *
	                  *                by Xiao Wang                  *
	                  ************************************************

	 => Sizing <=

	  Memory   =         488 MB
	  Threads  =           1
	  nn       =          48
	  nQ       =         168

	 => Primary Basis <=

  Basis Set: CC-PVDZ
    Number of shells: 24
    Number of basis function: 48
    Number of Cartesian functions: 50
    Spherical Harmonics?: true
    Max angular momentum: 2

	 => Auxiliary Basis <=

  Basis Set: CC-PVDZ-RI
    Number of shells: 60
    Number of basis function: 168
    Number of Cartesian functions: 192
    Spherical Harmonics?: true
    Max angular momentum: 3

	 => Memory Requirement <=

	Minimum Memory required                 :     12.04 MB 
	Memory available                        :    488.28 MB 



	Transforming two-electron integrals (transformation type: restricted)...
	Computing MP2 amplitude guess...

	*Total Hartree-Fock energy        =  -78.015778791599644
	 Total MP2 correlation energy     =   -0.276209629507682
	*Total MP2 energy                 =  -78.291988421107320

	DCFT Functional:    		 ODC-12
	DCFT Type:          		 DF
	Algorithm:          		 SIMULTANEOUS
	AO-Basis Integrals: 		 NONE

	*=================================================================================*
	* Cycle   Max Orb Grad    RMS Lambda Error   delta E        Total Energy     DIIS *
	*---------------------------------------------------------------------------------*
	* 1        3.421e-02         1.161e-03     -7.204e-02    -78.364031344470249  S   *
	* 2        9.763e-03         3.735e-04      2.051e-02    -78.343525266316519  S/E *
	* 3        4.433e-03         1.174e-04      1.404e-02    -78.329482723283334  S/E *
	* 4        6.720e-04         5.283e-05      1.203e-03    -78.328279813156584  S/E *
	* 5        1.950e-04         1.480e-05      5.685e-04    -78.327711265059406  S/E *
	* 6        4.258e-05         4.013e-06      3.389e-05    -78.327677374823637  S/E *
	* 7        1.146e-05         8.299e-07     -5.455e-05    -78.327731927279586  S/E *
	* 8        1.610e-06         1.926e-07      4.910e-06    -78.327727017618713  S/E *
	* 9        3.346e-07         5.230e-08     -8.143e-07    -78.327727831947129  S/E *
	* 10       1.485e-07         1.626e-08     -2.459e-08    -78.327727856534395  S/E *
	* 11       6.183e-08         5.139e-09     -6.645e-08    -78.327727922979548  S/E *
	* 12       1.580e-08         1.447e-09     -2.958e-08    -78.327727952557908  S/E *
	* 13       7.565e-09         4.619e-10     -1.374e-08    -78.327727966300131  S/E *
	* 14       1.722e-09         1.849e-10     -1.030e-09    -78.327727967330077  S/E *
	* 15       6.257e-10         5.505e-11     -5.425e-10    -78.327727967872605  S/E *
	* 16       2.728e-10         1.889e-11      3.237e-11    -78.327727967840232  S/E *
	* 17       5.104e-11         5.571e-12     -9.157e-11    -78.327727967931807  S/E *
	*=================================================================================*

	*DF-ODC-12 SCF Energy                                 =     -77.651377830122726
	*DF-ODC-12 Lambda Energy                              =      -0.676350137809082
	*DF-ODC-12 Total Energy                               =     -78.327727967931807

	Orbital occupations:
		Doubly occupied orbitals
		   1Ag       1.9998     1B1u      1.9998     2Ag       1.9762     2B1u      1.9682  
		   1B2u      1.9654     1B3g      1.9605     3Ag       1.9583     1B3u      1.8938  
		

		Virtual orbitals
		   1B2g      0.0784     3B1u      0.0135     2B2u      0.0124     2B2g      0.0122  
		   4Ag       0.0121     4B1u      0.0114     2B3g      0.0097     5B1u      0.0096  
		   3B2u      0.0086     4B2u      0.0082     2B3u      0.0082     1B1g      0.0077  
		   5Ag       0.0077     6Ag       0.0075     6B1u      0.0069     7Ag       0.0068  
		   3B3u      0.0065     3B3g      0.0060     1Au       0.0053     7B1u      0.0044  
		   4B3g      0.0037     8Ag       0.0030     9Ag       0.0025     8B1u      0.0025  
		   5B2u      0.0024     6B2u      0.0023     3B2g      0.0021     5B3g      0.0019  
		   9B1u      0.0015     6B3g      0.0011     2B1g      0.0010     7B2u      0.0010  
		  10Ag       0.0010     4B3u      0.0010     4B2g      0.0009    10B1u      0.0009  
		  11Ag       0.0008    11B1u      0.0007     7B3g      0.0006     2Au       0.0006  
		


*** tstop() called on ds1.sherrill.chemistry.gatech.edu at Mon Mar 14 15:21:22 2016
Module time:
	user time   =       1.61 seconds =       0.03 minutes
	system time =       0.26 seconds =       0.00 minutes
	total time  =          2 seconds =       0.03 minutes
Total time:
	user time   =       1.76 seconds =       0.03 minutes
	system time =       0.27 seconds =       0.00 minutes
	total time  =          2 seconds =       0.03 minutes

*** tstart() called on ds1.sherrill.chemistry.gatech.edu
*** at Mon Mar 14 15:21:22 2016



	***********************************************************************************
	*                           DCFT Analytic Gradients Code                          *
	*                by Alexander Sokolov, Andy Simmonett, and Xiao Wang              *
	***********************************************************************************

	 Computing energy-weighted density matrix from one- and two-particle densities...
	Pre-Presorting MO-basis TPDM: AB.

	Sorting File: MO TPDM (AA|AA) nbuckets = 1
	Pre-Presorting MO-basis TPDM: AA and BB.

	Sorting File: MO TPDM (AA|AA) TEMP nbuckets = 1
	nbuckets = 1


*** tstop() called on ds1.sherrill.chemistry.gatech.edu at Mon Mar 14 15:21:23 2016
Module time:
	user time   =       0.66 seconds =       0.01 minutes
	system time =       0.03 seconds =       0.00 minutes
	total time  =          1 seconds =       0.02 minutes
Total time:
	user time   =       2.42 seconds =       0.04 minutes
	system time =       0.30 seconds =       0.01 minutes
	total time  =          3 seconds =       0.05 minutes

*** tstart() called on ds1.sherrill.chemistry.gatech.edu
*** at Mon Mar 14 15:21:23 2016

 DERIV: Derivative code.
   by Justin Turney

  Cartesian Displacement SALCs
  By SALC:
  Number of SALCs: 3, nirreps: 1
  Project out translations: False
  Project out rotations: False
	irrep = 0, ncomponent = 2
		0: atom 0, direction z, coef 0.707107
		1: atom 1, direction z, coef -0.707107
	irrep = 0, ncomponent = 4
		0: atom 2, direction y, coef 0.500000
		1: atom 3, direction y, coef -0.500000
		2: atom 4, direction y, coef -0.500000
		3: atom 5, direction y, coef 0.500000
	irrep = 0, ncomponent = 4
		0: atom 2, direction z, coef 0.500000
		1: atom 3, direction z, coef 0.500000
		2: atom 4, direction z, coef -0.500000
		3: atom 5, direction z, coef -0.500000

  By Atomic Center:
  Number of atomic centers: 6
   Atomic Center 0:
	x component, size = 0
	y component, size = 0
	z component, size = 1
		0: salc 0, irrep 0, coef 0.707107
   Atomic Center 1:
	x component, size = 0
	y component, size = 0
	z component, size = 1
		0: salc 0, irrep 0, coef -0.707107
   Atomic Center 2:
	x component, size = 0
	y component, size = 1
		0: salc 1, irrep 0, coef 0.500000
	z component, size = 1
		0: salc 2, irrep 0, coef 0.500000
   Atomic Center 3:
	x component, size = 0
	y component, size = 1
		0: salc 1, irrep 0, coef -0.500000
	z component, size = 1
		0: salc 2, irrep 0, coef 0.500000
   Atomic Center 4:
	x component, size = 0
	y component, size = 1
		0: salc 1, irrep 0, coef -0.500000
	z component, size = 1
		0: salc 2, irrep 0, coef -0.500000
   Atomic Center 5:
	x component, size = 0
	y component, size = 1
		0: salc 1, irrep 0, coef 0.500000
	z component, size = 1
		0: salc 2, irrep 0, coef -0.500000

    Molecular point group: d2h
    Full point group: D2h

    Geometry (in Bohr), charge = 0, multiplicity = 1:

       Center              X                  Y                   Z       
    ------------   -----------------  -----------------  -----------------
           C          0.000000000000     0.000000000000    -1.275565139698
           C          0.000000000000     0.000000000000     1.275565139698
           H          0.000000000000     1.636550837274    -2.220428206141
           H          0.000000000000    -1.636550837274    -2.220428206141
           H          0.000000000000    -1.636550837274     2.220428206141
           H          0.000000000000     1.636550837274     2.220428206141

	Starting first half-transformation.
	Sorting half-transformed TPDM.
	First half integral transformation complete.


  -Nuclear Repulsion Energy 1st Derivatives:
     Atom            X                  Y                   Z
    ------   -----------------  -----------------  -----------------
       1        0.000000000000     0.000000000000     4.580647943921
       2       -0.000000000000     0.000000000000    -4.580647943921
       3        0.000000000000    -1.738630267953     1.281937791043
       4       -0.000000000000     1.738630267953     1.281937791043
       5       -0.000000000000     1.738630267953    -1.281937791043
       6        0.000000000000    -1.738630267953    -1.281937791043


  -One-electron contribution to gradient:
     Atom            X                  Y                   Z
    ------   -----------------  -----------------  -----------------
       1        0.000000000000     0.000000000000   -11.713051001207
       2        0.000000000000     0.000000000000    11.713051001207
       3       -0.000000000000     4.214406686199    -2.837421942525
       4        0.000000000000    -4.214406686199    -2.837421942525
       5        0.000000000000    -4.214406686199     2.837421942525
       6       -0.000000000000     4.214406686199     2.837421942525


  -Lagrangian contribution to gradient:
     Atom            X                  Y                   Z
    ------   -----------------  -----------------  -----------------
       1        0.000000000000     0.000000000000     0.249903647480
       2        0.000000000000     0.000000000000    -0.249903647480
       3        0.000000000000    -0.186463086237     0.094287924231
       4       -0.000000000000     0.186463086237     0.094287924231
       5       -0.000000000000     0.186463086237    -0.094287924231
       6        0.000000000000    -0.186463086237    -0.094287924231


  -Two-electron contribution to gradient:
     Atom            X                  Y                   Z
    ------   -----------------  -----------------  -----------------
       1        0.000000000000     0.000000000000     6.794687241626
       2        0.000000000000     0.000000000000    -6.794687241626
       3        0.000000000000    -2.363990727789     1.507972358927
       4       -0.000000000000     2.363990727789     1.507972358927
       5       -0.000000000000     2.363990727789    -1.507972358927
       6        0.000000000000    -2.363990727789    -1.507972358927


  -Total gradient:
     Atom            X                  Y                   Z
    ------   -----------------  -----------------  -----------------
       1        0.000000000000     0.000000000000    -0.087812168179
       2       -0.000000000000     0.000000000000     0.087812168179
       3        0.000000000000    -0.074677395781     0.046776131677
       4       -0.000000000000     0.074677395781     0.046776131677
       5       -0.000000000000     0.074677395781    -0.046776131677
       6        0.000000000000    -0.074677395781    -0.046776131677


*** tstop() called on ds1.sherrill.chemistry.gatech.edu at Mon Mar 14 15:21:23 2016
Module time:
	user time   =       0.42 seconds =       0.01 minutes
	system time =       0.02 seconds =       0.00 minutes
	total time  =          0 seconds =       0.00 minutes
Total time:
	user time   =       2.84 seconds =       0.05 minutes
	system time =       0.32 seconds =       0.01 minutes
	total time  =          3 seconds =       0.05 minutes
	DF-RODC-12 analytic gradient (ao_basis=none)......................PASSED

*** PSI4 exiting successfully. Buy a developer a beer!
