    -----------------------------------------------------------------------
          Psi4: An Open-Source Ab Initio Electronic Structure Package
                              Psi4 0.4.190 Driver

                          Git: Rev {test_ref_refresh} 9b1b239 dirty

    J. M. Turney, A. C. Simmonett, R. M. Parrish, E. G. Hohenstein,
    F. A. Evangelista, J. T. Fermann, B. J. Mintz, L. A. Burns, J. J. Wilke,
    M. L. Abrams, N. J. Russ, M. L. Leininger, C. L. Janssen, E. T. Seidl,
    W. D. Allen, H. F. Schaefer, R. A. King, E. F. Valeev, C. D. Sherrill,
    and T. D. Crawford, WIREs Comput. Mol. Sci. 2, 556-565 (2012)
    (doi: 10.1002/wcms.93)

                         Additional Contributions by
    A. E. DePrince, U. Bozkaya, A. Yu. Sokolov, D. G. A. Smith, R. Di Remigio,
    R. M. Richard, J. F. Gonthier, H. R. McAlexander, M. Saitow, and
    B. P. Pritchard
    -----------------------------------------------------------------------


    Psi4 started on: Mon Apr  4 10:21:27 2016

    Process ID:   4531
    PSI4DATADIR: /home/dsmith/Gits/dgas_psi/share
    Memory level set to 256.000 MB

  ==> Input File <==

--------------------------------------------------------------------------
#! EOM-CC2/cc-pVDZ on H2O2 with two excited states in each irrep

memory 250 mb

molecule h2o2 {
  0 1
  O
  O 1 1.39
  H 1 0.94 2 102.3
  H 2 0.94 1 102.3 3 -50.0
}

set {
  basis cc-pVDZ
  freeze_core true
  roots_per_irrep [2, 2]
}

property('eom-cc2', properties=['oscillator_strength'])
--------------------------------------------------------------------------

  Memory set to 250.000 MiB by Python script.

*** tstart() called on ds1.sherrill.chemistry.gatech.edu
*** at Mon Apr  4 10:21:28 2016


         ---------------------------------------------------------
                                   SCF
            by Justin Turney, Rob Parrish, and Andy Simmonett
                              RHF Reference
                        1 Threads,    250 MiB Core
         ---------------------------------------------------------

  ==> Geometry <==

    Molecular point group: c2
    Full point group: C2

    Geometry (in Angstrom), charge = 0, multiplicity = 1:

       Center              X                  Y                   Z               Mass       
    ------------   -----------------  -----------------  -----------------  -----------------
           O          0.000000000000    -0.695000000000    -0.049338350190    15.994914619560
           O          0.000000000000     0.695000000000    -0.049338350190    15.994914619560
           H          0.388142264171    -0.895248563098     0.783035421467     1.007825032070
           H         -0.388142264171     0.895248563098     0.783035421467     1.007825032070

  Running in c2 symmetry.

  Rotational constants: A =     10.61423  B =      0.97044  C =      0.91566 [cm^-1]
  Rotational constants: A = 318206.57462  B =  29093.19738  C =  27450.82444 [MHz]
  Nuclear repulsion =   38.253968380680334

  Charge       = 0
  Multiplicity = 1
  Electrons    = 18
  Nalpha       = 9
  Nbeta        = 9

  ==> Algorithm <==

  SCF Algorithm Type is PK.
  DIIS enabled.
  MOM disabled.
  Fractional occupation disabled.
  Guess Type is CORE.
  Energy threshold   = 1.00e-10
  Density threshold  = 1.00e-10
  Integral threshold = 0.00e+00

  ==> Primary Basis <==

  Basis Set: CC-PVDZ
    Number of shells: 18
    Number of basis function: 38
    Number of Cartesian functions: 40
    Spherical Harmonics?: true
    Max angular momentum: 2

  ==> Pre-Iterations <==

   -------------------------------------------------------
    Irrep   Nso     Nmo     Nalpha   Nbeta   Ndocc  Nsocc
   -------------------------------------------------------
     A         19      19       0       0       0       0
     B         19      19       0       0       0       0
   -------------------------------------------------------
    Total      38      38       9       9       9       0
   -------------------------------------------------------

  ==> Integral Setup <==

	Batch   1 pq = [       0,     380] index = [             0,72390]
  ==> DiskJK: Disk-Based J/K Matrices <==

    J tasked:                  Yes
    K tasked:                  Yes
    wK tasked:                  No
    Memory (MB):               178
    Schwarz Cutoff:          1E-12

  Minimum eigenvalue in the overlap matrix is 2.1870579153E-02.
  Using Symmetric Orthogonalization.
  SCF Guess: Core (One-Electron) Hamiltonian.

  ==> Iterations <==

                        Total Energy        Delta E     RMS |[F,P]|

    Occupation by irrep:
              A     B 
    DOCC [     4,    5 ]

   @RHF iter   1:  -139.20516938778556   -1.39205e+02   1.47187e-01 
    Occupation by irrep:
              A     B 
    DOCC [     5,    4 ]

   @RHF iter   2:  -141.93429494911834   -2.72913e+00   1.36081e-01 DIIS
   @RHF iter   3:  -150.55773865647834   -8.62344e+00   2.64934e-02 DIIS
   @RHF iter   4:  -150.76510613226318   -2.07367e-01   5.71692e-03 DIIS
   @RHF iter   5:  -150.77832743031976   -1.32213e-02   1.02276e-03 DIIS
   @RHF iter   6:  -150.77910358371346   -7.76153e-04   3.17182e-04 DIIS
   @RHF iter   7:  -150.77917801137463   -7.44277e-05   7.37963e-05 DIIS
   @RHF iter   8:  -150.77918341722679   -5.40585e-06   1.93746e-05 DIIS
   @RHF iter   9:  -150.77918383685963   -4.19633e-07   4.95501e-06 DIIS
   @RHF iter  10:  -150.77918387111640   -3.42568e-08   1.10377e-06 DIIS
   @RHF iter  11:  -150.77918387222684   -1.11044e-09   3.09981e-07 DIIS
   @RHF iter  12:  -150.77918387235050   -1.23663e-10   7.76878e-08 DIIS
   @RHF iter  13:  -150.77918387235783   -7.33280e-12   2.38145e-08 DIIS
   @RHF iter  14:  -150.77918387235846   -6.25278e-13   3.61403e-09 DIIS
   @RHF iter  15:  -150.77918387235854   -8.52651e-14   7.52644e-10 DIIS
   @RHF iter  16:  -150.77918387235857   -2.84217e-14   1.99851e-10 DIIS
   @RHF iter  17:  -150.77918387235846    1.13687e-13   3.26364e-11 DIIS

  ==> Post-Iterations <==

    Orbital Energies (a.u.)
    -----------------------

    Doubly Occupied:                                                      

       1A    -20.619349     1B    -20.619013     2A     -1.507787  
       2B     -1.207608     3A     -0.772079     3B     -0.669170  
       4A     -0.610850     4B     -0.534579     5A     -0.457771  

    Virtual:                                                              

       6A      0.170058     5B      0.207922     6B      0.357579  
       7A      0.826680     7B      0.851681     8A      1.130818  
       8B      1.137986     9B      1.173859     9A      1.187142  
      10A      1.286565    10B      1.298497    11A      1.497098  
      12A      1.540883    11B      1.559287    12B      1.733951  
      13A      1.913157    13B      2.037507    14A      2.460009  
      14B      2.503912    15B      2.672803    15A      2.821554  
      16A      2.932536    17A      3.274207    16B      3.309357  
      18A      3.503492    17B      3.609638    18B      3.917634  
      19A      4.000575    19B      4.287100  

    Final Occupation by Irrep:
              A     B 
    DOCC [     5,    4 ]

  Energy converged.

  @RHF Final Energy:  -150.77918387235846

   => Energetics <=

    Nuclear Repulsion Energy =             38.2539683806803339
    One-Electron Energy =                -284.0698921485138726
    Two-Electron Energy =                  95.0367398954750513
    DFT Exchange-Correlation Energy =       0.0000000000000000
    Empirical Dispersion Energy =           0.0000000000000000
    PCM Polarization Energy =               0.0000000000000000
    EFP Energy =                            0.0000000000000000
    Total Energy =                       -150.7791838723584874

    Alert: EFP and PCM quantities not currently incorporated into SCF psivars.

Properties will be evaluated at   0.000000,   0.000000,   0.000000 Bohr
  ==> Properties <==


Properties computed using the SCF density matrix

  Nuclear Dipole Moment: (a.u.)
     X:     0.0000      Y:     0.0000      Z:     1.4677

  Electronic Dipole Moment: (a.u.)
     X:     0.0000      Y:     0.0000      Z:    -0.2602

  Dipole Moment: (a.u.)
     X:     0.0000      Y:     0.0000      Z:     1.2074     Total:     1.2074

  Dipole Moment: (Debye)
     X:     0.0000      Y:     0.0000      Z:     3.0690     Total:     3.0690


  Saving occupied orbitals to File 180.

*** tstop() called on ds1.sherrill.chemistry.gatech.edu at Mon Apr  4 10:21:28 2016
Module time:
	user time   =       0.13 seconds =       0.00 minutes
	system time =       0.01 seconds =       0.00 minutes
	total time  =          0 seconds =       0.00 minutes
Total time:
	user time   =       0.13 seconds =       0.00 minutes
	system time =       0.01 seconds =       0.00 minutes
	total time  =          0 seconds =       0.00 minutes

*** tstart() called on ds1.sherrill.chemistry.gatech.edu
*** at Mon Apr  4 10:21:28 2016


	Wfn Parameters:
	--------------------
	Wavefunction         = EOM_CC2
	Number of irreps     = 2
	Number of MOs        = 38
	Number of active MOs = 36
	AO-Basis             = NONE
	Semicanonical        = false
	Reference            = RHF
	Print Level          = 1

	IRREP	# MOs	# FZDC	# DOCC	# SOCC	# VIRT	# FZVR
	-----	-----	------	------	------	------	------
	 A	   19	    1	    4	    0	    14	    0
	 B	   19	    1	    3	    0	    15	    0
	Transforming integrals...
	IWL integrals will be deleted.
	(OO|OO)...
	Presorting SO-basis two-electron integrals.
	Sorting File: SO Ints (nn|nn) nbuckets = 1
	Transforming the one-electron integrals and constructing Fock matrices
	Starting first half-transformation.
	Sorting half-transformed integrals.
	First half integral transformation complete.
	Starting second half-transformation.
	Two-electron integral transformation complete.
	(OO|OV)...
	Starting second half-transformation.
	Two-electron integral transformation complete.
	(OO|VV)...
	Starting second half-transformation.
	Two-electron integral transformation complete.
	(OV|OO)...
	Starting first half-transformation.
	Sorting half-transformed integrals.
	First half integral transformation complete.
	Starting second half-transformation.
	Two-electron integral transformation complete.
	(OV|OV)...
	Starting second half-transformation.
	Two-electron integral transformation complete.
	(OV|VV)...
	Starting second half-transformation.
	Two-electron integral transformation complete.
	(VV|OO)...
	Starting first half-transformation.
	Sorting half-transformed integrals.
	First half integral transformation complete.
	Starting second half-transformation.
	Two-electron integral transformation complete.
	(VV|OV)...
	Starting second half-transformation.
	Two-electron integral transformation complete.
	(VV|VV)...
	Starting second half-transformation.
	Two-electron integral transformation complete.
	Frozen core energy     =   -132.27484824295780

	Size of irrep 0 of <ab|cd> integrals:      0.177 (MW) /      1.418 (MB)
	Size of irrep 1 of <ab|cd> integrals:      0.176 (MW) /      1.411 (MB)
	Total:                                     0.354 (MW) /      2.829 (MB)

	Size of irrep 0 of <ia|bc> integrals:      0.043 (MW) /      0.340 (MB)
	Size of irrep 1 of <ia|bc> integrals:      0.043 (MW) /      0.343 (MB)
	Total:                                     0.085 (MW) /      0.683 (MB)

	Size of irrep 0 of tijab amplitudes:       0.011 (MW) /      0.084 (MB)
	Size of irrep 1 of tijab amplitudes:       0.010 (MW) /      0.081 (MB)
	Total:                                     0.021 (MW) /      0.165 (MB)

	Nuclear Rep. energy          =     38.25396838068033
	SCF energy                   =   -150.77918387235846
	One-electron energy          =   -101.99691957058656
	Two-electron energy          =     45.23861556050571
	Reference energy             =   -150.77918387235832

*** tstop() called on ds1.sherrill.chemistry.gatech.edu at Mon Apr  4 10:21:28 2016
Module time:
	user time   =       0.04 seconds =       0.00 minutes
	system time =       0.05 seconds =       0.00 minutes
	total time  =          0 seconds =       0.00 minutes
Total time:
	user time   =       0.17 seconds =       0.00 minutes
	system time =       0.06 seconds =       0.00 minutes
	total time  =          0 seconds =       0.00 minutes

*** tstart() called on ds1.sherrill.chemistry.gatech.edu
*** at Mon Apr  4 10:21:28 2016

            **************************
            *                        *
            *        CCENERGY        *
            *                        *
            **************************

    Nuclear Rep. energy (wfn)     =   38.253968380680334
    SCF energy          (wfn)     = -150.779183872358459
    Reference energy    (file100) = -150.779183872358317

    Input parameters:
    -----------------
    Wave function   =   EOM_CC2
    Reference wfn   =     RHF
    Brueckner       =     No
    Memory (Mbytes) =     250.0
    Maxiter         =     50
    R_Convergence   =     1.0e-07
    E_Convergence   =     1.0e-08
    Restart         =     Yes
    DIIS            =     Yes
    AO Basis        =     NONE
    ABCD            =     NEW
    Cache Level     =     2
    Cache Type      =     LOW
    Print Level     =     1
    Num. of threads =     1
    # Amps to Print =     10
    Print MP2 Amps? =     No
    Analyze T2 Amps =     No
    Print Pair Ener =     No
    Local CC        =     No
    SCS-MP2         =     False
    SCSN-MP2        =     False
    SCS-CCSD        =     False

MP2 correlation energy -0.3802563053954455
                Solving CC Amplitude Equations
                ------------------------------
  Iter             Energy              RMS        T1Diag      D1Diag    New D1Diag    D2Diag
  ----     ---------------------    ---------   ----------  ----------  ----------   --------
     0        -0.380256305395446    0.000e+00    0.000000    0.000000    0.000000    0.143419
     1        -0.380254802707439    2.350e-02    0.006281    0.014957    0.014957    0.143419
     2        -0.382926539228826    6.976e-03    0.007604    0.017580    0.017580    0.146255
     3        -0.383312067115965    2.742e-03    0.008393    0.018848    0.018848    0.146676
     4        -0.383283495408541    9.595e-04    0.008568    0.018859    0.018859    0.146729
     5        -0.383286625200923    3.462e-04    0.008637    0.018841    0.018841    0.146745
     6        -0.383290105610119    9.323e-05    0.008642    0.018836    0.018836    0.146748
     7        -0.383289932271527    3.248e-05    0.008643    0.018835    0.018835    0.146748
     8        -0.383289793483959    1.255e-05    0.008643    0.018835    0.018835    0.146748
     9        -0.383289823369410    3.458e-06    0.008643    0.018835    0.018835    0.146748
    10        -0.383289826345920    1.544e-06    0.008643    0.018835    0.018835    0.146748
    11        -0.383289836396510    4.659e-07    0.008643    0.018835    0.018835    0.146748
    12        -0.383289840432492    1.935e-07    0.008643    0.018835    0.018835    0.146748
    13        -0.383289840905717    7.060e-08    0.008643    0.018835    0.018835    0.146748

    Iterations converged.


    Largest TIA Amplitudes:
              5  14        -0.0109554494
              6  14        -0.0098594080
              2   7        -0.0085098717
              2   9        -0.0082148275
              2   4         0.0076053348
              5  17         0.0075277220
              1   0        -0.0069350392
              1   8        -0.0069268907
              1   3         0.0063772897
              2   3        -0.0057368808

    Largest TIjAb Amplitudes:
      2   2  15  15        -0.0557781569
      1   1  15  15        -0.0278636304
      1   2  15  15         0.0272969982
      2   1  15  15         0.0272969982
      2   2  14  15         0.0270427379
      2   2  15  14         0.0270427379
      3   3  17  17        -0.0218529151
      2   3  15  17         0.0214876847
      3   2  17  15         0.0214876847
      2   6  15   2         0.0208245683

    SCF energy       (wfn)                    = -150.779183872358459
    Reference energy (file100)                = -150.779183872358317

    Opposite-spin MP2 correlation energy      =   -0.282698987515802
    Same-spin MP2 correlation energy          =   -0.097557317879644
    MP2 correlation energy                    =   -0.380256305395446
      * MP2 total energy                      = -151.159440177753766
    CC2 correlation energy                    =   -0.383289840905717
      * CC2 total energy                      = -151.162473713264035


*** tstop() called on ds1.sherrill.chemistry.gatech.edu at Mon Apr  4 10:21:28 2016
Module time:
	user time   =       0.12 seconds =       0.00 minutes
	system time =       0.26 seconds =       0.00 minutes
	total time  =          0 seconds =       0.00 minutes
Total time:
	user time   =       0.29 seconds =       0.00 minutes
	system time =       0.32 seconds =       0.01 minutes
	total time  =          0 seconds =       0.00 minutes

*** tstart() called on ds1.sherrill.chemistry.gatech.edu
*** at Mon Apr  4 10:21:28 2016


			**************************
			*                        *
			*         CCHBAR         *
			*                        *
			**************************


*** tstop() called on ds1.sherrill.chemistry.gatech.edu at Mon Apr  4 10:21:28 2016
Module time:
	user time   =       0.02 seconds =       0.00 minutes
	system time =       0.05 seconds =       0.00 minutes
	total time  =          0 seconds =       0.00 minutes
Total time:
	user time   =       0.31 seconds =       0.01 minutes
	system time =       0.37 seconds =       0.01 minutes
	total time  =          0 seconds =       0.00 minutes

*** tstart() called on ds1.sherrill.chemistry.gatech.edu
*** at Mon Apr  4 10:21:28 2016


	**********************************************************
	*  CCEOM: An Equation of Motion Coupled Cluster Program  *
	**********************************************************

	Nuclear Rep. energy (wfn)     =   38.253968380680334
	SCF energy          (wfn)     = -150.779183872358459
	Reference energy    (file100) = -150.779183872358317
	CC2 energy          (file100) =   -0.383289840905717

	Input parameters:
	-----------------
	Reference wfn   =     RHF
	Reference EOM wfn=     RHF
	Memory (Mbytes) =  250.0
	ABCD            =     NEW
	Cache Level     =    2
	Cache Type      =     LRU
	Num. of threads =     1
	Local CC        =     No


	CCEOM parameters:
	-----------------
	States sought per irrep     = A 2, B 2,
	Max. number of iterations   =    80
	Vectors stored per root     =    12
	Print HbarSS iterations?    =     0
	Excitation range for HBarSS =     2
	Eigenvalue tolerance        = 1.0e-05
	Eigenvalue toleranceSS      = 1.0e-06
	Residual vector tolerance   = 1.0e-04
	Residual vector toleranceSS = 1.0e-06
	Complex tolerance           = 1.0e-12
	Root for properties         =     2
	Sym of state for properties =      B
	Guess vectors taken from    = SINGLES
	Restart EOM CC3             = NO
	Collapse with last vector   = YES


Symmetry of ground state: A
Symmetry of excited state: A
Symmetry of right eigenvector: A
Seeking states with multiplicity of 1
Obtaining initial guess from singles-singles block of Hbar...Done.

Iter=1    L=2     Root    EOM Energy     Delta E   Res. Norm    Conv?
                     1   0.3908373750   3.91e-01    5.95e-01      N
                     2   0.4695339537   4.70e-01    6.54e-01      N
Iter=2    L=4     Root    EOM Energy     Delta E   Res. Norm    Conv?
                     1   0.2550709556  -1.36e-01    5.03e-02      N
                     2   0.3388817699  -1.31e-01    5.92e-02      N
Iter=3    L=6     Root    EOM Energy     Delta E   Res. Norm    Conv?
                     1   0.2512135764  -3.86e-03    5.79e-02      N
                     2   0.3366653957  -2.22e-03    2.88e-02      N
Iter=4    L=8     Root    EOM Energy     Delta E   Res. Norm    Conv?
                     1   0.2495571334  -1.66e-03    1.70e-02      N
                     2   0.3362551544  -4.10e-04    9.73e-03      N
Iter=5    L=10    Root    EOM Energy     Delta E   Res. Norm    Conv?
                     1   0.2493271705  -2.30e-04    8.41e-03      N
                     2   0.3361310598  -1.24e-04    7.17e-03      N
Iter=6    L=12    Root    EOM Energy     Delta E   Res. Norm    Conv?
                     1   0.2492941420  -3.30e-05    3.41e-03      N
                     2   0.3360872095  -4.39e-05    4.32e-03      N
Iter=7    L=14    Root    EOM Energy     Delta E   Res. Norm    Conv?
                     1   0.2492869292  -7.21e-06    1.18e-03      N
                     2   0.3360728191  -1.44e-05    1.37e-03      N
Iter=8    L=16    Root    EOM Energy     Delta E   Res. Norm    Conv?
                     1   0.2492852003  -1.73e-06    5.37e-04      N
                     2   0.3360714948  -1.32e-06    6.32e-04      N
Iter=9    L=18    Root    EOM Energy     Delta E   Res. Norm    Conv?
                     1   0.2492849760  -2.24e-07    1.15e-04      N
                     2   0.3360706413  -8.54e-07    2.07e-04      N
Iter=10   L=20    Root    EOM Energy     Delta E   Res. Norm    Conv?
                     1   0.2492849835   7.56e-09    3.72e-05      Y
                     2   0.3360710565   4.15e-07    9.93e-05      Y
Collapsing to only 2 vector(s).

Procedure converged for 2 root(s).
EOM CC2 R0 for root 0 =   0.00222257735
EOM CC2 R0 for root 1 =   0.01570026575

Final Energetic Summary for Converged Roots of Irrep A
                     Excitation Energy              Total Energy
                (eV)     (cm^-1)     (au)             (au)
EOM State 1      6.783    54711.7   0.2492849835  -150.913188729736

Largest components of excited wave function #1:
 RIA (libdpd indices) : (cscf notation)
         3 >   0      :        5a >     6a :   -0.6769441198
         3 >   1      :        5a >     7a :    0.0595076033
         2 >   0      :        4a >     6a :   -0.0329571005
         2 >   0      :        4b >     5b :   -0.0296933452
         1 >   0      :        3b >     5b :    0.0289994530
 RIjAb (libdpd indices)     : (cscf notation)
        2   1 >   1   0     :     4a     3b >     6b     6a :   -0.0443379564
        1   2 >   0   1     :     3b     4a >     6a     6b :   -0.0443379564
        1   3 >   0   0     :     3a     5a >     6a     6a :   -0.0340050213
        3   1 >   0   0     :     5a     3a >     6a     6a :   -0.0340050213
        1   1 >   1   0     :     3a     3b >     6b     6a :    0.0280579786
EOM State 2      9.145    73759.1   0.3360710565  -150.826402656770

Largest components of excited wave function #2:
 RIA (libdpd indices) : (cscf notation)
         2 >   0      :        4b >     5b :    0.5493306309
         2 >   1      :        4b >     6b :   -0.3949868943
         1 >   0      :        3b >     5b :   -0.0790971373
         1 >   1      :        3b >     6b :    0.0624887086
         2 >   2      :        4b >     7b :   -0.0486861428
 RIjAb (libdpd indices)     : (cscf notation)
        2   2 >   0   1     :     4a     4a >     5b     6b :   -0.0333764588
        2   2 >   1   0     :     4a     4a >     6b     5b :   -0.0333764588
        2   2 >   1   1     :     4a     4a >     6b     6b :    0.0322443347
        2   2 >   0   0     :     4a     4a >     5b     5b :    0.0274807095
        2   3 >   1   0     :     4a     5a >     6b     5b :   -0.0270848057

Symmetry of excited state: B
Symmetry of right eigenvector: B
Seeking states with multiplicity of 1
Obtaining initial guess from singles-singles block of Hbar...Done.

Iter=1    L=2     Root    EOM Energy     Delta E   Res. Norm    Conv?
                     1   0.3840582303   3.84e-01    6.54e-01      N
                     2   0.4526989243   4.53e-01    5.76e-01      N
Iter=2    L=4     Root    EOM Energy     Delta E   Res. Norm    Conv?
                     1   0.2558809035  -1.28e-01    5.67e-02      N
                     2   0.3343922182  -1.18e-01    4.56e-02      N
Iter=3    L=6     Root    EOM Energy     Delta E   Res. Norm    Conv?
                     1   0.2540437637  -1.84e-03    2.36e-02      N
                     2   0.3320770040  -2.32e-03    3.79e-02      N
Iter=4    L=8     Root    EOM Energy     Delta E   Res. Norm    Conv?
                     1   0.2537339902  -3.10e-04    1.15e-02      N
                     2   0.3313054066  -7.72e-04    1.65e-02      N
Iter=5    L=10    Root    EOM Energy     Delta E   Res. Norm    Conv?
                     1   0.2535244965  -2.09e-04    9.53e-03      N
                     2   0.3306781090  -6.27e-04    2.35e-02      N
Iter=6    L=12    Root    EOM Energy     Delta E   Res. Norm    Conv?
                     1   0.2534711523  -5.33e-05    3.80e-03      N
                     2   0.3302326490  -4.45e-04    1.68e-02      N
Iter=7    L=14    Root    EOM Energy     Delta E   Res. Norm    Conv?
                     1   0.2534604016  -1.08e-05    9.31e-04      N
                     2   0.3300578563  -1.75e-04    6.48e-03      N
Iter=8    L=16    Root    EOM Energy     Delta E   Res. Norm    Conv?
                     1   0.2534596593  -7.42e-07    3.82e-04      N
                     2   0.3300118556  -4.60e-05    4.16e-03      N
Iter=9    L=18    Root    EOM Energy     Delta E   Res. Norm    Conv?
                     1   0.2534593919  -2.67e-07    1.19e-04      N
                     2   0.3300025053  -9.35e-06    1.49e-03      N
Iter=10   L=20    Root    EOM Energy     Delta E   Res. Norm    Conv?
                     1   0.2534596113   2.19e-07    5.85e-05      Y
                     2   0.3300027430   2.38e-07    6.71e-04      N
Iter=11   L=21    Root    EOM Energy     Delta E   Res. Norm    Conv?
                     1   0.2534596623   5.09e-08    3.77e-05      Y
                     2   0.3300022064  -5.37e-07    3.40e-04      N
Iter=12   L=22    Root    EOM Energy     Delta E   Res. Norm    Conv?
                     1   0.2534596363  -2.60e-08    2.73e-05      Y
                     2   0.3300020493  -1.57e-07    1.49e-04      N
Iter=13   L=23    Root    EOM Energy     Delta E   Res. Norm    Conv?
                     1   0.2534596216  -1.47e-08    2.53e-05      Y
                     2   0.3300021901   1.41e-07    4.34e-05      Y
Collapsing to only 2 vector(s).

Procedure converged for 2 root(s).
Energy written to CC_INFO:Etot -150.8324715231
States per irrep written to CC_INFO.
EOM CC2 R0 for root 0 =   0.00000000000
EOM CC2 R0 for root 1 =   0.00000000000

Final Energetic Summary for Converged Roots of Irrep B
                     Excitation Energy              Total Energy
                (eV)     (cm^-1)     (au)             (au)
EOM State 3      6.897    55627.9   0.2534596216  -150.909014091670

Largest components of excited wave function #3:
 RIA (libdpd indices) : (cscf notation)
         3 >   0      :        5a >     5b :   -0.5559553932
         3 >   1      :        5a >     6b :    0.3960782665
         3 >   2      :        5a >     7b :    0.0499449087
         2 >   0      :        4a >     5b :   -0.0429227404
         2 >   1      :        4a >     6b :    0.0384589502
 RIjAb (libdpd indices)     : (cscf notation)
        2   1 >   1   0     :     4a     3b >     6b     5b :   -0.0371373084
        1   2 >   0   1     :     3b     4a >     5b     6b :   -0.0371373084
        2   1 >   1   1     :     4a     3b >     6b     6b :    0.0245531258
        1   2 >   1   1     :     3b     4a >     6b     6b :    0.0245531258
        1   1 >   1   0     :     3a     3b >     6b     5b :    0.0232122367
EOM State 4      8.980    72427.1   0.3300021901  -150.832471523121

Largest components of excited wave function #4:
 RIA (libdpd indices) : (cscf notation)
         2 >   0      :        4b >     6a :    0.6052370991
         3 >   1      :        5a >     6b :    0.2475062994
         3 >   0      :        5a >     5b :    0.1457632861
         1 >   0      :        3b >     6a :   -0.1181548814
         2 >   1      :        4b >     7a :   -0.0541862646
 RIjAb (libdpd indices)     : (cscf notation)
        1   2 >   0   0     :     3a     4b >     6a     6a :    0.0336279067
        2   1 >   0   0     :     4b     3a >     6a     6a :    0.0336279067
        2   3 >   1   0     :     4a     5a >     6b     6a :   -0.0261191895
        3   2 >   0   1     :     5a     4a >     6a     6b :   -0.0261191895
        2   2 >   0   1     :     4a     4a >     6a     6b :   -0.0256988254

	Putting into environment energy for root of R irrep 2 and root 2.
	Putting into environment CURRENT ENERGY:             -150.8324715231

	Total # of sigma evaluations: 43

*** tstop() called on ds1.sherrill.chemistry.gatech.edu at Mon Apr  4 10:21:29 2016
Module time:
	user time   =       0.28 seconds =       0.00 minutes
	system time =       0.18 seconds =       0.00 minutes
	total time  =          1 seconds =       0.02 minutes
Total time:
	user time   =       0.59 seconds =       0.01 minutes
	system time =       0.55 seconds =       0.01 minutes
	total time  =          1 seconds =       0.02 minutes

*** tstart() called on ds1.sherrill.chemistry.gatech.edu
*** at Mon Apr  4 10:21:29 2016


			**************************
			*        CCLAMBDA        *
			**************************


	Nuclear Rep. energy (wfn)     =   38.253968380680334
	Reference           (wfn)     =                    0
	SCF energy          (wfn)     = -150.779183872358459
	Reference energy    (CC_INFO) = -150.779183872358317
	CC2 energy          (CC_INFO) =   -0.383289840905717
	Total CC2 energy    (CC_INFO) = -151.162473713264035

	Input parameters:
	-----------------
	Maxiter           =     50
	Convergence       = 1.0e-04
	Restart           =     No
	Cache Level       =     2
	Model III         =     No
	DIIS              =     Yes
	AO Basis          =     No
	ABCD              =     NEW
	Local CC          =     No
	Paramaters for left-handed eigenvectors:
	    Irr   Root  Ground-State?    EOM energy        R0
	  1   0     0        Yes       0.0000000000   1.0000000000
	  2   0     1         No       0.2492849835   0.0022225773
	  3   0     2         No       0.3360710565   0.0157002657
	  4   1     1         No       0.2534596216   0.0000000000
	  5   1     2         No       0.3300021901   0.0000000000
	Labels for eigenvector 1:
	LIA 0 -1, Lia 0 -1, LIJAB 0 -1, Lijab 0 -1, LIjAb 0 -1, 2LIjAb - LIjbA 0 -1
	Labels for eigenvector 2:
	LIA 0 0, Lia 0 0, LIJAB 0 0, Lijab 0 0, LIjAb 0 0, 2LIjAb - LIjbA 0 0
	Labels for eigenvector 3:
	LIA 0 1, Lia 0 1, LIJAB 0 1, Lijab 0 1, LIjAb 0 1, 2LIjAb - LIjbA 0 1
	Labels for eigenvector 4:
	LIA 1 0, Lia 1 0, LIJAB 1 0, Lijab 1 0, LIjAb 1 0, 2LIjAb - LIjbA 1 0
	Labels for eigenvector 5:
	LIA 1 1, Lia 1 1, LIJAB 1 1, Lijab 1 1, LIjAb 1 1, 2LIjAb - LIjbA 1 1
	Deleting old CC_LAMBDA data.
	Symmetry of left-hand state: A
	Symmetry of left-hand eigenvector: A

	          Solving Lambda Equations
	          ------------------------
	Iter     PseudoEnergy or Norm         RMS  
	----     ---------------------     --------
	   0        -0.383295397506733    0.000e+00
	   1        -0.383117230994412    1.890e-03
	   2        -0.383117283426905    3.947e-04
	   3        -0.383115579296852    1.797e-04
	   4        -0.383115422138374    4.040e-05

	Largest LIA Amplitudes:
	          5  14        -0.0106463740
	          6  14        -0.0091194431
	          2   7        -0.0085628904
	          2   9        -0.0085251020
	          2   4         0.0077482229
	          5  17         0.0076072549
	          1   8        -0.0069596903
	          1   3         0.0064424743
	          1   0        -0.0061372491
	          2   3        -0.0058820193

	Largest LIjAb Amplitudes:
	  2   2  15  15        -0.0557426325
	  1   1  15  15        -0.0278679435
	  1   2  15  15         0.0272992996
	  2   1  15  15         0.0272992996
	  2   2  14  15         0.0269862860
	  2   2  15  14         0.0269862860
	  3   3  17  17        -0.0218489577
	  2   3  15  17         0.0214817640
	  3   2  17  15         0.0214817640
	  2   6  15   2         0.0208259404

	Iterations converged.

	Overlap <L|e^T> =        0.89784163859
	Symmetry of left-hand state: A
	Symmetry of left-hand eigenvector: A
	Initial overlap of initial guess <L|R> =    0.9999893877
	Checking overlap of initial guess <L|R> =    1.0000000000

	          Solving Lambda Equations
	          ------------------------
	Iter     PseudoEnergy or Norm         RMS  
	----     ---------------------     --------
	   0        -0.000184860014336    4.040e-05
	   1         0.000394334614775    5.434e-03
	   2         0.000419946563683    1.122e-03
	   3         0.000424832510077    6.025e-04
	   4         0.000424384964747    2.685e-04
	   5         0.000423228276698    6.867e-05

	Initial  <L|R>  =        1.0013709669
	Normalizing L...
	L0 * R0 =        0.0000000000
	L1 * R1 =        0.9356992868
	L2 * R2 =        0.0643007132
	 <L|R>  =        1.0000000000
	Pseudoenergy or Norm of normalized L =    0.000422648839123

	Largest LIA Amplitudes:
	          3   0        -0.6775309237
	          3   1         0.0574129663
	          2   0        -0.0336132958
	          6  14        -0.0289609187
	          5  14         0.0288654001
	          5  15         0.0284686210
	          6  15        -0.0248025696
	          3   2        -0.0195013546
	          1   0        -0.0156515004
	          3   5         0.0152554947

	Largest LIjAb Amplitudes:
	  2   5  15   0        -0.0437058322
	  5   2   0  15        -0.0437058322
	  1   3   0   0        -0.0336630503
	  3   1   0   0        -0.0336630503
	  1   5  15   0         0.0281256635
	  5   1   0  15         0.0281256635
	  3   5  17   0         0.0264675170
	  5   3   0  17         0.0264675170
	  2   6  15   0         0.0258689808
	  6   2   0  15         0.0258689808

	Iterations converged.

	Symmetry of left-hand state: A
	Symmetry of left-hand eigenvector: A
	Initial overlap of initial guess <L|R> =    0.9994932810
	Checking overlap of initial guess <L|R> =    1.0000000000

	          Solving Lambda Equations
	          ------------------------
	Iter     PseudoEnergy or Norm         RMS  
	----     ---------------------     --------
	   0        -0.000356035692829    6.867e-05
	   1         0.003886346861250    8.449e-03
	   2         0.004060365792422    1.814e-03
	   3         0.004094767480973    1.468e-03
	   4         0.004106813285120    9.549e-04
	   5         0.004105090757717    6.755e-04
	   6         0.004108844550672    3.875e-04
	   7         0.004111502320018    1.022e-04
	   8         0.004111731790250    3.783e-05

	Initial  <L|R>  =        1.0029562034
	Normalizing L...
	L0 * R0 =        0.0000000000
	L1 * R1 =        0.9495230235
	L2 * R2 =        0.0504769765
	 <L|R>  =        1.0000000000
	Pseudoenergy or Norm of normalized L =    0.004099612501785

	Largest LIA Amplitudes:
	          6  14         0.5539432985
	          6  15        -0.3898889506
	          5  14        -0.0808013630
	          5  15         0.0623775268
	          6  16        -0.0464459954
	          6  17        -0.0319155388
	          6  19         0.0262756656
	          2   0         0.0174108685
	          1   0         0.0158338978
	          6  22        -0.0148816436

	Largest LIjAb Amplitudes:
	  2   2  14  15        -0.0322037151
	  2   2  15  14        -0.0322037151
	  2   2  15  15         0.0307939088
	  2   3  15  14        -0.0269247562
	  3   2  14  15        -0.0269247562
	  2   2  14  14         0.0263700014
	  1   1  15  15        -0.0224733906
	  1   2  14  15        -0.0224341962
	  2   1  15  14        -0.0224341962
	  1   3  15  14         0.0218648871

	Iterations converged.

	Symmetry of left-hand state: B
	Symmetry of left-hand eigenvector: B
	Initial overlap of initial guess <L|R> =    1.0000000000
	Checking overlap of initial guess <L|R> =    1.0000000000

	          Solving Lambda Equations
	          ------------------------
	Iter     PseudoEnergy or Norm         RMS  
	----     ---------------------     --------
	   0         1.000000000000000    3.783e-05
	   1         1.001633291227410    9.597e-03
	   2         1.001662894041952    1.700e-03
	   3         1.001924277350858    1.339e-03
	   4         1.002158902961815    8.362e-04
	   5         1.002345075478325    6.067e-04
	   6         1.002525032273509    3.279e-04
	   7         1.002568515927458    1.053e-04
	   8         1.002569484874388    2.792e-05

	Initial  <L|R>  =        1.0024637063
	Normalizing L...
	L0 * R0 =        0.0000000000
	L1 * R1 =        0.9523863299
	L2 * R2 =        0.0476136701
	 <L|R>  =        1.0000000000
	Pseudoenergy or Norm of normalized L =    1.000105518633516

	Largest LIA Amplitudes:
	          3  14        -0.5608054683
	          3  15         0.3903094610
	          3  16         0.0481938501
	          2  14        -0.0436659455
	          2  15         0.0382769327
	          3  17         0.0295148480
	          3  19        -0.0277646527
	          6   0        -0.0215586280
	          3  18         0.0206189735
	          3  22         0.0170276896

	Largest LIjAb Amplitudes:
	  2   5  15  14        -0.0367732836
	  5   2  14  15        -0.0367732836
	  2   5  15  15         0.0238142361
	  5   2  15  15         0.0238142361
	  1   5  15  14         0.0234557720
	  5   1  14  15         0.0234557720
	  2   6  15  14         0.0216091725
	  6   2  14  15         0.0216091725
	  2   5  14  14         0.0200651345
	  5   2  14  14         0.0200651345

	Iterations converged.

	Symmetry of left-hand state: B
	Symmetry of left-hand eigenvector: B
	Initial overlap of initial guess <L|R> =    1.0000000000
	Checking overlap of initial guess <L|R> =    1.0000000000

	          Solving Lambda Equations
	          ------------------------
	Iter     PseudoEnergy or Norm         RMS  
	----     ---------------------     --------
	   0         1.000000000000000    2.792e-05
	   1         1.001485569991262    8.504e-03
	   2         1.001228669351472    1.292e-03
	   3         1.001359002578808    6.220e-04
	   4         1.001389500911639    2.924e-04
	   5         1.001387144042089    8.506e-05

	Initial  <L|R>  =        1.0013413077
	Normalizing L...
	L0 * R0 =        0.0000000000
	L1 * R1 =        0.9442287214
	L2 * R2 =        0.0557712786
	 <L|R>  =        1.0000000000
	Pseudoenergy or Norm of normalized L =    1.000045774897419

	Largest LIA Amplitudes:
	          6   0         0.6060566918
	          3  15         0.2449993665
	          3  14         0.1490687791
	          5   0        -0.1189052963
	          6   1        -0.0523094948
	          2  15         0.0434270106
	          3  19        -0.0268395976
	          3  16        -0.0264173967
	          1  14         0.0255012928
	          5   1         0.0186605943

	Largest LIjAb Amplitudes:
	  1   6   0   0         0.0331078074
	  6   1   0   0         0.0331078074
	  2   3  15   0        -0.0256112174
	  3   2   0  15        -0.0256112174
	  2   2   0  15        -0.0248985130
	  2   2  15   0        -0.0248985130
	  1   2   0  15        -0.0238802053
	  2   1  15   0        -0.0238802053
	  6   6   0  18        -0.0205741935
	  6   6  18   0        -0.0205741935

	Iterations converged.

	<L|R> overlap matrix with ROHF quantities (-99 => 0 by symmetry)

                 1            2            3            4            5

    1    1.0000000   -0.0000000    0.0000000  -99.0000000  -99.0000000
    2    0.0000000    1.0000000   -0.0000000  -99.0000000  -99.0000000
    3    0.0000000   -0.0000001    1.0000000  -99.0000000  -99.0000000
    4  -99.0000000  -99.0000000  -99.0000000    1.0000000    0.0000000
    5  -99.0000000  -99.0000000  -99.0000000   -0.0000000    1.0000000


	<L|R> overlap matrix with RHF quantities (-99 => 0 by symmetry)

                 1            2            3            4            5

    1    1.0000000    0.0000000   -0.0000000  -99.0000000  -99.0000000
    2    0.0000000    1.0000000    0.0000000  -99.0000000  -99.0000000
    3    0.0000000    0.0000000    1.0000000  -99.0000000  -99.0000000
    4  -99.0000000  -99.0000000  -99.0000000    1.0000000    0.0000000
    5  -99.0000000  -99.0000000  -99.0000000    0.0000000    1.0000000



	Projections for excited state, irrep A, root 0:
	<0|Le^(-T)|0><0|Re^T|0>  =    0.0000055030
	<0|Le^(-T)|S><S|Re^T|0>  =    0.9365732895
	<0|Le^(-T)|D><D|Re^T|0>  =    0.0634212088
	Sum of above             =    1.0000000013
	Approx. excitation level =    1.0634157072

	Projections for excited state, irrep A, root 1:
	<0|Le^(-T)|0><0|Re^T|0>  =    0.0002520770
	<0|Le^(-T)|S><S|Re^T|0>  =    0.9490670392
	<0|Le^(-T)|D><D|Re^T|0>  =    0.0506808904
	Sum of above             =    1.0000000065
	Approx. excitation level =    1.0504288200

	Projections for excited state, irrep A, root 0:
	<0|Le^(-T)|0><0|Re^T|0>  =    0.0000000000
	<0|Le^(-T)|S><S|Re^T|0>  =    0.9520831060
	<0|Le^(-T)|D><D|Re^T|0>  =    0.0479168943
	Sum of above             =    1.0000000002
	Approx. excitation level =    1.0479168945

	Projections for excited state, irrep A, root 1:
	<0|Le^(-T)|0><0|Re^T|0>  =    0.0000000000
	<0|Le^(-T)|S><S|Re^T|0>  =    0.9449312354
	<0|Le^(-T)|D><D|Re^T|0>  =    0.0550687639
	Sum of above             =    0.9999999992
	Approx. excitation level =    1.0550687631

*** tstop() called on ds1.sherrill.chemistry.gatech.edu at Mon Apr  4 10:21:29 2016
Module time:
	user time   =       0.09 seconds =       0.00 minutes
	system time =       0.08 seconds =       0.00 minutes
	total time  =          0 seconds =       0.00 minutes
Total time:
	user time   =       0.68 seconds =       0.01 minutes
	system time =       0.63 seconds =       0.01 minutes
	total time  =          1 seconds =       0.02 minutes

*** tstart() called on ds1.sherrill.chemistry.gatech.edu
*** at Mon Apr  4 10:21:29 2016


			**************************
			*                        *
			*        CCDENSITY       *
			*                        *
			**************************


	Input parameters:
	-----------------
	Wave function    = EOM_CC2
	Reference wfn    =   RHF
	Dertype          = 0
	Tolerance        = 1.0e-14
	Cache Level      = 2
	AO Basis         = No
	OPDM Only        = Yes
	Relax OPDM       = No
	Compute Xi       = No
	Use Zeta         = No
	Xi connected     = Yes
	Compute NO       = No

	Nuclear Rep. energy (wfn)     =   38.253968380680334
	SCF energy          (wfn)     = -150.779183872358459
	Reference energy    (file100) = -150.779183872358317
	CC2 energy          (CC_INFO) =   -0.383289840905717
	Total CC2 energy    (CC_INFO) = -151.162473713264035
	Number of States = 5

	Ground?  State     EOM Energy       R0
	  Yes     0  A    0.0000000000   1.00000000
	   No     1  A    0.2492849835   0.00222258
	   No     2  A    0.3360710565   0.01570027
	   No     1  B    0.2534596216   0.00000000
	   No     2  B    0.3300021901   0.00000000
  ==> Properties: Root 0 <==



Properties will be evaluated at   0.000000,   0.000000,   0.000000 Bohr

CC Density OPDM


Properties computed using the CC density matrix

  Nuclear Dipole Moment: (a.u.)
     X:     0.0000      Y:     0.0000      Z:     1.4677

  Electronic Dipole Moment: (a.u.)
     X:     0.0000      Y:     0.0000      Z:    -0.3278

  Dipole Moment: (a.u.)
     X:     0.0000      Y:     0.0000      Z:     1.1398     Total:     1.1398

  Dipole Moment: (Debye)
     X:     0.0000      Y:     0.0000      Z:     2.8972     Total:     2.8972

  Quadrupole Moment: (Debye Ang)
    XX:   -11.6671     YY:   -11.0457     ZZ:    -9.3692
    XY:    -1.4071     XZ:     0.0000     YZ:     0.0000

  Traceless Quadrupole Moment: (Debye Ang)
    XX:    -0.9731     YY:    -0.3517     ZZ:     1.3248
    XY:    -1.4071     XZ:     0.0000     YZ:     0.0000

  Mulliken Charges: (a.u.)
   Center  Symbol    Alpha    Beta     Spin     Total
       1     O     4.08371  4.08371  0.00000 -0.16743
       2     O     4.08371  4.08371  0.00000 -0.16743
       3     H     0.41629  0.41629  0.00000  0.16743
       4     H     0.41629  0.41629  0.00000  0.16743

   Total alpha =  9.00000, Total beta =  9.00000, Total charge =  0.00000

  Natural Orbital Occupations:

  Total Occupations:
  HONO-2 :    4  A    1.968
  HONO-1 :    4  B    1.966
  HONO-0 :    5  A    1.943
  LUNO+0 :    5  B    0.050
  LUNO+1 :    6  A    0.023
  LUNO+2 :    6  B    0.022
  LUNO+3 :    7  B    0.019

  ==> Properties: Root 1 <==



Properties will be evaluated at   0.000000,   0.000000,   0.000000 Bohr

CC Density OPDM


Properties computed using the CC density matrix

  Nuclear Dipole Moment: (a.u.)
     X:     0.0000      Y:     0.0000      Z:     1.4677

  Electronic Dipole Moment: (a.u.)
     X:     0.0000      Y:     0.0000      Z:    -2.0235

  Dipole Moment: (a.u.)
     X:     0.0000      Y:     0.0000      Z:    -0.5558     Total:     0.5558

  Dipole Moment: (Debye)
     X:     0.0000      Y:     0.0000      Z:    -1.4128     Total:     1.4128

  Quadrupole Moment: (Debye Ang)
    XX:   -13.9067     YY:   -13.2865     ZZ:   -16.4603
    XY:     0.2628     XZ:     0.0000     YZ:     0.0000

  Traceless Quadrupole Moment: (Debye Ang)
    XX:     0.6444     YY:     1.2647     ZZ:    -1.9091
    XY:     0.2628     XZ:     0.0000     YZ:     0.0000

  Mulliken Charges: (a.u.)
   Center  Symbol    Alpha    Beta     Spin     Total
       1     O     4.08371  4.08371  0.00000 -0.16743
       2     O     4.08371  4.08371  0.00000 -0.16743
       3     H     0.41629  0.41629  0.00000  0.16743
       4     H     0.41629  0.41629  0.00000  0.16743

   Total alpha =  9.00000, Total beta =  9.00000, Total charge =  0.00000

  Natural Orbital Occupations:

  Total Occupations:
  HONO-2 :    4  A    1.975
  HONO-1 :    4  B    1.959
  HONO-0 :    5  A    1.035
  LUNO+0 :    6  A    0.988
  LUNO+1 :    5  B    0.024
  LUNO+2 :    6  B    0.018
  LUNO+3 :    7  A    0.006

  ==> Properties: Root 2 <==



Properties will be evaluated at   0.000000,   0.000000,   0.000000 Bohr

CC Density OPDM


Properties computed using the CC density matrix

  Nuclear Dipole Moment: (a.u.)
     X:     0.0000      Y:     0.0000      Z:     1.4677

  Electronic Dipole Moment: (a.u.)
     X:     0.0000      Y:     0.0000      Z:    -0.7768

  Dipole Moment: (a.u.)
     X:     0.0000      Y:     0.0000      Z:     0.6908     Total:     0.6908

  Dipole Moment: (Debye)
     X:     0.0000      Y:     0.0000      Z:     1.7559     Total:     1.7559

  Quadrupole Moment: (Debye Ang)
    XX:   -12.1976     YY:   -13.9980     ZZ:    -9.7604
    XY:    -0.9808     XZ:     0.0000     YZ:     0.0000

  Traceless Quadrupole Moment: (Debye Ang)
    XX:    -0.2122     YY:    -2.0126     ZZ:     2.2249
    XY:    -0.9808     XZ:     0.0000     YZ:     0.0000

  Mulliken Charges: (a.u.)
   Center  Symbol    Alpha    Beta     Spin     Total
       1     O     4.08371  4.08371  0.00000 -0.16743
       2     O     4.08371  4.08371  0.00000 -0.16743
       3     H     0.41629  0.41629  0.00000  0.16743
       4     H     0.41629  0.41629  0.00000  0.16743

   Total alpha =  9.00000, Total beta =  9.00000, Total charge =  0.00000

  Natural Orbital Occupations:

  Total Occupations:
  HONO-2 :    4  A    1.979
  HONO-1 :    5  A    1.967
  HONO-0 :    4  B    1.028
  LUNO+0 :    5  B    0.993
  LUNO+1 :    6  B    0.017
  LUNO+2 :    6  A    0.007
  LUNO+3 :    7  B    0.005

  ==> Properties: Root 3 <==



Properties will be evaluated at   0.000000,   0.000000,   0.000000 Bohr

CC Density OPDM


Properties computed using the CC density matrix

  Nuclear Dipole Moment: (a.u.)
     X:     0.0000      Y:     0.0000      Z:     1.4677

  Electronic Dipole Moment: (a.u.)
     X:     0.0000      Y:     0.0000      Z:    -0.6875

  Dipole Moment: (a.u.)
     X:     0.0000      Y:     0.0000      Z:     0.7802     Total:     0.7802

  Dipole Moment: (Debye)
     X:     0.0000      Y:     0.0000      Z:     1.9830     Total:     1.9830

  Quadrupole Moment: (Debye Ang)
    XX:   -11.5842     YY:   -13.9751     ZZ:   -10.6229
    XY:    -0.4562     XZ:     0.0000     YZ:     0.0000

  Traceless Quadrupole Moment: (Debye Ang)
    XX:     0.4765     YY:    -1.9144     ZZ:     1.4378
    XY:    -0.4562     XZ:     0.0000     YZ:     0.0000

  Mulliken Charges: (a.u.)
   Center  Symbol    Alpha    Beta     Spin     Total
       1     O     4.08371  4.08371  0.00000 -0.16743
       2     O     4.08371  4.08371  0.00000 -0.16743
       3     H     0.41629  0.41629  0.00000  0.16743
       4     H     0.41629  0.41629  0.00000  0.16743

   Total alpha =  9.00000, Total beta =  9.00000, Total charge =  0.00000

  Natural Orbital Occupations:

  Total Occupations:
  HONO-2 :    4  A    1.981
  HONO-1 :    4  B    1.969
  HONO-0 :    5  A    1.025
  LUNO+0 :    5  B    0.991
  LUNO+1 :    6  B    0.016
  LUNO+2 :    6  A    0.007
  LUNO+3 :    7  B    0.005

  ==> Properties: Root 4 <==



Properties will be evaluated at   0.000000,   0.000000,   0.000000 Bohr

CC Density OPDM


Properties computed using the CC density matrix

  Nuclear Dipole Moment: (a.u.)
     X:     0.0000      Y:     0.0000      Z:     1.4677

  Electronic Dipole Moment: (a.u.)
     X:     0.0000      Y:     0.0000      Z:    -1.9944

  Dipole Moment: (a.u.)
     X:     0.0000      Y:     0.0000      Z:    -0.5267     Total:     0.5267

  Dipole Moment: (Debye)
     X:     0.0000      Y:     0.0000      Z:    -1.3387     Total:     1.3387

  Quadrupole Moment: (Debye Ang)
    XX:   -14.2850     YY:   -13.5795     ZZ:   -15.3582
    XY:    -0.0453     XZ:     0.0000     YZ:     0.0000

  Traceless Quadrupole Moment: (Debye Ang)
    XX:     0.1226     YY:     0.8281     ZZ:    -0.9507
    XY:    -0.0453     XZ:     0.0000     YZ:     0.0000

  Mulliken Charges: (a.u.)
   Center  Symbol    Alpha    Beta     Spin     Total
       1     O     4.08371  4.08371  0.00000 -0.16743
       2     O     4.08371  4.08371  0.00000 -0.16743
       3     H     0.41629  0.41629  0.00000  0.16743
       4     H     0.41629  0.41629  0.00000  0.16743

   Total alpha =  9.00000, Total beta =  9.00000, Total charge =  0.00000

  Natural Orbital Occupations:

  Total Occupations:
  HONO-2 :    4  A    1.979
  HONO-1 :    5  A    1.803
  HONO-0 :    4  B    1.202
  LUNO+0 :    6  A    0.816
  LUNO+1 :    5  B    0.188
  LUNO+2 :    6  B    0.017
  LUNO+3 :    7  A    0.006

I am here
Doing transition

	Oscillator Strength for 1  A
	                              X    	       Y    	       Z
	<0|mu_e|n>               0.00000000 	  0.00000000 	 -0.00604453
	<n|mu_e|0>               0.00000000 	  0.00000000 	 -0.00469777
	Dipole Strength          0.00002840 
	Oscillator Strength      0.00000472 
	Einstein A Coefficient   9.42242497e+03 
	Einstein B Coefficient   3.45482077e+15 
Doing transition

	Length-Gauge Rotational Strength for 1  A
	                              X    	       Y    	       Z
	<0|mu_e|n>               0.00000000 	  0.00000000 	 -0.00604453
	<n|mu_m|0>               0.00000000 	  0.00000000 	  0.32011208
	<0|mu_m|n>*              0.00000000 	  0.00000000 	  0.31184179
	<n|mu_e|0>*              0.00000000 	  0.00000000 	 -0.00469777

	Rotational Strength (au)                 -0.00169994
	Rotational Strength (10^-40 esu^2 cm^2)  -0.80142800

	Velocity-Gauge Rotational Strength for 1  A
	                              X    	       Y    	       Z
	<0|mu_e|n>               0.00000000 	  0.00000000 	 -0.01650481
	<n|mu_m|0>               0.00000000 	  0.00000000 	  0.32011208
	<0|mu_m|n>*              0.00000000 	  0.00000000 	  0.31184179
	<n|mu_e|0>*              0.00000000 	  0.00000000 	 -0.01642554

	Rotational Strength (au)                 -0.02087081
	Rotational Strength (10^-40 esu^2 cm^2)  -9.83940871
Doing transition
Doing transition

	Oscillator Strength for 2  A
	                              X    	       Y    	       Z
	<0|mu_e|n>               0.00000000 	  0.00000000 	  0.21035901
	<n|mu_e|0>               0.00000000 	  0.00000000 	  0.21838458
	Dipole Strength          0.04593916 
	Oscillator Strength      0.01029255 
	Einstein A Coefficient   3.73504686e+07 
	Einstein B Coefficient   5.58925481e+18 
Doing transition

	Length-Gauge Rotational Strength for 2  A
	                              X    	       Y    	       Z
	<0|mu_e|n>               0.00000000 	  0.00000000 	  0.21035901
	<n|mu_m|0>               0.00000000 	  0.00000000 	  0.19595003
	<0|mu_m|n>*              0.00000000 	  0.00000000 	  0.18974388
	<n|mu_e|0>*              0.00000000 	  0.00000000 	  0.21838458

	Rotational Strength (au)                  0.04132850
	Rotational Strength (10^-40 esu^2 cm^2)  19.48405249

	Velocity-Gauge Rotational Strength for 2  A
	                              X    	       Y    	       Z
	<0|mu_e|n>               0.00000000 	  0.00000000 	  0.10727746
	<n|mu_m|0>               0.00000000 	  0.00000000 	  0.19595003
	<0|mu_m|n>*              0.00000000 	  0.00000000 	  0.18974388
	<n|mu_e|0>*              0.00000000 	  0.00000000 	  0.11156369

	Rotational Strength (au)                  0.06276879
	Rotational Strength (10^-40 esu^2 cm^2)  29.59194187
Doing transition
Doing transition

	Oscillator Strength for 1  B
	                              X    	       Y    	       Z
	<0|mu_e|n>               0.09710180 	  0.06544053 	  0.00000000
	<n|mu_e|0>               0.09990700 	  0.06592845 	  0.00000000
	Dipole Strength          0.01401554 
	Oscillator Strength      0.00236825 
	Einstein A Coefficient   4.88827775e+06 
	Einstein B Coefficient   1.70522117e+18 
Doing transition

	Length-Gauge Rotational Strength for 1  B
	                              X    	       Y    	       Z
	<0|mu_e|n>               0.09710180 	  0.06544053 	  0.00000000
	<n|mu_m|0>              -0.08654109 	  0.04057903 	  0.00000000
	<0|mu_m|n>*             -0.08445379 	  0.03869748 	  0.00000000
	<n|mu_e|0>*              0.09990700 	  0.06592845 	  0.00000000

	Rotational Strength (au)                 -0.00581702
	Rotational Strength (10^-40 esu^2 cm^2)  -2.74239700

	Velocity-Gauge Rotational Strength for 1  B
	                              X    	       Y    	       Z
	<0|mu_e|n>               0.08741322 	  0.01015863 	  0.00000000
	<n|mu_m|0>              -0.08654109 	  0.04057903 	  0.00000000
	<0|mu_m|n>*             -0.08445379 	  0.03869748 	  0.00000000
	<n|mu_e|0>*              0.09147011 	  0.00985726 	  0.00000000

	Rotational Strength (au)                 -0.02859658
	Rotational Strength (10^-40 esu^2 cm^2)  -13.48167071
Doing transition
Doing transition

	Oscillator Strength for 2  B
	                              X    	       Y    	       Z
	<0|mu_e|n>              -0.15192758 	 -0.14719604 	  0.00000000
	<n|mu_e|0>              -0.15458930 	 -0.15339002 	  0.00000000
	Dipole Strength          0.04606478 
	Oscillator Strength      0.01013432 
	Einstein A Coefficient   3.54600309e+07 
	Einstein B Coefficient   5.60453818e+18 
Doing transition

	Length-Gauge Rotational Strength for 2  B
	                              X    	       Y    	       Z
	<0|mu_e|n>              -0.15192758 	 -0.14719604 	  0.00000000
	<n|mu_m|0>              -0.36663204 	 -0.13685806 	  0.00000000
	<0|mu_m|n>*             -0.35828526 	 -0.13325274 	  0.00000000
	<n|mu_e|0>*             -0.15458930 	 -0.15339002 	  0.00000000

	Rotational Strength (au)                  0.07583660
	Rotational Strength (10^-40 esu^2 cm^2)  35.75267281

	Velocity-Gauge Rotational Strength for 2  B
	                              X    	       Y    	       Z
	<0|mu_e|n>              -0.12039903 	 -0.04647697 	  0.00000000
	<n|mu_m|0>              -0.36663204 	 -0.13685806 	  0.00000000
	<0|mu_m|n>*             -0.35828526 	 -0.13325274 	  0.00000000
	<n|mu_e|0>*             -0.12317046 	 -0.04847774 	  0.00000000

	Rotational Strength (au)                  0.15316995
	Rotational Strength (10^-40 esu^2 cm^2)  72.21098563
Doing transition
Doing transition

	                   Ground State -> Excited State Transitions

	                   Excitation Energy          OS       RS        RS     Einstein A
	State   (eV)    (cm^-1)    (nm)     (au)              (l,au)   (v,au)     (s^-1)
	 1  A   6.783   54711.7   182.8   0.249285   0.0000  -0.0017  -0.0209  9.422425E+03
	 2  A   9.145   73759.1   135.6   0.336071   0.0103   0.0413   0.0628  3.735047E+07
	 1  B   6.897   55627.9   179.8   0.253460   0.0024  -0.0058  -0.0286  4.888278E+06
	 2  B   8.980   72427.1   138.1   0.330002   0.0101   0.0758   0.1532  3.546003E+07

Doing transition

	*********************************************************************
	*********************************************************************
	************                                             ************
	************ Excited State-Excited State Transition Data ************
	************                                             ************
	*********************************************************************
	*********************************************************************


	*** Computing <1 A|X{pq}}|2 A> (LEFT) Transition Density ***

		*** LTD Setup complete.
		***...density has been built...
		***...density has been sorted...

	*** Computing <2 A|X{pq}}|1 A> (RIGHT) Transition Density ***

		*** RTD Setup complete.
		***...density has been built...
		***...density has been sorted...

	*** 1A -> 2A transition densities complete.

	Oscillator Strength for 1  A to 2  A
	                              X    	       Y    	       Z
	<0|mu_e|n>               0.00000000 	  0.00000000 	  0.02891191
	<n|mu_e|0>               0.00000000 	  0.00000000 	  0.02865102
	Dipole Strength          0.00082836 
	Oscillator Strength      0.00004793 
	Einstein A Coefficient   1.15980920e+04 
	Einstein B Coefficient   1.00783080e+17 

	Length-Gauge Rotational Strength for 1  A to 2  A Transition
	                              X    	       Y    	       Z
	<p|mu_e|q>               0.00000000 	  0.00000000 	  0.02891191
	<q|mu_m|p>               0.00000000 	  0.00000000 	 -0.01209332
	<p|mu_m|q>*              0.00000000 	  0.00000000 	 -0.01138697
	<q|mu_e|p>*              0.00000000 	  0.00000000 	  0.02865102

	Rotational Strength (au)                 -0.00033794
	Rotational Strength (10^-40 esu^2 cm^2)  -0.15932180

	Velocity-Gauge Rotational Strength for 1  A
	                              X    	       Y    	       Z
	<p|mu_e|q>               0.00000000 	  0.00000000 	  0.00756873
	<q|mu_m|p>               0.00000000 	  0.00000000 	 -0.01209332
	<p|mu_m|q>*              0.00000000 	  0.00000000 	 -0.01138697
	<q|mu_e|p>*              0.00000000 	  0.00000000 	  0.00600580

	Rotational Strength (au)                 -0.00092134
	Rotational Strength (10^-40 esu^2 cm^2)  -0.43435973

	*** Computing <1 A|X{pq}}|1 B> (LEFT) Transition Density ***

		*** LTD Setup complete.
		***...density has been built...
		***...density has been sorted...

	*** Computing <1 B|X{pq}}|1 A> (RIGHT) Transition Density ***

		*** RTD Setup complete.
		***...density has been built...
		***...density has been sorted...

	*** 1A -> 1B transition densities complete.

	Oscillator Strength for 1  A to 1  B
	                              X    	       Y    	       Z
	<0|mu_e|n>              -0.41794240 	  0.82952628 	  0.00000000
	<n|mu_e|0>              -0.42243291 	  0.84107572 	  0.00000000
	Dipole Strength          0.87424704 
	Oscillator Strength      0.00243311 
	Einstein A Coefficient   1.36241775e+03 
	Einstein B Coefficient   1.06366531e+20 

	Length-Gauge Rotational Strength for 1  A to 1  B Transition
	                              X    	       Y    	       Z
	<p|mu_e|q>              -0.41794240 	  0.82952628 	  0.00000000
	<q|mu_m|p>              -0.06012807 	 -0.03792748 	  0.00000000
	<p|mu_m|q>*             -0.06049596 	 -0.03759064 	  0.00000000
	<q|mu_e|p>*             -0.42243291 	  0.84107572 	  0.00000000

	Rotational Strength (au)                 -0.00619643
	Rotational Strength (10^-40 esu^2 cm^2)  -2.92126776

	Velocity-Gauge Rotational Strength for 1  A
	                              X    	       Y    	       Z
	<p|mu_e|q>              -0.01060144 	 -0.04430474 	  0.00000000
	<q|mu_m|p>              -0.06012807 	 -0.03792748 	  0.00000000
	<p|mu_m|q>*             -0.06049596 	 -0.03759064 	  0.00000000
	<q|mu_e|p>*             -0.01124558 	 -0.04351728 	  0.00000000

	Rotational Strength (au)                  0.55501404
	Rotational Strength (10^-40 esu^2 cm^2)  261.65778514

	*** Computing <1 B|X{pq}}|2 A> (LEFT) Transition Density ***

		*** LTD Setup complete.
		***...density has been built...
		***...density has been sorted...

	*** Computing <2 A|X{pq}}|1 B> (RIGHT) Transition Density ***

		*** RTD Setup complete.
		***...density has been built...
		***...density has been sorted...

	*** 1B -> 2A transition densities complete.

	Oscillator Strength for 1  B to 2  A
	                              X    	       Y    	       Z
	<0|mu_e|n>              -0.07809921 	  0.57035851 	  0.00000000
	<n|mu_e|0>              -0.08136070 	  0.57392609 	  0.00000000
	Dipole Strength          0.33369783 
	Oscillator Strength      0.01837817 
	Einstein A Coefficient   4.02989304e+06 
	Einstein B Coefficient   4.05998296e+19 

	Length-Gauge Rotational Strength for 1  B to 2  A Transition
	                              X    	       Y    	       Z
	<p|mu_e|q>              -0.07809921 	  0.57035851 	  0.00000000
	<q|mu_m|p>              -0.02628093 	  0.36530383 	  0.00000000
	<p|mu_m|q>*             -0.03292278 	  0.36649695 	  0.00000000
	<q|mu_e|p>*             -0.08136070 	  0.57392609 	  0.00000000

	Rotational Strength (au)                  0.21171372
	Rotational Strength (10^-40 esu^2 cm^2)  99.81106745

	Velocity-Gauge Rotational Strength for 1  B
	                              X    	       Y    	       Z
	<p|mu_e|q>              -0.01575043 	  0.05707094 	  0.00000000
	<q|mu_m|p>              -0.02628093 	  0.36530383 	  0.00000000
	<p|mu_m|q>*             -0.03292278 	  0.36649695 	  0.00000000
	<q|mu_e|p>*             -0.01881561 	  0.05385495 	  0.00000000

	Rotational Strength (au)                  0.25189797
	Rotational Strength (10^-40 esu^2 cm^2)  118.75566983

	*** Computing <1 A|X{pq}}|2 B> (LEFT) Transition Density ***

		*** LTD Setup complete.
		***...density has been built...
		***...density has been sorted...

	*** Computing <2 B|X{pq}}|1 A> (RIGHT) Transition Density ***

		*** RTD Setup complete.
		***...density has been built...
		***...density has been sorted...

	*** 1A -> 2B transition densities complete.

	Oscillator Strength for 1  A to 2  B
	                              X    	       Y    	       Z
	<0|mu_e|n>               0.30118907 	 -0.19608442 	  0.00000000
	<n|mu_e|0>               0.30196658 	 -0.20101180 	  0.00000000
	Dipole Strength          0.13036432 
	Oscillator Strength      0.00701510 
	Einstein A Coefficient   1.46850942e+06 
	Einstein B Coefficient   1.58609630e+19 

	Length-Gauge Rotational Strength for 1  A to 2  B Transition
	                              X    	       Y    	       Z
	<p|mu_e|q>               0.30118907 	 -0.19608442 	  0.00000000
	<q|mu_m|p>               0.00288867 	  0.34276532 	  0.00000000
	<p|mu_m|q>*              0.00255011 	  0.34434395 	  0.00000000
	<q|mu_e|p>*              0.30196658 	 -0.20101180 	  0.00000000

	Rotational Strength (au)                 -0.06739403
	Rotational Strength (10^-40 esu^2 cm^2)  -31.77247846

	Velocity-Gauge Rotational Strength for 1  A
	                              X    	       Y    	       Z
	<p|mu_e|q>               0.00222421 	 -0.01226942 	  0.00000000
	<q|mu_m|p>               0.00288867 	  0.34276532 	  0.00000000
	<p|mu_m|q>*              0.00255011 	  0.34434395 	  0.00000000
	<q|mu_e|p>*              0.00133679 	 -0.02764035 	  0.00000000

	Rotational Strength (au)                 -0.08494773
	Rotational Strength (10^-40 esu^2 cm^2)  -40.04805786

	*** Computing <2 B|X{pq}}|2 A> (LEFT) Transition Density ***

		*** LTD Setup complete.
		***...density has been built...
		***...density has been sorted...

	*** Computing <2 A|X{pq}}|2 B> (RIGHT) Transition Density ***

		*** RTD Setup complete.
		***...density has been built...
		***...density has been sorted...

	*** 2B -> 2A transition densities complete.

	Oscillator Strength for 2  B to 2  A
	                              X    	       Y    	       Z
	<0|mu_e|n>              -0.37889824 	  0.79523559 	  0.00000000
	<n|mu_e|0>              -0.38276990 	  0.80810758 	  0.00000000
	Dipole Strength          0.78766675 
	Oscillator Strength      0.00318683 
	Einstein A Coefficient   3.77124605e+03 
	Einstein B Coefficient   9.58326143e+19 

	Length-Gauge Rotational Strength for 2  B to 2  A Transition
	                              X    	       Y    	       Z
	<p|mu_e|q>              -0.37889824 	  0.79523559 	  0.00000000
	<q|mu_m|p>              -0.03642031 	 -0.02940742 	  0.00000000
	<p|mu_m|q>*             -0.03785298 	 -0.02952481 	  0.00000000
	<q|mu_e|p>*             -0.38276990 	  0.80810758 	  0.00000000

	Rotational Strength (au)                 -0.00947824
	Rotational Strength (10^-40 esu^2 cm^2)  -4.46845303

	Velocity-Gauge Rotational Strength for 2  B
	                              X    	       Y    	       Z
	<p|mu_e|q>              -0.00776061 	 -0.03525611 	  0.00000000
	<q|mu_m|p>              -0.03642031 	 -0.02940742 	  0.00000000
	<p|mu_m|q>*             -0.03785298 	 -0.02952481 	  0.00000000
	<q|mu_e|p>*             -0.00863196 	 -0.03123939 	  0.00000000

	Rotational Strength (au)                  0.21161425
	Rotational Strength (10^-40 esu^2 cm^2)  99.76416889

	*** Computing <1 B|X{pq}}|2 B> (LEFT) Transition Density ***

		*** LTD Setup complete.
		***...density has been built...
		***...density has been sorted...

	*** Computing <2 B|X{pq}}|1 B> (RIGHT) Transition Density ***

		*** RTD Setup complete.
		***...density has been built...
		***...density has been sorted...

	*** 1B -> 2B transition densities complete.

	Oscillator Strength for 1  B to 2  B
	                              X    	       Y    	       Z
	<0|mu_e|n>               0.00000000 	  0.00000000 	  0.32943856
	<n|mu_e|0>               0.00000000 	  0.00000000 	  0.32578797
	Dipole Strength          0.10732712 
	Oscillator Strength      0.00547673 
	Einstein A Coefficient   1.03095143e+06 
	Einstein B Coefficient   1.30581092e+19 

	Length-Gauge Rotational Strength for 1  B to 2  B Transition
	                              X    	       Y    	       Z
	<p|mu_e|q>               0.00000000 	  0.00000000 	  0.32943856
	<q|mu_m|p>               0.00000000 	  0.00000000 	  0.00913770
	<p|mu_m|q>*              0.00000000 	  0.00000000 	  0.00882127
	<q|mu_e|p>*              0.00000000 	  0.00000000 	  0.32578797

	Rotational Strength (au)                  0.00294209
	Rotational Strength (10^-40 esu^2 cm^2)   1.38702786

	Velocity-Gauge Rotational Strength for 1  B
	                              X    	       Y    	       Z
	<p|mu_e|q>               0.00000000 	  0.00000000 	  0.02330585
	<q|mu_m|p>               0.00000000 	  0.00000000 	  0.00913770
	<p|mu_m|q>*              0.00000000 	  0.00000000 	  0.00882127
	<q|mu_e|p>*              0.00000000 	  0.00000000 	  0.01828047

	Rotational Strength (au)                  0.00244451
	Rotational Strength (10^-40 esu^2 cm^2)   1.15245053

	                   Ground State -> Excited State Transitions

	                   Excitation Energy          OS       RS        RS     Einstein A
	State   (eV)    (cm^-1)    (nm)     (au)              (l,au)   (v,au)     (s^-1)
	 1  A   6.783   54711.7   182.8   0.249285   0.0000  -0.0017  -0.0209  9.422425E+03
	 2  A   9.145   73759.1   135.6   0.336071   0.0103   0.0413   0.0628  3.735047E+07
	 1  B   6.897   55627.9   179.8   0.253460   0.0024  -0.0058  -0.0286  4.888278E+06
	 2  B   8.980   72427.1   138.1   0.330002   0.0101   0.0758   0.1532  3.546003E+07


	                   Excited State -> Excited State Transitions

	                        Excitation Energy          OS       RS        RS     Einstein A
	Transition   (eV)    (cm^-1)    (nm)     (au)              (l,au)   (v,au)     (s^-1)
	  1A->2A   2.362   19047.3   525.0   0.086786   0.0000  -0.0003  -0.0009  1.159809E+04
	  1A->1B   0.114     916.2 10914.3   0.004175   0.0024  -0.0062   0.5550  1.362418E+03
	  1B->2A   2.248   18131.1   551.5   0.082611   0.0184   0.2117   0.2519  4.029893E+06
	  1A->2B   2.196   17715.4   564.5   0.080717   0.0070  -0.0674  -0.0849  1.468509E+06
	  2B->2A   0.165    1332.0  7507.7   0.006069   0.0032  -0.0095   0.2116  3.771246E+03
	  1B->2B   2.083   16799.1   595.3   0.076543   0.0055   0.0029   0.0024  1.030951E+06

I am here

*** tstop() called on ds1.sherrill.chemistry.gatech.edu at Mon Apr  4 10:21:29 2016
Module time:
	user time   =       0.21 seconds =       0.00 minutes
	system time =       0.14 seconds =       0.00 minutes
	total time  =          0 seconds =       0.00 minutes
Total time:
	user time   =       0.89 seconds =       0.01 minutes
	system time =       0.77 seconds =       0.01 minutes
	total time  =          1 seconds =       0.02 minutes

*** PSI4 exiting successfully. Buy a developer a beer!
