
    -----------------------------------------------------------------------
          Psi4: An Open-Source Ab Initio Electronic Structure Package
                               Psi4 1.1rc3.dev5 

                         Git: Rev {master} 3fbd859 


    R. M. Parrish, L. A. Burns, D. G. A. Smith, A. C. Simmonett,
    A. E. DePrince III, E. G. Hohenstein, U. Bozkaya, A. Yu. Sokolov,
    R. Di Remigio, R. M. Richard, J. F. Gonthier, A. M. James,
    H. R. McAlexander, A. Kumar, M. Saitow, X. Wang, B. P. Pritchard,
    P. Verma, H. F. Schaefer III, K. Patkowski, R. A. King, E. F. Valeev,
    F. A. Evangelista, J. M. Turney, T. D. Crawford, and C. D. Sherrill,
    J. Chem. Theory Comput. in press (2017).
    (doi: 10.1021/acs.jctc.7b00174)

    -----------------------------------------------------------------------


    Psi4 started on: Monday, 15 May 2017 03:45PM

    Process ID:  22664
    PSIDATADIR: /home/psilocaluser/gits/hrw-direct/objdir4/stage/usr/local/psi4/share/psi4
    Memory:     500.0 MiB
    Threads:    1
    
  ==> Input File <==

--------------------------------------------------------------------------
#! ADC/6-31G** on H2O

molecule h2o {
    O
    H 1 0.9584
    H 1 0.9584 2 104.45
    symmetry c1
}

set {
    reference rhf
    basis 6-31G**
    guess core
    roots_per_irrep [20]
}

ref_energy = -76.22243196371332 
adc_energy = energy('adc')
compare_values(ref_energy, adc_energy, 7, "ADC GS energy")                            #TEST
--------------------------------------------------------------------------

*** tstart() called on psinet
*** at Mon May 15 15:45:18 2017

   => Loading Basis Set <=

    Name: 6-31G**
    Role: ORBITAL
    Keyword: BASIS
    atoms 1   entry O          line   140 file /home/psilocaluser/gits/hrw-direct/objdir4/stage/usr/local/psi4/share/psi4/basis/6-31gss.gbs 
    atoms 2-3 entry H          line    35 file /home/psilocaluser/gits/hrw-direct/objdir4/stage/usr/local/psi4/share/psi4/basis/6-31gss.gbs 

    There are an even number of electrons - assuming singlet.
    Specify the multiplicity in the molecule input block.


         ---------------------------------------------------------
                                   SCF
            by Justin Turney, Rob Parrish, and Andy Simmonett
                              RHF Reference
                        1 Threads,    500 MiB Core
         ---------------------------------------------------------

  ==> Geometry <==

    Molecular point group: c1
    Full point group: C2v

    Geometry (in Angstrom), charge = 0, multiplicity = 1:

       Center              X                  Y                   Z               Mass       
    ------------   -----------------  -----------------  -----------------  -----------------
           O          0.000000000000     0.000000000000    -0.065702943130    15.994914619560
           H          0.000000000000    -0.757540797781     0.521376693459     1.007825032070
           H          0.000000000000     0.757540797781     0.521376693459     1.007825032070

  Running in c1 symmetry.

  Rotational constants: A =     27.32327  B =     14.57368  C =      9.50429 [cm^-1]
  Rotational constants: A = 819131.12641  B = 436908.00850  C = 284931.36813 [MHz]
  Nuclear repulsion =    9.183617125465769

  Charge       = 0
  Multiplicity = 1
  Electrons    = 10
  Nalpha       = 5
  Nbeta        = 5

  ==> Algorithm <==

  SCF Algorithm Type is PK.
  DIIS enabled.
  MOM disabled.
  Fractional occupation disabled.
  Guess Type is CORE.
  Energy threshold   = 1.00e-08
  Density threshold  = 1.00e-08
  Integral threshold = 0.00e+00

  ==> Primary Basis <==

  Basis Set: 6-31G**
    Blend: 6-31G**
    Number of shells: 12
    Number of basis function: 25
    Number of Cartesian functions: 25
    Spherical Harmonics?: false
    Max angular momentum: 2

  ==> Pre-Iterations <==

   -------------------------------------------------------
    Irrep   Nso     Nmo     Nalpha   Nbeta   Ndocc  Nsocc
   -------------------------------------------------------
     A         25      25       0       0       0       0
   -------------------------------------------------------
    Total      25      25       5       5       5       0
   -------------------------------------------------------

  ==> Integral Setup <==

  Using in-core PK algorithm.
   Calculation information:
      Number of atoms:                   3
      Number of AO shells:              12
      Number of primitives:             25
      Number of atomic orbitals:        25
      Number of basis functions:        25

      Integral cutoff                 1.00e-12
      Number of threads:                 1

  Performing in-core PK
  Using 105950 doubles for integral storage.
  We computed 3081 shell quartets total.
  Whereas there are 3081 unique shell quartets.
  ==> DiskJK: Disk-Based J/K Matrices <==

    J tasked:                  Yes
    K tasked:                  Yes
    wK tasked:                  No
    Memory (MB):               375
    Schwarz Cutoff:          1E-12

    OpenMP threads:              1
  Minimum eigenvalue in the overlap matrix is 2.1934318930E-02.
  Using Symmetric Orthogonalization.

  SCF Guess: Core (One-Electron) Hamiltonian.

  ==> Iterations <==

                        Total Energy        Delta E     RMS |[F,P]|

   @RHF iter   1:   -68.27243626141227   -6.82724e+01   1.49712e-01 
   @RHF iter   2:   -71.41576885494619   -3.14333e+00   9.93578e-02 DIIS
   @RHF iter   3:   -75.76865004896749   -4.35288e+00   3.34042e-02 DIIS
   @RHF iter   4:   -76.00595967834244   -2.37310e-01   7.83760e-03 DIIS
   @RHF iter   5:   -76.02268765734426   -1.67280e-02   1.13787e-03 DIIS
   @RHF iter   6:   -76.02305124496492   -3.63588e-04   2.84715e-04 DIIS
   @RHF iter   7:   -76.02308663946775   -3.53945e-05   4.62899e-05 DIIS
   @RHF iter   8:   -76.02308766411116   -1.02464e-06   1.01076e-05 DIIS
   @RHF iter   9:   -76.02308772406661   -5.99555e-08   1.86365e-06 DIIS
   @RHF iter  10:   -76.02308772552240   -1.45579e-09   9.95142e-08 DIIS
   @RHF iter  11:   -76.02308772552718   -4.77485e-12   2.41123e-08 DIIS
   @RHF iter  12:   -76.02308772552742   -2.41585e-13   3.25383e-09 DIIS

  ==> Post-Iterations <==

    Orbital Energies (a.u.)
    -----------------------

    Doubly Occupied:                                                      

       1A    -20.560861     2A     -1.339763     3A     -0.702687  
       4A     -0.568659     5A     -0.497092  

    Virtual:                                                              

       6A      0.211855     7A      0.304438     8A      1.003546  
       9A      1.085774    10A      1.132625    11A      1.168891  
      12A      1.294779    13A      1.414451    14A      1.803691  
      15A      1.817132    16A      1.925124    17A      2.569339  
      18A      2.575541    19A      2.805376    20A      2.978364  
      21A      2.989527    22A      3.375320    23A      3.707768  
      24A      3.925189    25A      4.107885  

    Final Occupation by Irrep:
              A 
    DOCC [     5 ]

  Energy converged.

  @RHF Final Energy:   -76.02308772552742

   => Energetics <=

    Nuclear Repulsion Energy =              9.1836171254657692
    One-Electron Energy =                -123.0752855885802433
    Two-Electron Energy =                  37.8685807375870525
    DFT Exchange-Correlation Energy =       0.0000000000000000
    Empirical Dispersion Energy =           0.0000000000000000
    PCM Polarization Energy =               0.0000000000000000
    EFP Energy =                            0.0000000000000000
    Total Energy =                        -76.0230877255274180



Properties will be evaluated at   0.000000,   0.000000,   0.000000 Bohr

Properties computed using the SCF density matrix

  Nuclear Dipole Moment: (a.u.)
     X:     0.0000      Y:     0.0000      Z:     0.9772

  Electronic Dipole Moment: (a.u.)
     X:     0.0000      Y:    -0.0000      Z:    -0.1170

  Dipole Moment: (a.u.)
     X:     0.0000      Y:    -0.0000      Z:     0.8603     Total:     0.8603

  Dipole Moment: (Debye)
     X:     0.0000      Y:    -0.0000      Z:     2.1866     Total:     2.1866


*** tstop() called on psinet at Mon May 15 15:45:18 2017
Module time:
	user time   =       0.15 seconds =       0.00 minutes
	system time =       0.01 seconds =       0.00 minutes
	total time  =          0 seconds =       0.00 minutes
Total time:
	user time   =       0.15 seconds =       0.00 minutes
	system time =       0.01 seconds =       0.00 minutes
	total time  =          0 seconds =       0.00 minutes
 MINTS: Wrapper to libmints.
   by Justin Turney

   Calculation information:
      Number of threads:                 1
      Number of atoms:                   3
      Number of AO shells:              12
      Number of SO shells:              12
      Number of primitives:             25
      Number of atomic orbitals:        25
      Number of basis functions:        25

      Number of irreps:                  1
      Integral cutoff                 0.00e+00
      Number of functions per irrep: [  25 ]

 OEINTS: Overlap, kinetic, potential, dipole, and quadrupole integrals
         stored in file 35.

      Computing two-electron integrals...done
      Computed 26109 non-zero two-electron integrals.
        Stored in file 33.


*** tstart() called on psinet
*** at Mon May 15 15:45:18 2017


	****************************************
	                 A D C                  
	 An Algebraic-Diagrammatic Construction 
	 based on direct-product decomposition  
	             Masaaki Saitow             
	****************************************



	Irrep  Core  Docc  Socc  aOcc  aVir  bOcc  bVir  FVir
	*****************************************************
	   A     0     5     0     5    20     5    20     0
	*****************************************************

	==> Input Parameters <==
	NEWTON_CONV = 1e-07, NORM_TOL = 1e-06
	POLE_MAX    =  20, SEM_MAX  =  30

	NXS           = 100
	NXS_PER_IRREP = [ 100 ]

	==> Transforming (OV|OV) Integrals <==
	Presorting SO-basis two-electron integrals.
	Sorting File: SO Ints (nn|nn) nbuckets = 1
	Transforming the one-electron integrals and constructing Fock matrices
	Starting first half-transformation.
	Sorting half-transformed integrals.
	First half integral transformation complete.
	Starting second half-transformation.
	Two-electron integral transformation complete.

	==> Transforming (OO|VV) Integrals <==
	Starting first half-transformation.
	Sorting half-transformed integrals.
	First half integral transformation complete.
	Starting second half-transformation.
	Two-electron integral transformation complete.

	==> Transforming (OV|OO) Integrals <==
	Starting first half-transformation.
	Sorting half-transformed integrals.
	First half integral transformation complete.
	Starting second half-transformation.
	Two-electron integral transformation complete.

	==> Transforming (OV|VV) Integrals <==
	Starting first half-transformation.
	Sorting half-transformed integrals.
	First half integral transformation complete.
	Starting second half-transformation.
	Two-electron integral transformation complete.

	==> Ground State <==
->	MP2 energy    =    -0.19934423878520
	[Squared-norm of MP1 wavefunction    =  1.0505589]
	PR-MP2 energy =    -0.19674689155888
	[Squared-norm of PR-MP1 wavefunction =  1.0492183]

	==> CIS/ADC(1) Level <==

	1  A state:  0.3529478 (a.u.),  9.6041976 (eV)
	---------------------------------------------
	          4   0         0.9908746042
	          4   3         0.1107035348
	          4   7        -0.0724929224
	          4   9        -0.0124461322
	          4  17         0.0120275744

	2  A state:  0.4215815 (a.u.), 11.4718150 (eV)
	---------------------------------------------
	          4   1         0.9831733660
	          4   6         0.1331340039
	          4   2         0.1235915047
	          4  13         0.0146268363
	          4  18         0.0100719554

	3  A state:  0.4538993 (a.u.), 12.3512277 (eV)
	---------------------------------------------
	          3   0         0.9844337566
	          2   1         0.1191138800
	          3   3         0.0744072344
	          4   5         0.0561179985
	          3   7        -0.0533816875

	4  A state:  0.5246003 (a.u.), 14.2750989 (eV)
	---------------------------------------------
	          3   1         0.9785767431
	          2   0         0.1348844071
	          3   6         0.1212916922
	          3   2         0.0715107059
	          2   3         0.0480799343

	5  A state:  0.5709848 (a.u.), 15.5372851 (eV)
	---------------------------------------------
	          2   0        -0.9839425321
	          3   1         0.1371612116
	          2   3        -0.0759085517
	          2   7         0.0611018359
	          1   1        -0.0466269940

	6  A state:  0.7050389 (a.u.), 19.1850819 (eV)
	---------------------------------------------
	          2   1        -0.9660824819
	          4   5         0.1737576292
	          3   0         0.1119238135
	          3   4        -0.0968263115
	          3   3        -0.0865931444

	7  A state:  1.0543763 (a.u.), 28.6910331 (eV)
	---------------------------------------------
	          4   2         0.9904585367
	          4   1        -0.1271901895
	          4  13         0.0495535413
	          4   6         0.0132715955
	          2   5        -0.0089418166

	8  A state:  1.0720010 (a.u.), 29.1706277 (eV)
	---------------------------------------------
	          4   3         0.8177124428
	          4   4         0.5568922642
	          4   7        -0.0982224763
	          4   0        -0.0956751987
	          4  17         0.0246883747

	9  A state:  1.1388267 (a.u.), 30.9890469 (eV)
	---------------------------------------------
	          4   5        -0.7202269321
	          3   3        -0.5435335984
	          3   4        -0.3985872977
	          1   0         0.1179785512
	          3   0         0.0671383427

	10  A state:  1.1821020 (a.u.), 32.1666268 (eV)
	---------------------------------------------
	          3   2         0.9620599080
	          2   3         0.1935301599
	          1   1        -0.1151855261
	          3   1        -0.0804860734
	          4   8         0.0780130420

	11  A state:  1.1875445 (a.u.), 32.3147238 (eV)
	---------------------------------------------
	          4   4         0.6505582899
	          3   5         0.6080700125
	          4   3        -0.4430185341
	          4   7        -0.0565805725
	          4   0         0.0487465064

	12  A state:  1.1982557 (a.u.), 32.6061919 (eV)
	---------------------------------------------
	          3   5         0.7919838878
	          4   4        -0.5045201954
	          4   3         0.3328617102
	          4   0        -0.0462116246
	          4   9        -0.0417291585

	13  A state:  1.1992474 (a.u.), 32.6331760 (eV)
	---------------------------------------------
	          1   0         0.8838515215
	          3   3         0.4025022386
	          4   5        -0.1710254809
	          1   3         0.0993418299
	          2   1        -0.0734400128

	14  A state:  1.2585194 (a.u.), 34.2460495 (eV)
	---------------------------------------------
	          3   4         0.6982987116
	          3   3        -0.6261686797
	          1   0         0.2901449310
	          4   5         0.1312420318
	          3   7        -0.0788462003

	15  A state:  1.2767037 (a.u.), 34.7408707 (eV)
	---------------------------------------------
	          4   6        -0.9883439061
	          4   1         0.1308032905
	          2   5         0.0545929710
	          4  18        -0.0416408028
	          4   2         0.0315478890

	16  A state:  1.2815731 (a.u.), 34.8733731 (eV)
	---------------------------------------------
	          1   1        -0.9575914929
	          2   3        -0.2012219821
	          1   2        -0.1081096293
	          1   6        -0.1036825344
	          3   2        -0.0741175800

	17  A state:  1.3132971 (a.u.), 35.7366260 (eV)
	---------------------------------------------
	          2   2         0.9054311239
	          3   4         0.2218251955
	          4   5        -0.1810426206
	          2   6         0.1728815511
	          1   0        -0.1649021453

	18  A state:  1.3296420 (a.u.), 36.1813931 (eV)
	---------------------------------------------
	          2   3         0.7830830998
	          2   4         0.5517471001
	          1   1        -0.1799394647
	          3   2        -0.1398528444
	          2   7        -0.1333533658

	19  A state:  1.3540510 (a.u.), 36.8455966 (eV)
	---------------------------------------------
	          2   5         0.9982028088
	          4   6         0.0549097082
	          2  10         0.0179897763
	          1   8         0.0097791433
	          2  15         0.0081234040

	20  A state:  1.3585131 (a.u.), 36.9670164 (eV)
	---------------------------------------------
	          3   6         0.9807288324
	          3   1        -0.1205758298
	          2   4         0.1019386952
	          2   3        -0.0771810602
	          1   1        -0.0595850616

	==> ADC(2) Computation <==

->	1  A state   :  0.3149230 (a.u.),  8.5694897 (eV)
	Non-iterative:  0.3154040 (a.u.),  8.5825773 (eV)
	         Occ Vir        Coefficient
	---------------------------------------------
	          4   0        -0.9961661847
	          4   3        -0.0701300034
	          4   7         0.0468754746
	          4   4         0.0132860995
	          4   9         0.0105021636

	Converged in   3 iteration.
	Squared norm of the S component:  0.9553398
	The S vector is rotated up to  0.041 (deg.)

->	2  A state   :  0.3980537 (a.u.), 10.8315908 (eV)
	Non-iterative:  0.3970245 (a.u.), 10.8035838 (eV)
	         Occ Vir        Coefficient
	---------------------------------------------
	          4   1        -0.9923424521
	          4   2        -0.0906952635
	          4   6        -0.0832907699
	          2   5         0.0051515465
	          4  13        -0.0050885684

	Converged in   3 iteration.
	Squared norm of the S component:  0.9598953
	The S vector is rotated up to  0.059 (deg.)

->	3  A state   :  0.4136525 (a.u.), 11.2560565 (eV)
	Non-iterative:  0.4115910 (a.u.), 11.1999587 (eV)
	         Occ Vir        Coefficient
	---------------------------------------------
	          3   0        -0.9922506834
	          2   1        -0.0722488299
	          3   3        -0.0487433471
	          1   0        -0.0462791037
	          3   4         0.0426673666

	Converged in   3 iteration.
	Squared norm of the S component:  0.9542521
	The S vector is rotated up to  0.083 (deg.)

->	4  A state   :  0.5011960 (a.u.), 13.6382342 (eV)
	Non-iterative:  0.5001512 (a.u.), 13.6098050 (eV)
	         Occ Vir        Coefficient
	---------------------------------------------
	          3   1        -0.9892909735
	          2   0        -0.1014603995
	          3   6        -0.0773614603
	          3   2        -0.0502974532
	          2   3        -0.0371680615

	Converged in   4 iteration.
	Squared norm of the S component:  0.9610978
	The S vector is rotated up to  0.270 (deg.)

->	5  A state   :  0.5632587 (a.u.), 15.3270458 (eV)
	Non-iterative:  0.5629899 (a.u.), 15.3197334 (eV)
	         Occ Vir        Coefficient
	---------------------------------------------
	          2   0        -0.9915505890
	          3   1         0.1026905155
	          2   3        -0.0534265103
	          2   7         0.0438569384
	          1   1        -0.0246925132

	Converged in   3 iteration.
	Squared norm of the S component:  0.9693031
	The S vector is rotated up to  0.323 (deg.)

->	6  A state   :  0.6863816 (a.u.), 18.6773893 (eV)
	Non-iterative:  0.6856655 (a.u.), 18.6579033 (eV)
	         Occ Vir        Coefficient
	---------------------------------------------
	          2   1        -0.9845779452
	          4   5         0.1141219033
	          3   3        -0.0696580254
	          3   4        -0.0666959435
	          3   0         0.0645666693

	Converged in   3 iteration.
	Squared norm of the S component:  0.9644159
	The S vector is rotated up to  0.469 (deg.)

->	7  A state   :  1.0012357 (a.u.), 27.2450040 (eV)
	Non-iterative:  0.9983024 (a.u.), 27.1651857 (eV)
	         Occ Vir        Coefficient
	---------------------------------------------
	          4   2         0.9947129673
	          4   1        -0.0798067943
	          4   6         0.0549477713
	          4  13         0.0297424874
	          2   5        -0.0102794000

	Converged in   4 iteration.
	Squared norm of the S component:  0.9585538
	The S vector is rotated up to  1.302 (deg.)

->	8  A state   :  1.0683908 (a.u.), 29.0723869 (eV)
	Non-iterative:  1.0691474 (a.u.), 29.0929761 (eV)
	         Occ Vir        Coefficient
	---------------------------------------------
	          4   3         0.9798800905
	          4   4         0.1736450710
	          4   7        -0.0606248512
	          4   0        -0.0504498108
	          2   8         0.0300788490

	Converged in   4 iteration.
	Squared norm of the S component:  0.9721955
	The S vector is rotated up to  6.604 (deg.)

->	9  A state   :  1.1065589 (a.u.), 30.1109944 (eV)
	Non-iterative:  1.1040192 (a.u.), 30.0418866 (eV)
	         Occ Vir        Coefficient
	---------------------------------------------
	          1   0        -0.9622684880
	          4   5         0.2119193467
	          3   3        -0.1339454398
	          1   3        -0.0671486339
	          3   0         0.0572046225

	Converged in   3 iteration.
	Squared norm of the S component:  0.9249835
	The S vector is rotated up to  0.165 (deg.)

->	10  A state   :  1.1296934 (a.u.), 30.7405176 (eV)
	Non-iterative:  1.1268224 (a.u.), 30.6623926 (eV)
	         Occ Vir        Coefficient
	---------------------------------------------
	          3   2        -0.9565053200
	          1   1         0.2069878480
	          2   3        -0.1671607618
	          4   8        -0.0610993232
	          3   6        -0.0492194870

	Converged in   4 iteration.
	Squared norm of the S component:  0.9600245
	The S vector is rotated up to  0.075 (deg.)

->	11  A state   :  1.1549287 (a.u.), 31.4272037 (eV)
	Non-iterative:  1.1537669 (a.u.), 31.3955887 (eV)
	         Occ Vir        Coefficient
	---------------------------------------------
	          4   4         0.9818731913
	          4   3        -0.1537081295
	          3   5         0.0627775040
	          4   7        -0.0620001757
	          4   9         0.0366842929

	Converged in   4 iteration.
	Squared norm of the S component:  0.9697677
	The S vector is rotated up to  0.228 (deg.)

->	12  A state   :  1.1584773 (a.u.), 31.5237673 (eV)
	Non-iterative:  1.1568656 (a.u.), 31.4799108 (eV)
	         Occ Vir        Coefficient
	---------------------------------------------
	          3   3        -0.8600440595
	          4   5        -0.5016999924
	          3   4        -0.0467941814
	          2   2        -0.0438732145
	          3   0         0.0410109303

	Converged in   5 iteration.
	Squared norm of the S component:  0.9755189
	The S vector is rotated up to  0.409 (deg.)

->	13  A state   :  1.1914180 (a.u.), 32.4201280 (eV)
	Non-iterative:  1.1907861 (a.u.), 32.4029341 (eV)
	         Occ Vir        Coefficient
	---------------------------------------------
	          1   1         0.9668048235
	          3   2         0.2007069360
	          1   2         0.0903728499
	          2   3         0.0699619473
	          1   6         0.0572323827

	Converged in   3 iteration.
	Squared norm of the S component:  0.9277760
	The S vector is rotated up to  0.462 (deg.)

->	14  A state   :  1.2176390 (a.u.), 33.1336373 (eV)
	Non-iterative:  1.2159508 (a.u.), 33.0876979 (eV)
	         Occ Vir        Coefficient
	---------------------------------------------
	          3   4        -0.7507262466
	          4   5        -0.5324931643
	          3   3         0.3190233395
	          1   0        -0.1632909721
	          2   2         0.0921332054

	Converged in   4 iteration.
	Squared norm of the S component:  0.9705540
	The S vector is rotated up to  1.739 (deg.)

->	15  A state   :  1.2456152 (a.u.), 33.8949081 (eV)
	Non-iterative:  1.2452492 (a.u.), 33.8849487 (eV)
	         Occ Vir        Coefficient
	---------------------------------------------
	          3   5        -0.9964629491
	          4   4         0.0630808859
	          4   7         0.0370565461
	          1   5        -0.0335075191
	          4   9         0.0119365278

	Converged in   3 iteration.
	Squared norm of the S component:  0.9888179
	The S vector is rotated up to  0.115 (deg.)

->	16  A state   :  1.2618632 (a.u.), 34.3370394 (eV)
	Non-iterative:  1.2607247 (a.u.), 34.3060585 (eV)
	         Occ Vir        Coefficient
	---------------------------------------------
	          4   6        -0.9946093146
	          4   2         0.0727378259
	          4   1         0.0484878047
	          2   5         0.0386379160
	          4  18        -0.0363974069

	Converged in   5 iteration.
	Squared norm of the S component:  0.9755948
	The S vector is rotated up to  0.591 (deg.)

->	17  A state   :  1.2886374 (a.u.), 35.0656018 (eV)
	Non-iterative:  1.2875370 (a.u.), 35.0356585 (eV)
	         Occ Vir        Coefficient
	---------------------------------------------
	          2   2         0.9135549311
	          3   4         0.2894067582
	          4   5        -0.1769985191
	          2   6         0.1625318688
	          3   9         0.0737614799

	Converged in   4 iteration.
	Squared norm of the S component:  0.9721065
	The S vector is rotated up to  0.597 (deg.)

->	18  A state   :  1.3354908 (a.u.), 36.3405477 (eV)
	Non-iterative:  1.3357409 (a.u.), 36.3473543 (eV)
	         Occ Vir        Coefficient
	---------------------------------------------
	          2   3        -0.9352423214
	          2   4        -0.2831371612
	          3   2         0.1492926747
	          2   7         0.1028297175
	          4   8         0.0862063218

	Converged in   7 iteration.
	Squared norm of the S component:  0.9849634
	The S vector is rotated up to  0.264 (deg.)

->	19  A state   :  1.3485003 (a.u.), 36.6945528 (eV)
	Non-iterative:  1.3482610 (a.u.), 36.6880435 (eV)
	         Occ Vir        Coefficient
	---------------------------------------------
	          3   6        -0.9892668388
	          2   4        -0.0979404975
	          1   1        -0.0530720572
	          3   1         0.0494616620
	          3   2         0.0470303344

	Converged in   4 iteration.
	Squared norm of the S component:  0.9794956
	The S vector is rotated up to  0.073 (deg.)

->	20  A state   :  1.3714929 (a.u.), 37.3202151 (eV)
	Non-iterative:  1.3718758 (a.u.), 37.3306327 (eV)
	         Occ Vir        Coefficient
	---------------------------------------------
	          3   4         0.5042734715
	          2   6         0.5015782452
	          4   5        -0.4765193407
	          2   2        -0.3608727951
	          3   3         0.2748505983

	Converged in   3 iteration.
	Squared norm of the S component:  0.9706999
	The S vector is rotated up to  0.122 (deg.)

->	Corresponding GS total energy (a.u.) =   -76.22243196431262

*** tstop() called on psinet at Mon May 15 15:45:34 2017
Module time:
	user time   =      10.91 seconds =       0.18 minutes
	system time =       5.11 seconds =       0.09 minutes
	total time  =         16 seconds =       0.27 minutes
Total time:
	user time   =      11.10 seconds =       0.18 minutes
	system time =       5.13 seconds =       0.09 minutes
	total time  =         16 seconds =       0.27 minutes

  ∩==
(: 3)))== kskkskkskksk         BOOOoooooOOOON!
  ∪==
	ADC GS energy.....................................................PASSED

*** Psi4 exiting successfully. Buy a developer a beer!
