    -----------------------------------------------------------------------
          PSI4: An Open-Source Ab Initio Electronic Structure Package
                              PSI 4.0.0-alpha Driver

    J. M. Turney, A. C. Simmonett, R. M. Parrish, E. G. Hohenstein,
    F. Evangelista, J. T. Fermann, B. J. Mintz, L. A. Burns, J. J. Wilke,
    M. L. Abrams, N. J. Russ, M. L. Leininger, C. L. Janssen, E. T. Seidl,
    W. D. Allen, H. F. Schaefer, R. A. King, E. F. Valeev, C. D. Sherrill,
    and T. D. Crawford, WIREs Comput. Mol. Sci., (2011)
                         Additional Contributions by
    -----------------------------------------------------------------------


    Using LocalCommunicator (Number of processes = 1)

    Memory level set to 256.000 MB

  ==> Input File <==

--------------------------------------------------------------------------

molecule h2o {
    O
    H 1 0.9584
    H 1 0.9584 2 104.45
}

set {
    reference rhf
    basis aug-cc-pvdz
    guess core
    states_per_irrep [1,1,2,1]
}

run_adc(h2o)

clean()
--------------------------------------------------------------------------

*** tstart() called on Osiris2.local
*** at Thu Jan  5 23:31:43 2012

update_geometry() is called.
Geometry bf reorientation.
  Irrep: 1 Size: 3 x 3

                 1            2            3

    1    0.0000000    0.0000000    0.0000000
    2    0.0000000    0.0000000    1.8111134
    3    0.0000000    1.7538202   -0.4519363



	There are an even number of electrons - assuming singlet.
	Specify the multiplicity with the MULTP option in the
	input if this is incorrect


         ---------------------------------------------------------
                                   SCF
            by Justin Turney, Rob Parrish, and Andy Simmonett
                              RHF Reference
                        4 Threads,    256 MiB Core
         ---------------------------------------------------------

  ==> Geometry <==

    Molecular point group: c2v

    Geometry (in Angstrom), charge = 0, multiplicity = 1:

       Center              X                  Y                   Z       
    ------------   -----------------  -----------------  -----------------
           O          0.000000000000     0.000000000000    -0.065702943130
           H          0.000000000000    -0.757540797781     0.521376693459
           H         -0.000000000000     0.757540797781     0.521376693459

    Number of unique atoms: 2

    Atoms equivalency:
       unique atom 0: 0 
       unique atom 1: 1 2 

  Running in c2v symmetry.

  Nuclear repulsion =    9.183617826761973

  Charge       = 0
  Multiplicity = 1
  Electrons    = 10
  Nalpha       = 5
  Nbeta        = 5

  ==> Algorithm <==

  SCF Algorithm Type is PK.
  DIIS enabled.
  MOM disabled.
  Guess Type is CORE.
  Energy threshold   = 1.00e-08
  Density threshold  = 1.00e-08
  Integral threshold = 0.00e+00

  ==> Primary Basis: AUG-CC-PVDZ <==

  Basis Set
    Number of shells: 19
    Number of basis function: 41
    Number of Cartesian functions: 43
    Spherical Harmonics?: true
    Max angular momentum: 2

  ==> Pre-Iterations <==

  Minimum eigenvalue in the overlap matrix is 2.6719107770E-03.
  Using Symmetric Orthogonalization.
  SCF Guess: Core (One-Electron) Hamiltonian.

  Initial RHF energy:   -58.62820470153757

   -------------------------------------------------------
    Irrep   Nso     Nmo     Nalpha   Nbeta   Ndocc  Nsocc
   -------------------------------------------------------
     A1        18      18       3       3       3       0
     A2         4       4       0       0       0       0
     B1         7       7       1       1       1       0
     B2        12      12       1       1       1       0
   -------------------------------------------------------
    Total      41      41       5       5       5       0
   -------------------------------------------------------

  ==> Integral Setup <==

update_geometry() is called.
Geometry bf reorientation.
  Irrep: 1 Size: 3 x 3

                 1            2            3

    1    0.0000000    0.0000000    0.0000000
    2    0.0000000    0.0000000    1.8111134
    3    0.0000000    1.7538202   -0.4519363



update_geometry() is called.
Geometry bf reorientation.
  Irrep: 1 Size: 3 x 3

                 1            2            3

    1    0.0000000    0.0000000    0.0000000
    2    0.0000000    0.0000000    1.8111134
    3    0.0000000    1.7538202   -0.4519363



 MINTS: Wrapper to libmints.
   by Justin Turney

   Calculation information:
      Number of atoms:                   3
      Number of AO shells:              19
      Number of SO shells:              14
      Number of primitives:             39
      Number of atomic orbitals:        43
      Number of basis functions:        41

      Number of irreps:                  4
      Number of functions per irrep: [  18    4    7   12 ]

      Overlap, kinetic, potential, dipole, and quadrupole integrals
        stored in file 35.

      Computing two-electron integrals...done
      Computed 91307 non-zero two-electron integrals.
        Stored in file 33.

  ==> Iterations <==

                        Total Energy        Delta E     Density RMS

   @RHF iter   1:   -68.57266126637799   -9.94446e+00   0.00000e+00 
	Occupation by irrep:
	         A1    A2    B1    B2 
	DOCC [     3,    0,    0,    2 ]
   @RHF iter   2:   -66.59754631823655    1.97511e+00   1.16599e+00 DIIS
	Occupation by irrep:
	         A1    A2    B1    B2 
	DOCC [     3,    0,    1,    1 ]
   @RHF iter   3:   -75.29777758532491   -8.70023e+00   1.16243e+00 DIIS
   @RHF iter   4:   -75.89835680547471   -6.00579e-01   1.43366e-02 DIIS
   @RHF iter   5:   -76.04033128840953   -1.41974e-01   1.27400e-02 DIIS
   @RHF iter   6:   -76.04105784081453   -7.26552e-04   2.05943e-03 DIIS
   @RHF iter   7:   -76.04134260813694   -2.84767e-04   4.63740e-04 DIIS
   @RHF iter   8:   -76.04135502153161   -1.24134e-05   1.40944e-04 DIIS
   @RHF iter   9:   -76.04135534611262   -3.24581e-07   3.28238e-05 DIIS
   @RHF iter  10:   -76.04135535504133   -8.92871e-09   4.02492e-06 DIIS
   @RHF iter  11:   -76.04135535530891   -2.67576e-10   5.79134e-07 DIIS
   @RHF iter  12:   -76.04135535531411   -5.20117e-12   9.10596e-08 DIIS
   @RHF iter  13:   -76.04135535531428   -1.70530e-13   2.38680e-08 DIIS

  ==> Post-Iterations <==

	Orbital Energies (a.u.)
	-----------------------

	Doubly Occupied:                                                      

	   1A1   -20.577485     2A1    -1.356081     1B2    -0.718533  
	   3A1    -0.585543     1B1    -0.509363  

	Virtual:                                                              

	   4A1     0.035413     2B2     0.057927     5A1     0.173994  
	   2B1     0.196739     6A1     0.222578     3B2     0.231489  
	   4B2     0.290443     7A1     0.331399     1A2     0.385753  
	   8A1     0.403815     3B1     0.433560     5B2     0.539102  
	   9A1     0.648352     6B2     0.658189     7B2     0.811202  
	  10A1     0.929653     4B1     1.101120    11A1     1.115389  
	   2A2     1.148792    12A1     1.307223     8B2     1.466661  
	   5B1     1.482782    13A1     1.583505     9B2     2.002954  
	   3A2     2.010790     6B1     2.108555    14A1     2.367251  
	  10B2     2.480502    15A1     2.625968    11B2     2.714796  
	  16A1     2.966752     7B1     3.672992    17A1     3.690226  
	   4A2     3.702799    18A1     4.025504    12B2     4.306900  

	Final Occupation by Irrep:
	         A1    A2    B1    B2 
	DOCC [     3,    0,    1,    1 ]

  Energy converged.

  @RHF Final Energy:   -76.04135535531428

  ==> Properties <==
  Nuclear Dipole Moment: (a.u.)
     X:    -0.0000      Y:     0.0000      Z:     0.9772

  Electronic Dipole Moment: (a.u.)
     X:     0.0000      Y:     0.0000      Z:    -0.1901

  Dipole Moment: (a.u.)
     X:    -0.0000      Y:     0.0000      Z:     0.7871     Total:     0.7871

  Dipole Moment: (Debye)
     X:    -0.0000      Y:     0.0000      Z:     2.0006     Total:     2.0006


  Saving occupied orbitals to File 180.

*** tstop() called on Osiris2.local at Thu Jan  5 23:31:44 2012
Module time:
	user time   =       0.25 seconds =       0.00 minutes
	system time =       0.09 seconds =       0.00 minutes
	total time  =          1 seconds =       0.02 minutes
Total time:
	user time   =       0.25 seconds =       0.00 minutes
	system time =       0.09 seconds =       0.00 minutes
	total time  =          1 seconds =       0.02 minutes

*** tstart() called on Osiris2.local
*** at Thu Jan  5 23:31:44 2012


	****************************************
	                 A D C                  
	 An Algebraic-Diagrammatic Construction 
	 based on direct-product decomposition  
	             Masaaki Saitow             
	****************************************
update_geometry() is called.
Geometry bf reorientation.
  Irrep: 1 Size: 3 x 3

                 1            2            3

    1    0.0000000    0.0000000    0.0000000
    2    0.0000000    0.0000000    1.8111134
    3    0.0000000    1.7538202   -0.4519363





	Irrep  Core  Docc  Socc  aOcc  aVir  bOcc  bVir  FVir
	*****************************************************
	  A1     0     3     0     3    15     3    15     0
	  A2     0     0     0     0     4     0     4     0
	  B1     0     1     0     1     6     1     6     0
	  B2     0     1     0     1    11     1    11     0
	*****************************************************

	==> Input Parameters <==
	NEWTON_CONV =   7, NORM_TOL =   6
	POLE_MAX    =  20, SEM_MAX  =  30

	NXS           = 180
	NXS_PER_IRREP = [ 62  29  37  52 ]

	==> Transforming (OV|OV) Integrals <==
	Presorting SO-basis two-electron integrals.
	Sorting File: SO Ints (nn|nn) nbuckets = 1
	Transforming the one-electron integrals and constructing Fock matrices
	Starting first half-transformation.
	Sorting half-transformed integrals.
	First half integral transformation complete.
	Starting second half-transformation.
	Two-electron integral transformation complete.

	==> Transforming (OO|VV) Integrals <==
	Starting first half-transformation.
	Sorting half-transformed integrals.
	First half integral transformation complete.
	Starting second half-transformation.
	Two-electron integral transformation complete.

	==> Transforming (OV|OO) Integrals <==
	Starting first half-transformation.
	Sorting half-transformed integrals.
	First half integral transformation complete.
	Starting second half-transformation.
	Two-electron integral transformation complete.

	==> Transforming (OV|VV) Integrals <==
	Starting first half-transformation.
	Sorting half-transformed integrals.
	First half integral transformation complete.
	Starting second half-transformation.
	Two-electron integral transformation complete.

	==> Ground State <==
->	MP2 energy    =    -0.22193528558502
	[Squared-norm of MP1 wavefunction    =  1.0592125]
	PR-MP2 energy =    -0.21853695505356
	[Squared-norm of PR-MP1 wavefunction =  1.0573687]

	==> CIS/ADC(1) Level <==

	1 A1 state:  0.4042260 (a.u.), 10.9995532 (eV)
	---------------------------------------------
	          2   0        -0.8492416775
	          2   2         0.3753629487
	          2   1         0.2677190068
	          3  19         0.2021777404
	          2   5        -0.1176679993
	          3  20         0.0711080309
	          2   3        -0.0487982313
	          2   4        -0.0277182633
	          3  22         0.0260796572
	          2   6         0.0223015291

	1 A2 state:  0.3806017 (a.u.), 10.3567029 (eV)
	---------------------------------------------
	          3  25         0.8150670293
	          3  27         0.3928448411
	          3  26         0.3836892422
	          3  29         0.1398998227
	          3  30         0.1005638969
	          3  28         0.0427915811
	          3  31         0.0427476982
	          3  33         0.0218672359
	          1  15         0.0118324222
	          3  32         0.0087206743

	1 B1 state:  0.3187387 (a.u.),  8.6733239 (eV)
	---------------------------------------------
	          3   0         0.8386136451
	          3   2        -0.3680594552
	          3   1        -0.3555643906
	          3   5         0.1403631513
	          3   4         0.0844738704
	          3   3         0.0675778305
	          3   8        -0.0393853293
	          3   6        -0.0269831005
	          3  11        -0.0181146289
	          2  19        -0.0152368075

	2 B1 state:  0.4460873 (a.u.), 12.1386572 (eV)
	---------------------------------------------
	          3   1        -0.8672376621
	          3   0        -0.3471129498
	          3   4         0.2582426201
	          3   2         0.1730853022
	          3   3         0.1263357431
	          3   5         0.0914492233
	          3   8        -0.0569220110
	          3   9         0.0432139683
	          3   7        -0.0245346157
	          2  19         0.0149371851

	1 B2 state:  0.4650750 (a.u.), 12.6553402 (eV)
	---------------------------------------------
	          2  25         0.8610827406
	          2  26         0.3847838181
	          2  27         0.2923333051
	          2  29         0.1166128529
	          2  30         0.0541124344
	          3  15        -0.0495012665
	          2  28         0.0438629847
	          2  31         0.0391386620
	          4   0         0.0286633088
	          3  16         0.0177759350

	==> ADC(2) Computation <==

->	1 A1 state   :  0.3441935 (a.u.),  9.3659845 (eV)
	Non-iterative:  0.3446909 (a.u.),  9.3795213 (eV)
	---------------------------------------------
	          2   0        -0.9061092381
	          2   2         0.3168207258
	          2   1         0.2396343296
	          3  19         0.1058280176
	          2   5        -0.0704070546
	          1   0         0.0379378440
	          3  20         0.0314764474
	          2   3        -0.0281309949
	          1   2        -0.0202992939
	          2   4        -0.0175209408

	Converged in   7 iteration.
	Squared norm of the S component:  1.0000000
	The S vector is rotated up to  0.341 (deg.)

->	1 A2 state   :  0.3175771 (a.u.),  8.6417164 (eV)
	Non-iterative:  0.3217443 (a.u.),  8.7551111 (eV)
	---------------------------------------------
	          3  25         0.9223366221
	          3  26         0.2917287169
	          3  27         0.2407608807
	          3  29         0.0651692578
	          3  30         0.0310194455
	          3  28         0.0237449531
	          3  31         0.0173941245
	          1  15         0.0080001666
	          3  33         0.0073976667
	          3  32         0.0035145553

	Converged in   7 iteration.
	Squared norm of the S component:  1.0000000
	The S vector is rotated up to 13.445 (deg.)

->	1 B1 state   :  0.2565095 (a.u.),  6.9799824 (eV)
	Non-iterative:  0.2565636 (a.u.),  6.9814533 (eV)
	---------------------------------------------
	          3   0         0.9017047128
	          3   2        -0.3038334827
	          3   1        -0.2907565664
	          3   5         0.0790166170
	          3   4         0.0425830305
	          3   3         0.0355619878
	          3   8        -0.0172992537
	          2  19        -0.0097089831
	          3   6        -0.0091085204
	          1  19         0.0075819409

	Converged in   7 iteration.
	Squared norm of the S component:  1.0000000
	The S vector is rotated up to  8.102 (deg.)

->	2 B1 state   :  0.3900588 (a.u.), 10.6140433 (eV)
	Non-iterative:  0.3886524 (a.u.), 10.5757731 (eV)
	---------------------------------------------
	          3   1         0.9272074102
	          3   0         0.3015759531
	          3   4        -0.1890017756
	          3   5        -0.0830025343
	          3   3        -0.0638785516
	          3   8         0.0315810480
	          3   2        -0.0257554620
	          3   9        -0.0195185332
	          3   7         0.0170248524
	          2  19        -0.0126374938

	Converged in   7 iteration.
	Squared norm of the S component:  1.0000000
	The S vector is rotated up to 11.127 (deg.)

->	1 B2 state   :  0.4041227 (a.u.), 10.9967429 (eV)
	Non-iterative:  0.4061515 (a.u.), 11.0519483 (eV)
	---------------------------------------------
	          2  25         0.9312933120
	          2  26         0.2943085379
	          2  27         0.1981773411
	          2  29         0.0572272262
	          1  25        -0.0353629531
	          2  28         0.0251194411
	          3  15        -0.0250083236
	          2  31         0.0180793059
	          2  30         0.0131108680
	          1  26        -0.0100843330

	Converged in   7 iteration.
	Squared norm of the S component:  1.0000000
	The S vector is rotated up to 10.215 (deg.)

->	Correponsing GS total energy (a.u.) =   -76.26329064089930

*** tstop() called on Osiris2.local at Thu Jan  5 23:31:49 2012
Module time:
	user time   =       7.00 seconds =       0.12 minutes
	system time =       3.87 seconds =       0.06 minutes
	total time  =          5 seconds =       0.08 minutes
Total time:
	user time   =       7.26 seconds =       0.12 minutes
	system time =       3.96 seconds =       0.07 minutes
	total time  =          6 seconds =       0.10 minutes

  ∩==
(: 3)))== kskkskkskksk         BOOOoooooOOOON!
  ∪==

*** PSI4 exiting successfully. Buy a developer a beer!
