
    -----------------------------------------------------------------------
          Psi4: An Open-Source Ab Initio Electronic Structure Package
                               Psi4 undefined 

                         Git: Rev {tddft_driver} d656e79 dirty


    R. M. Parrish, L. A. Burns, D. G. A. Smith, A. C. Simmonett,
    A. E. DePrince III, E. G. Hohenstein, U. Bozkaya, A. Yu. Sokolov,
    R. Di Remigio, R. M. Richard, J. F. Gonthier, A. M. James,
    H. R. McAlexander, A. Kumar, M. Saitow, X. Wang, B. P. Pritchard,
    P. Verma, H. F. Schaefer III, K. Patkowski, R. A. King, E. F. Valeev,
    F. A. Evangelista, J. M. Turney, T. D. Crawford, and C. D. Sherrill,
    J. Chem. Theory Comput. 13(7) pp 3185--3197 (2017).
    (doi: 10.1021/acs.jctc.7b00174)


                         Additional Contributions by
    P. Kraus, H. Kruse, M. H. Lechner, M. C. Schieber, R. A. Shaw,
    A. Alenaizan, R. Galvelis, Z. L. Glick, S. Lehtola, and J. P. Misiewicz

    -----------------------------------------------------------------------


    Psi4 started on: Wednesday, 13 May 2020 02:59PM

    Process ID: 47832
    Host:       jeffschriber.local
    PSIDATADIR: /Users/jeffschriber/src/psi4-debug-install/share/psi4
    Memory:     500.0 MiB
    Threads:    1
    
  ==> Input File <==

--------------------------------------------------------------------------
# Excitation energies

rhf_wB97X_RPA_cc_pvdz = [0.24721269233329,
                         0.31319977578113,
                         0.34444772468718,
                         0.41038703401580,
                         0.45278105243050,
                         0.56744628843739,
                         0.71909971752194,
                         0.75183601398849,
                         0.82952408171446,
                         0.84003438794418]




molecule water{
0 1

O           0.000000    0.000000    0.135446
H          -0.000000    0.866812   -0.541782
H          -0.000000   -0.866812   -0.541782
no_reorient
no_com
symmetry c1
}

set {
    reference rhf
    scf_type pk
    e_convergence 8
    d_convergence 8
    TDSCF_STATES_PER_IRREP [10]
}


e, wfn = energy('wb97x/cc-pvdz', return_wfn=True)

ex_ens = np.asarray(wfn.array_variable("TD-WB97X EXCITATION ENERGIES")).flatten()
ex_labels = np.asarray(wfn.array_variable("TD-WB97X SYMMETRY LABELS")).flatten()

for n, ref in enumerate(rhf_wB97X_RPA_cc_pvdz):
    compare_values(ref,ex_ens[n], 4, f"TD-wB97X/cc-pvdz (RPA) 0 A -> {n} A Excitation Energy")

--------------------------------------------------------------------------

Scratch directory: /tmp/

Scratch directory: /tmp/

*** tstart() called on jeffschriber.local
*** at Wed May 13 14:59:38 2020

   => Loading Basis Set <=

    Name: CC-PVDZ
    Role: ORBITAL
    Keyword: BASIS
    atoms 1   entry O          line   198 file /Users/jeffschriber/src/psi4-debug-install/share/psi4/basis/cc-pvdz.gbs 
    atoms 2-3 entry H          line    22 file /Users/jeffschriber/src/psi4-debug-install/share/psi4/basis/cc-pvdz.gbs 


         ---------------------------------------------------------
                                   SCF
               by Justin Turney, Rob Parrish, Andy Simmonett
                          and Daniel G. A. Smith
                              RKS Reference
                        1 Threads,    500 MiB Core
         ---------------------------------------------------------

  ==> Geometry <==

    Molecular point group: c1
    Full point group: C2v

    Geometry (in Angstrom), charge = 0, multiplicity = 1:

       Center              X                  Y                   Z               Mass       
    ------------   -----------------  -----------------  -----------------  -----------------
         O            0.000000000000     0.000000000000     0.135446000000    15.994914619570
         H            0.000000000000     0.866812000000    -0.541782000000     1.007825032230
         H            0.000000000000    -0.866812000000    -0.541782000000     1.007825032230

  Running in c1 symmetry.

  Rotational constants: A =     19.04632  B =     11.13093  C =      7.02527 [cm^-1]
  Rotational constants: A = 570994.36542  B = 333696.94645  C = 210612.25379 [MHz]
  Nuclear repulsion =    8.002363854135305

  Charge       = 0
  Multiplicity = 1
  Electrons    = 10
  Nalpha       = 5
  Nbeta        = 5

  ==> Algorithm <==

  SCF Algorithm Type is PK.
  DIIS enabled.
  MOM disabled.
  Fractional occupation disabled.
  Guess Type is SAD.
  Energy threshold   = 1.00e-08
  Density threshold  = 1.00e-08
  Integral threshold = 0.00e+00

  ==> Primary Basis <==

  Basis Set: CC-PVDZ
    Blend: CC-PVDZ
    Number of shells: 12
    Number of basis function: 24
    Number of Cartesian functions: 25
    Spherical Harmonics?: true
    Max angular momentum: 2

  ==> DFT Potential <==

   => Composite Functional: WB97X <= 

    wB97X Hyb-GGA Exchange-Correlation Functional

    J.-D. Chai and M. Head-Gordon, J. Chem. Phys. 128, 084106 (2008)

    Deriv               =              1
    GGA                 =           TRUE
    Meta                =          FALSE

    Exchange Hybrid     =           TRUE
    MP2 Hybrid          =          FALSE

   => Exchange-Correlation Functionals <=

    1.0000   wB97X range-separated functional

   => Exact (HF) Exchange <=

    0.8423            HF,LR [omega = 0.3000]
    0.1577               HF 

   => Molecular Quadrature <=

    Radial Scheme          =       TREUTLER
    Pruning Scheme         =           NONE
    Nuclear Scheme         =       TREUTLER

    BS radius alpha        =              1
    Pruning alpha          =              1
    Radial Points          =             75
    Spherical Points       =            302
    Total Points           =          66272
    Total Blocks           =            555
    Max Points             =            256
    Max Functions          =             24
    Weights Tolerance      =       1.00E-15

  ==> Integral Setup <==

  Using in-core PK algorithm.
   Calculation information:
      Number of atoms:                   3
      Number of AO shells:              12
      Number of primitives:             32
      Number of atomic orbitals:        25
      Number of basis functions:        24

      Integral cutoff                 1.00e-12
      Number of threads:                 1

  Performing in-core PK
  Using 135450 doubles for integral storage.
  We computed 3081 shell quartets total.
  Whereas there are 3081 unique shell quartets.

  Computing range-separated integrals for PK
  We computed 3081 wK shell quartets total.
  Whereas there are 3081 wK unique shell quartets.

  ==> DiskJK: Disk-Based J/K Matrices <==

    J tasked:                  Yes
    K tasked:                  Yes
    wK tasked:                 Yes
    Omega:               3.000E-01
    Memory [MiB]:              327
    Schwarz Cutoff:          1E-12

    OpenMP threads:              1

  Cached 100.0% of DFT collocation blocks in 0.046 [GiB].

  Minimum eigenvalue in the overlap matrix is 4.6103837018E-02.
  Reciprocal condition number of the overlap matrix is 1.3490661712E-02.
    Using symmetric orthogonalization.

  ==> Pre-Iterations <==

  SCF Guess: Superposition of Atomic Densities via on-the-fly atomic UHF (no occupation information).

   -------------------------
    Irrep   Nso     Nmo    
   -------------------------
     A         24      24 
   -------------------------
    Total      24      24
   -------------------------

  ==> Iterations <==

                        Total Energy        Delta E     RMS |[F,P]|

   @RKS iter SAD:   -75.82538727182809   -7.58254e+01   0.00000e+00 
   @RKS iter   1:   -76.24870831810131   -4.23321e-01   2.28250e-02 DIIS
   @RKS iter   2:   -76.24436550816509    4.34281e-03   2.48492e-02 DIIS
   @RKS iter   3:   -76.37349533694231   -1.29130e-01   7.85221e-04 DIIS
   @RKS iter   4:   -76.37369157088344   -1.96234e-04   2.76872e-04 DIIS
   @RKS iter   5:   -76.37371552281110   -2.39519e-05   3.94776e-05 DIIS
   @RKS iter   6:   -76.37371627474712   -7.51936e-07   6.41685e-06 DIIS
   @RKS iter   7:   -76.37371632339105   -4.86439e-08   1.44046e-06 DIIS
   @RKS iter   8:   -76.37371632570036   -2.30931e-09   1.37516e-07 DIIS
   @RKS iter   9:   -76.37371632571866   -1.83036e-11   1.77274e-08 DIIS
   @RKS iter  10:   -76.37371632571876   -9.94760e-14   1.26998e-09 DIIS
  Energy and wave function converged.


  ==> Post-Iterations <==

    Orbital Energies [Eh]
    ---------------------

    Doubly Occupied:                                                      

       1A    -19.211011     2A     -1.068660     3A     -0.573367  
       4A     -0.464838     5A     -0.389058  

    Virtual:                                                              

       6A      0.119648     7A      0.191875     8A      0.604504  
       9A      0.634094    10A      1.019930    11A      1.027031  
      12A      1.112876    13A      1.322665    14A      1.341873  
      15A      1.525241    16A      1.662860    17A      1.717248  
      18A      1.954630    19A      2.015019    20A      2.923054  
      21A      2.953865    22A      3.064951    23A      3.450264  
      24A      3.699420  

    Final Occupation by Irrep:
              A 
    DOCC [     5 ]

  @RKS Final Energy:   -76.37371632571876

   => Energetics <=

    Nuclear Repulsion Energy =              8.0023638541353055
    One-Electron Energy =                -121.0198712300129529
    Two-Electron Energy =                  43.1406036034157339
    DFT Exchange-Correlation Energy =      -6.4968125532568637
    Empirical Dispersion Energy =           0.0000000000000000
    VV10 Nonlocal Energy =                  0.0000000000000000
    Total Energy =                        -76.3737163257187603

Computation Completed


Properties will be evaluated at   0.000000,   0.000000,   0.000000 [a0]

Properties computed using the SCF density matrix

  Nuclear Dipole Moment: [e a0]
     X:     0.0000      Y:     0.0000      Z:     0.0000

  Electronic Dipole Moment: [e a0]
     X:     0.0000      Y:    -0.0000      Z:    -0.7951

  Dipole Moment: [e a0]
     X:     0.0000      Y:    -0.0000      Z:    -0.7951     Total:     0.7951

  Dipole Moment: [D]
     X:     0.0000      Y:    -0.0000      Z:    -2.0208     Total:     2.0208


*** tstop() called on jeffschriber.local at Wed May 13 14:59:41 2020
Module time:
	user time   =       2.41 seconds =       0.04 minutes
	system time =       0.14 seconds =       0.00 minutes
	total time  =          3 seconds =       0.05 minutes
Total time:
	user time   =       2.41 seconds =       0.04 minutes
	system time =       0.14 seconds =       0.00 minutes
	total time  =          3 seconds =       0.05 minutes


         ---------------------------------------------------------
                         TDSCF excitation energies                
                 by Andrew M. James and Daniel G. A. Smith        
         ---------------------------------------------------------
********************************************************************************
**********                          WARNING                           **********
**********      TDSCF is experimental results may be inaccurate       **********
********************************************************************************

  ==> Requested Excitations <==

      10 states with A symmetry

  ==> Options <==

     etol      :              1e-06
     rtol      :              0.0001
     guess_type:              DENOMINATORS
     restricted:              True
     triplet   :              0
     ptype     :              rpa



Final Energetic Summary:
                                    Excitation Energy         Total Energy  
     #   Sym: GS->ES (Trans)       [au]            [eV]            (au)      
    ---- -------------------- --------------- --------------- ---------------
     1         A->A (A)        0.24719         6.72642        -76.12652      
     2         A->A (A)        0.31320         8.52260        -76.06052      
     3         A->A (A)        0.34444         9.37279        -76.02927      
     4         A->A (A)        0.41036         11.16660       -75.96335      
     5         A->A (A)        0.45277         12.32056       -75.92094      
     6         A->A (A)        0.56744         15.44078       -75.80628      
     7         A->A (A)        0.71910         19.56767       -75.65462      
     8         A->A (A)        0.75183         20.45836       -75.62189      
     9         A->A (A)        0.82955         22.57317       -75.54417      
     10        A->A (A)        0.84004         22.85867       -75.53368      

    TD-wB97X/cc-pvdz (RPA) 0 A -> 0 A Excitation Energy...............PASSED
    TD-wB97X/cc-pvdz (RPA) 0 A -> 1 A Excitation Energy...............PASSED
    TD-wB97X/cc-pvdz (RPA) 0 A -> 2 A Excitation Energy...............PASSED
    TD-wB97X/cc-pvdz (RPA) 0 A -> 3 A Excitation Energy...............PASSED
    TD-wB97X/cc-pvdz (RPA) 0 A -> 4 A Excitation Energy...............PASSED
    TD-wB97X/cc-pvdz (RPA) 0 A -> 5 A Excitation Energy...............PASSED
    TD-wB97X/cc-pvdz (RPA) 0 A -> 6 A Excitation Energy...............PASSED
    TD-wB97X/cc-pvdz (RPA) 0 A -> 7 A Excitation Energy...............PASSED
    TD-wB97X/cc-pvdz (RPA) 0 A -> 8 A Excitation Energy...............PASSED
    TD-wB97X/cc-pvdz (RPA) 0 A -> 9 A Excitation Energy...............PASSED

    Psi4 stopped on: Wednesday, 13 May 2020 03:03PM
    Psi4 wall time for execution: 0:03:32.46

*** Psi4 exiting successfully. Buy a developer a beer!
