
    -----------------------------------------------------------------------
          Psi4: An Open-Source Ab Initio Electronic Structure Package
                               Psi4 1.1rc3.dev5 

                         Git: Rev {master} 3fbd859 


    R. M. Parrish, L. A. Burns, D. G. A. Smith, A. C. Simmonett,
    A. E. DePrince III, E. G. Hohenstein, U. Bozkaya, A. Yu. Sokolov,
    R. Di Remigio, R. M. Richard, J. F. Gonthier, A. M. James,
    H. R. McAlexander, A. Kumar, M. Saitow, X. Wang, B. P. Pritchard,
    P. Verma, H. F. Schaefer III, K. Patkowski, R. A. King, E. F. Valeev,
    F. A. Evangelista, J. M. Turney, T. D. Crawford, and C. D. Sherrill,
    J. Chem. Theory Comput. in press (2017).
    (doi: 10.1021/acs.jctc.7b00174)

    -----------------------------------------------------------------------


    Psi4 started on: Monday, 15 May 2017 03:36PM

    Process ID:  14162
    PSIDATADIR: /home/psilocaluser/gits/hrw-direct/objdir4/stage/usr/local/psi4/share/psi4
    Memory:     500.0 MiB
    Threads:    1
    
  ==> Input File <==

--------------------------------------------------------------------------
#! DFT Functional Test

E11 =  -75.3081 #TEST

molecule h2o {
0 1
O
H 1 1.0
H 1 1.0 2 104.5
}

set {
print 6
#debug 0
basis sto-3g
guess core
scf_type direct
dft_spherical_points 302
dft_radial_points 100
dft_block_max_points 400
dft_basis_tolerance 1.0E-10
reference rks
}

#set dft_functional b97
V11 = energy('b97-0')
compare_values(E11,V11, 3, "RKS  0 1   B97 Energy") #TEST

set dft_block_scheme octree
V11 = energy('b97-0')
compare_values(E11,V11, 3, "RKS  0 1   B97 Energy") #TEST
--------------------------------------------------------------------------

*** tstart() called on psinet
*** at Mon May 15 15:36:14 2017

   => Loading Basis Set <=

    Name: STO-3G
    Role: ORBITAL
    Keyword: BASIS
    atoms 1   entry O          line    80 file /home/psilocaluser/gits/hrw-direct/objdir4/stage/usr/local/psi4/share/psi4/basis/sto-3g.gbs 
    atoms 2-3 entry H          line    18 file /home/psilocaluser/gits/hrw-direct/objdir4/stage/usr/local/psi4/share/psi4/basis/sto-3g.gbs 


         ---------------------------------------------------------
                                   SCF
            by Justin Turney, Rob Parrish, and Andy Simmonett
                              RKS Reference
                        1 Threads,    500 MiB Core
         ---------------------------------------------------------

  ==> Geometry <==

    Molecular point group: c2v
    Full point group: C2v

    Geometry (in Angstrom), charge = 0, multiplicity = 1:

       Center              X                  Y                   Z               Mass       
    ------------   -----------------  -----------------  -----------------  -----------------
           O          0.000000000000     0.000000000000    -0.068516219310    15.994914619560
           H          0.000000000000    -0.790689573744     0.543701060724     1.007825032070
           H          0.000000000000     0.790689573744     0.543701060724     1.007825032070

           O
              BASIS           STO-3G               ce60a13c765f9614c99c0135c607c24ee59dcfa5
           H
              BASIS           STO-3G               64d65a452b6e49c523a36fca03822dbe2f9a1c8d
           H
              BASIS           STO-3G               64d65a452b6e49c523a36fca03822dbe2f9a1c8d

  Running in c2v symmetry.

  Rotational constants: A =     25.12555  B =     13.37733  C =      8.72955 [cm^-1]
  Rotational constants: A = 753245.06586  B = 401042.16407  C = 261705.25278 [MHz]
  Nuclear repulsion =    8.801465529972067

  Charge       = 0
  Multiplicity = 1
  Electrons    = 10
  Nalpha       = 5
  Nbeta        = 5

  ==> Algorithm <==

  SCF Algorithm Type is DIRECT.
  DIIS enabled.
  MOM disabled.
  Fractional occupation disabled.
  Guess Type is CORE.
  Energy threshold   = 1.00e-06
  Density threshold  = 1.00e-06
  Integral threshold = 0.00e+00

  ==> Primary Basis <==

  -AO BASIS SET INFORMATION:
    Name                   = STO-3G
    Blend                  = STO-3G
    Total number of shells = 5
    Number of primitives   = 15
    Number of AO           = 7
    Number of SO           = 7
    Maximum AM             = 1
    Spherical Harmonics    = TRUE

  -Contraction Scheme:
    Atom   Type   All Primitives // Shells:
   ------ ------ --------------------------
       1     O     6s 3p // 2s 1p 
       2     H     3s // 1s 
       3     H     3s // 1s 

  ==> AO Basis Functions <==

    [ STO-3G ]
    spherical
    ****
    O   1
    S   3 1.00
                       130.70932000           0.15432897
                        23.80886100           0.53532814
                         6.44360830           0.44463454
    S   3 1.00
                         5.03315130          -0.09996723
                         1.16959610           0.39951283
                         0.38038900           0.70011547
    P   3 1.00
                         5.03315130           0.15591627
                         1.16959610           0.60768372
                         0.38038900           0.39195739
    ****
    H   2
    S   3 1.00
                         3.42525091           0.15432897
                         0.62391373           0.53532814
                         0.16885540           0.44463454
    ****

  ==> DFT Potential <==

   => B97-0 Composite Functional <= 

    B97-0 Hybrid-GGA Exchange-Correlation Functional

    A.D. Becke, J. Chem. Phys., 107(20), 8554-8560, 1997

    Points   =            400
    Deriv    =              1
    GGA      =           TRUE
    Meta     =          FALSE

    X_LRC        =          FALSE
    X_Hybrid     =           TRUE
    X_Alpha      =   1.943000E-01
    X_Omega      =   0.000000E+00
    C_LRC        =          FALSE
    C_Hybrid     =          FALSE
    C_Alpha      =   0.000000E+00
    C_Omega      =   0.000000E+00

   => Exchange Functionals <=

    1.0000 B97-0_X
    0.1943      HF 

   => Correlation Functionals <=

    1.0000 B97-0_C

   => B97-0_X Functional <=

    B97 Parameterized GGA Exchange

    A.D. Becke, J. Chem. Phys., 107(20), 8554-8560, 1997

    GGA   =           TRUE
    Meta  =          FALSE
    LRC   =          FALSE
    Alpha =   1.241157E+00
    Omega =   0.000000E+00

    > Parameters <

         B97_a0 =   8.0940000000000001E-01
         B97_a1 =   5.0729999999999997E-01
         B97_a2 =   7.4809999999999999E-01
      B97_gamma =   4.0000000000000001E-03

   => B97-0_C Functional <=



    GGA   =           TRUE
    Meta  =          FALSE
    LRC   =          FALSE
    Alpha =   1.000000E+00
    Omega =   0.000000E+00

    > Parameters <

      B97_os_a0 =   9.4540000000000002E-01
      B97_os_a1 =   7.4709999999999999E-01
      B97_os_a2 =  -4.5960999999999999E+00
    B97_os_gamma =   6.0000000000000001E-03
      B97_ss_a0 =   1.7369999999999999E-01
      B97_ss_a1 =   2.3487000000000000E+00
      B97_ss_a2 =  -2.4868000000000001E+00
    B97_ss_gamma =   2.0000000000000001E-01

   => Molecular Quadrature <=

    Radial Scheme    =       TREUTLER
    Pruning Scheme   =           FLAT
    Nuclear Scheme   =       TREUTLER

    BS radius alpha  =              1
    Pruning alpha    =              1
    Radial Points    =            100
    Spherical Points =            302
    Total Points     =          85713
    Total Blocks     =            331
    Max Points       =            399
    Max Functions    =              7

   => Loading Basis Set <=

    Name: (STO-3G AUX)
    Role: JKFIT
    Keyword: DF_BASIS_SCF
    atoms 1   entry O          line   322 file /home/psilocaluser/gits/hrw-direct/objdir4/stage/usr/local/psi4/share/psi4/basis/def2-svp-jkfit.gbs 
    atoms 2-3 entry H          line    22 file /home/psilocaluser/gits/hrw-direct/objdir4/stage/usr/local/psi4/share/psi4/basis/def2-svp-jkfit.gbs 

  ==> Pre-Iterations <==

   -------------------------------------------------------
    Irrep   Nso     Nmo     Nalpha   Nbeta   Ndocc  Nsocc
   -------------------------------------------------------
     A1         4       4       0       0       0       0
     A2         0       0       0       0       0       0
     B1         1       1       0       0       0       0
     B2         2       2       0       0       0       0
   -------------------------------------------------------
    Total       7       7       5       5       5       0
   -------------------------------------------------------

  Starting with a DF guess...

  ==> Integral Setup <==

  ==> DFJK: Density-Fitted J/K Matrices <==

    J tasked:                  Yes
    K tasked:                  Yes
    wK tasked:                  No
    OpenMP threads:              1
    Integrals threads:           1
    Memory (MB):               375
    Algorithm:                Core
    Integral Cache:           NONE
    Schwarz Cutoff:          1E-12
    Fitting Condition:       1E-12

   => Auxiliary Basis Set <=

  -AO BASIS SET INFORMATION:
    Name                   = (STO-3G AUX)
    Blend                  = DEF2-SVP-JKFIT
    Total number of shells = 37
    Number of primitives   = 49
    Number of AO           = 133
    Number of SO           = 113
    Maximum AM             = 4
    Spherical Harmonics    = TRUE

  -Contraction Scheme:
    Atom   Type   All Primitives // Shells:
   ------ ------ --------------------------
       1     O     14s 10p 6d 2f 1g // 10s 8p 4d 2f 1g 
       2     H     4s 2p 2d // 2s 2p 2d 
       3     H     4s 2p 2d // 2s 2p 2d 

  ==> AO Basis Functions <==

    [ (STO-3G AUX) ]
    spherical
    ****
    O   1
    S   5 1.00
                       625.28298110           0.18479250
                       253.93274180           0.19224606
                       109.04929550           0.59372043
                        49.42300560           0.60593464
                        23.58052110           0.45741934
    S   1 1.00
                        11.80775910           1.00000000
    S   1 1.00
                         6.18278140           1.00000000
    S   1 1.00
                         3.37090610           1.00000000
    S   1 1.00
                         1.90428050           1.00000000
    S   1 1.00
                         1.10854470           1.00000000
    S   1 1.00
                         0.66098860           1.00000000
    S   1 1.00
                         0.40108140           1.00000000
    S   1 1.00
                         0.24597690           1.00000000
    S   1 1.00
                         0.15139390           1.00000000
    P   3 1.00
                        77.68748380           0.39010104
                        22.41538840           0.83793483
                         9.89064630           0.38168888
    P   1 1.00
                         5.48488630           1.00000000
    P   1 1.00
                         2.97329830           1.00000000
    P   1 1.00
                         1.47352600           1.00000000
    P   1 1.00
                         0.73603410           1.00000000
    P   1 1.00
                         0.36974140           1.00000000
    P   1 1.00
                         0.18637210           1.00000000
    P   1 1.00
                         0.09499060           1.00000000
    D   3 1.00
                        37.70710740           0.07786002
                        14.77525430           0.31355206
                         5.84709000           0.94637356
    D   1 1.00
                         2.33043650           1.00000000
    D   1 1.00
                         0.93282670           1.00000000
    D   1 1.00
                         0.37392850           1.00000000
    F   1 1.00
                         3.02934220           0.76154791
    F   1 1.00
                         0.92484900           0.64810862
    G   1 1.00
                         1.69348090           1.00000000
    ****
    H   2
    S   3 1.00
                        22.06834300           0.05303399
                         4.39057120           0.39465220
                         1.05407870           0.91729877
    S   1 1.00
                         0.27178740           1.00000000
    P   1 1.00
                         1.85299790           1.00000000
    P   1 1.00
                         0.38810340           1.00000000
    D   1 1.00
                         2.55799330           1.00000000
    D   1 1.00
                         0.32926490           1.00000000
    ****

  ## One-electron Hamiltonian (Symmetry 0) ##
  Irrep: 1 Size: 4 x 4

                 1                   2                   3                   4

    1   -32.67360937706304    -7.60160704078044    -0.01741536388832    -2.23188407852816
    2    -7.60160704078044    -9.29147579353813    -0.20781330997219    -4.91205285692142
    3    -0.01741536388832    -0.20781330997219    -7.50695982333084    -2.19843349662634
    4    -2.23188407852816    -4.91205285692142    -2.19843349662634    -6.32623490429215



  Irrep: 2 Size: 0 x 0

	(empty)

  Irrep: 3 Size: 1 x 1

                 1

    1    -7.42214004252392



  Irrep: 4 Size: 2 x 2

                 1                   2

    1    -7.56362100413496     2.72200737197936
    2     2.72200737197936    -3.48092240761403



  Minimum eigenvalue in the overlap matrix is 3.7028400642E-01.
  Using Symmetric Orthogonalization.

  ## S (Symmetry 0) ##
  Irrep: 1 Size: 4 x 4

                 1                   2                   3                   4

    1     1.00000000000000     0.23670393651085     0.00000000000000     0.06894546482547
    2     0.23670393651085     1.00000000000000    -0.00000000000000     0.63236117501475
    3     0.00000000000000    -0.00000000000000     1.00000000000000     0.32745081544518
    4     0.06894546482547     0.63236117501475     0.32745081544518     1.22823892222023



  Irrep: 2 Size: 0 x 0

	(empty)

  Irrep: 3 Size: 1 x 1

                 1

    1     1.00000000000000



  Irrep: 4 Size: 2 x 2

                 1                   2

    1     1.00000000000000    -0.42290858838851
    2    -0.42290858838851     0.77176107777977



  ## X (Symmetry 0) ##
  Irrep: 1 Size: 4 x 4

                 1                   2                   3                   4

    1     1.02403591820914    -0.14128824499369    -0.00938732002266     0.02993922969578
    2    -0.14128824499369     1.21591377628900     0.09833517680817    -0.38415634638710
    3    -0.00938732002266     0.09833517680817     1.04984867029625    -0.19541094261102
    4     0.02993922969578    -0.38415634638710    -0.19541094261102     1.10156865717327



  Irrep: 2 Size: 0 x 0

	(empty)

  Irrep: 3 Size: 1 x 1

                 1

    1     1.00000000000000



  Irrep: 4 Size: 2 x 2

                 1                   2

    1     1.10025747766017     0.30180194621082
    2     0.30180194621082     1.26313653194848



  SCF Guess: Core (One-Electron) Hamiltonian.

  ## C (Symmetry 0) ##
  Irrep: 1 Size: 4 x 4

                 1                   2                   3                   4

    1     1.00160762329307     0.23380522608365     0.09345884358970     0.05458148935191
    2    -0.00777939366973    -1.08274338575094    -0.39179827695803    -0.57424292492778
    3    -0.00042228047589    -0.47697837850886     0.92640576156125    -0.25375068246294
    4     0.00311197058165     0.24908511021796    -0.05009545557877     1.15565945145621



  Irrep: 2 Size: 0 x 0

	(empty)

  Irrep: 3 Size: 1 x 1

                 1

    1     1.00000000000000



  Irrep: 4 Size: 2 x 2

                 1                   2

    1    -1.08208764991723    -0.36157606361644
    2    -0.23220707657321    -1.27776296184730



  ## C (Symmetry 0) ##
  Irrep: 1 Size: 4 x 4

                 1                   2                   3                   4

    1     1.00160762329307     0.23380522608365     0.09345884358970     0.05458148935191
    2    -0.00777939366973    -1.08274338575094    -0.39179827695803    -0.57424292492778
    3    -0.00042228047589    -0.47697837850886     0.92640576156125    -0.25375068246294
    4     0.00311197058165     0.24908511021796    -0.05009545557877     1.15565945145621



  Irrep: 2 Size: 0 x 0

	(empty)

  Irrep: 3 Size: 1 x 1

                 1

    1     1.00000000000000



  Irrep: 4 Size: 2 x 2

                 1                   2

    1    -1.08208764991723    -0.36157606361644
    2    -0.23220707657321    -1.27776296184730



  ## SCF density (Symmetry 0) ##
  Irrep: 1 Size: 4 x 4

                 1                   2                   3                   4

    1     1.06661727022794    -0.29755997598520    -0.02536218579774     0.05667251061914
    2    -0.29755997598520     1.32589964818055     0.15348428841904    -0.25009215164259
    3    -0.02536218579774     0.15348428841904     1.08573618693962    -0.16521824478308
    4     0.05667251061914    -0.25009215164259    -0.16521824478308     0.06456263116284



  Irrep: 2 Size: 0 x 0

	(empty)

  Irrep: 3 Size: 1 x 1

                 1

    1     1.00000000000000



  Irrep: 4 Size: 2 x 2

                 1                   2

    1     1.17091368210340     0.25126840978325
    2     0.25126840978325     0.05392012641068



  ## SCF density (Symmetry 0) ##
  Irrep: 1 Size: 4 x 4

                 1                   2                   3                   4

    1     1.06661727022794    -0.29755997598520    -0.02536218579774     0.05667251061914
    2    -0.29755997598520     1.32589964818055     0.15348428841904    -0.25009215164259
    3    -0.02536218579774     0.15348428841904     1.08573618693962    -0.16521824478308
    4     0.05667251061914    -0.25009215164259    -0.16521824478308     0.06456263116284



  Irrep: 2 Size: 0 x 0

	(empty)

  Irrep: 3 Size: 1 x 1

                 1

    1     1.00000000000000



  Irrep: 4 Size: 2 x 2

                 1                   2

    1     1.17091368210340     0.25126840978325
    2     0.25126840978325     0.05392012641068



  ## F (Symmetry 0) ##
  Irrep: 1 Size: 4 x 4

                 1                   2                   3                   4

    1   -32.67360937706304    -7.60160704078044    -0.01741536388832    -2.23188407852816
    2    -7.60160704078044    -9.29147579353813    -0.20781330997219    -4.91205285692142
    3    -0.01741536388832    -0.20781330997219    -7.50695982333084    -2.19843349662634
    4    -2.23188407852816    -4.91205285692142    -2.19843349662634    -6.32623490429215



  Irrep: 2 Size: 0 x 0

	(empty)

  Irrep: 3 Size: 1 x 1

                 1

    1    -7.42214004252392



  Irrep: 4 Size: 2 x 2

                 1                   2

    1    -7.56362100413496     2.72200737197936
    2     2.72200737197936    -3.48092240761403



  ## F (Symmetry 0) ##
  Irrep: 1 Size: 4 x 4

                 1                   2                   3                   4

    1   -32.67360937706304    -7.60160704078044    -0.01741536388832    -2.23188407852816
    2    -7.60160704078044    -9.29147579353813    -0.20781330997219    -4.91205285692142
    3    -0.01741536388832    -0.20781330997219    -7.50695982333084    -2.19843349662634
    4    -2.23188407852816    -4.91205285692142    -2.19843349662634    -6.32623490429215



  Irrep: 2 Size: 0 x 0

	(empty)

  Irrep: 3 Size: 1 x 1

                 1

    1    -7.42214004252392



  Irrep: 4 Size: 2 x 2

                 1                   2

    1    -7.56362100413496     2.72200737197936
    2     2.72200737197936    -3.48092240761403



  ==> Iterations <==

                           Total Energy        Delta E     RMS |[F,P]|

  ## F (Symmetry 0) ##
  Irrep: 1 Size: 4 x 4

                 1                   2                   3                   4

    1   -17.40691901054349    -4.54472224151193    -0.01480170110799    -1.34015592782680
    2    -4.54472224151193    -1.39491158913095    -0.21251450793439    -0.80268609193240
    3    -0.01480170110799    -0.21251450793439     0.43432179436397    -0.26356537733722
    4    -1.34015592782680    -0.80268609193240    -0.26356537733722    -0.50429621304392



  Irrep: 2 Size: 0 x 0

	(empty)

  Irrep: 3 Size: 1 x 1

                 1

    1     0.52233421923519



  Irrep: 4 Size: 2 x 2

                 1                   2

    1     0.37598112611563     0.21854638640024
    2     0.21854638640024    -0.05035592105663



  ## F (Symmetry 0) ##
  Irrep: 1 Size: 4 x 4

                 1                   2                   3                   4

    1   -17.40691901054349    -4.54472224151193    -0.01480170110799    -1.34015592782680
    2    -4.54472224151193    -1.39491158913095    -0.21251450793439    -0.80268609193240
    3    -0.01480170110799    -0.21251450793439     0.43432179436397    -0.26356537733722
    4    -1.34015592782680    -0.80268609193240    -0.26356537733722    -0.50429621304392



  Irrep: 2 Size: 0 x 0

	(empty)

  Irrep: 3 Size: 1 x 1

                 1

    1     0.52233421923519



  Irrep: 4 Size: 2 x 2

                 1                   2

    1     0.37598112611563     0.21854638640024
    2     0.21854638640024    -0.05035592105663



    Occupation by irrep:
             A1    A2    B1    B2 
    DOCC [     3,    0,    1,    1 ]

  ## C (Symmetry 0) ##
  Irrep: 1 Size: 4 x 4

                 1                   2                   3                   4

    1    -0.99257291757065    -0.17166884560878     0.21846518577356     0.08484210373022
    2    -0.03296135400366     0.49822051810784    -1.04887224260034    -0.55336377564066
    3    -0.00446489471376     0.17583604831519     0.32888510788768    -1.00549586295909
    4     0.01066432689540     0.53218168975234     0.71123604926512     0.78161601976473



  Irrep: 2 Size: 0 x 0

	(empty)

  Irrep: 3 Size: 1 x 1

                 1

    1     1.00000000000000



  Irrep: 4 Size: 2 x 2

                 1                   2

    1     0.29874559959789    -1.10109127623674
    2    -0.93488120506465    -0.90144076094679



  ## C (Symmetry 0) ##
  Irrep: 1 Size: 4 x 4

                 1                   2                   3                   4

    1    -0.99257291757065    -0.17166884560878     0.21846518577356     0.08484210373022
    2    -0.03296135400366     0.49822051810784    -1.04887224260034    -0.55336377564066
    3    -0.00446489471376     0.17583604831519     0.32888510788768    -1.00549586295909
    4     0.01066432689540     0.53218168975234     0.71123604926512     0.78161601976473



  Irrep: 2 Size: 0 x 0

	(empty)

  Irrep: 3 Size: 1 x 1

                 1

    1     1.00000000000000



  Irrep: 4 Size: 2 x 2

                 1                   2

    1     0.29874559959789    -1.10109127623674
    2    -0.93488120506465    -0.90144076094679



  ## SCF density (Symmetry 0) ##
  Irrep: 1 Size: 4 x 4

                 1                   2                   3                   4

    1     1.06239822664244    -0.28195446322411     0.04609610833485     0.05343617723714
    2    -0.28195446322411     1.34944311681887    -0.25720616459913    -0.48120342346901
    3     0.04609610833485    -0.25720616459913     0.13910366536220     0.32744405501114
    4     0.05343617723714    -0.48120342346901     0.32744405501114     0.78918779655005



  Irrep: 2 Size: 0 x 0

	(empty)

  Irrep: 3 Size: 1 x 1

                 1

    1     1.00000000000000



  Irrep: 4 Size: 2 x 2

                 1                   2

    1     0.08924893327910    -0.27929164615984
    2    -0.27929164615984     0.87400286758313



  ## SCF density (Symmetry 0) ##
  Irrep: 1 Size: 4 x 4

                 1                   2                   3                   4

    1     1.06239822664244    -0.28195446322411     0.04609610833485     0.05343617723714
    2    -0.28195446322411     1.34944311681887    -0.25720616459913    -0.48120342346901
    3     0.04609610833485    -0.25720616459913     0.13910366536220     0.32744405501114
    4     0.05343617723714    -0.48120342346901     0.32744405501114     0.78918779655005



  Irrep: 2 Size: 0 x 0

	(empty)

  Irrep: 3 Size: 1 x 1

                 1

    1     1.00000000000000



  Irrep: 4 Size: 2 x 2

                 1                   2

    1     0.08924893327910    -0.27929164615984
    2    -0.27929164615984     0.87400286758313



   @DF-RKS iter   1:   -73.56952180514585   -7.35695e+01   2.11084e-01 
  ## F (Symmetry 0) ##
  Irrep: 1 Size: 4 x 4

                 1                   2                   3                   4

    1   -19.67887839289132    -5.02301809025013    -0.01335677890464    -1.47854757181347
    2    -5.02301809025013    -2.48412459642509    -0.05374892050926    -1.22419395276932
    3    -0.01335677890464    -0.05374892050926    -0.59749361300501    -0.36244953922035
    4    -1.47854757181347    -1.22419395276932    -0.36244953922035    -0.73001789051473



  Irrep: 2 Size: 0 x 0

	(empty)

  Irrep: 3 Size: 1 x 1

                 1

    1    -0.60241077214049



  Irrep: 4 Size: 2 x 2

                 1                   2

    1    -0.62548067794726     0.43607854387789
    2     0.43607854387789    -0.12461444935560



  ## F (Symmetry 0) ##
  Irrep: 1 Size: 4 x 4

                 1                   2                   3                   4

    1   -19.67887839289132    -5.02301809025013    -0.01335677890464    -1.47854757181347
    2    -5.02301809025013    -2.48412459642509    -0.05374892050926    -1.22419395276932
    3    -0.01335677890464    -0.05374892050926    -0.59749361300501    -0.36244953922035
    4    -1.47854757181347    -1.22419395276932    -0.36244953922035    -0.73001789051473



  Irrep: 2 Size: 0 x 0

	(empty)

  Irrep: 3 Size: 1 x 1

                 1

    1    -0.60241077214049



  Irrep: 4 Size: 2 x 2

                 1                   2

    1    -0.62548067794726     0.43607854387789
    2     0.43607854387789    -0.12461444935560



DIIS coefficients:  0.463  0.537 
  After DIIS:
  ## F (Symmetry 0) ##
  Irrep: 1 Size: 4 x 4

                 1                   2                   3                   4

    1   -18.62744232522458    -4.80166839963245    -0.01402547189774    -1.41450154745149
    2    -4.80166839963245    -1.98004963358076    -0.12722376615134    -1.02912507471966
    3    -0.01402547189774    -0.12722376615134    -0.11998158399995    -0.31668711268547
    4    -1.41450154745149    -1.02912507471966    -0.31668711268547    -0.62555655428178



  Irrep: 2 Size: 0 x 0

	(empty)

  Irrep: 3 Size: 1 x 1

                 1

    1    -0.08189202517336



  Irrep: 4 Size: 2 x 2

                 1                   2

    1    -0.16201593937689     0.33540722113047
    2     0.33540722113047    -0.09024847626998



  ## F (Symmetry 0) ##
  Irrep: 1 Size: 4 x 4

                 1                   2                   3                   4

    1   -18.62744232522458    -4.80166839963245    -0.01402547189774    -1.41450154745149
    2    -4.80166839963245    -1.98004963358076    -0.12722376615134    -1.02912507471966
    3    -0.01402547189774    -0.12722376615134    -0.11998158399995    -0.31668711268547
    4    -1.41450154745149    -1.02912507471966    -0.31668711268547    -0.62555655428178



  Irrep: 2 Size: 0 x 0

	(empty)

  Irrep: 3 Size: 1 x 1

                 1

    1    -0.08189202517336



  Irrep: 4 Size: 2 x 2

                 1                   2

    1    -0.16201593937689     0.33540722113047
    2     0.33540722113047    -0.09024847626998



    Occupation by irrep:
             A1    A2    B1    B2 
    DOCC [     3,    0,    1,    1 ]

  ## C (Symmetry 0) ##
  Irrep: 1 Size: 4 x 4

                 1                   2                   3                   4

    1    -0.99340952793323    -0.23255638574388     0.11626446710419    -0.12302040545379
    2    -0.02937745745794     0.82971425505960    -0.58215806299625     0.79212233565455
    3    -0.00390008404129     0.15189792926463     0.73934920031671     0.76183998596205
    4     0.00942756700019     0.23233564117788     0.43887147243657    -1.07398067971597



  Irrep: 2 Size: 0 x 0

	(empty)

  Irrep: 3 Size: 1 x 1

                 1

    1     1.00000000000000



  Irrep: 4 Size: 2 x 2

                 1                   2

    1    -0.61145695741195     0.96320886681772
    2     0.62595319228143     1.13788440280731



  ## C (Symmetry 0) ##
  Irrep: 1 Size: 4 x 4

                 1                   2                   3                   4

    1    -0.99340952793323    -0.23255638574388     0.11626446710419    -0.12302040545379
    2    -0.02937745745794     0.82971425505960    -0.58215806299625     0.79212233565455
    3    -0.00390008404129     0.15189792926463     0.73934920031671     0.76183998596205
    4     0.00942756700019     0.23233564117788     0.43887147243657    -1.07398067971597



  Irrep: 2 Size: 0 x 0

	(empty)

  Irrep: 3 Size: 1 x 1

                 1

    1     1.00000000000000



  Irrep: 4 Size: 2 x 2

                 1                   2

    1    -0.61145695741195     0.96320886681772
    2     0.62595319228143     1.13788440280731



  ## SCF density (Symmetry 0) ##
  Irrep: 1 Size: 4 x 4

                 1                   2                   3                   4

    1     1.05446238904980    -0.23145579917633     0.05450958799332    -0.01237141400497
    2    -0.23145579917633     1.02819679036735    -0.30427164655631    -0.06299733080277
    3     0.05450958799332    -0.30427164655631     0.56972543157937     0.35973380667348
    4    -0.01237141400497    -0.06299733080277     0.35973380667348     0.24667689849973



  Irrep: 2 Size: 0 x 0

	(empty)

  Irrep: 3 Size: 1 x 1

                 1

    1     1.00000000000000



  Irrep: 4 Size: 2 x 2

                 1                   2

    1     0.37387961076748    -0.38274343443470
    2    -0.38274343443470     0.39181739892732



  ## SCF density (Symmetry 0) ##
  Irrep: 1 Size: 4 x 4

                 1                   2                   3                   4

    1     1.05446238904980    -0.23145579917633     0.05450958799332    -0.01237141400497
    2    -0.23145579917633     1.02819679036735    -0.30427164655631    -0.06299733080277
    3     0.05450958799332    -0.30427164655631     0.56972543157937     0.35973380667348
    4    -0.01237141400497    -0.06299733080277     0.35973380667348     0.24667689849973



  Irrep: 2 Size: 0 x 0

	(empty)

  Irrep: 3 Size: 1 x 1

                 1

    1     1.00000000000000



  Irrep: 4 Size: 2 x 2

                 1                   2

    1     0.37387961076748    -0.38274343443470
    2    -0.38274343443470     0.39181739892732



   @DF-RKS iter   2:   -74.65699049014164   -1.08747e+00   1.83983e-01 DIIS
  ## F (Symmetry 0) ##
  Irrep: 1 Size: 4 x 4

                 1                   2                   3                   4

    1   -18.82062668405748    -4.84021207814787    -0.02213428822512    -1.42625123094637
    2    -4.84021207814787    -2.04104529906248    -0.14794246734818    -1.07540295803442
    3    -0.02213428822512    -0.14794246734818    -0.19309329040995    -0.35612599153596
    4    -1.42625123094637    -1.07540295803442    -0.35612599153596    -0.70124238555271



  Irrep: 2 Size: 0 x 0

	(empty)

  Irrep: 3 Size: 1 x 1

                 1

    1    -0.14376892808119



  Irrep: 4 Size: 2 x 2

                 1                   2

    1    -0.22865319070446     0.37469005737215
    2     0.37469005737215    -0.14110302943293



  ## F (Symmetry 0) ##
  Irrep: 1 Size: 4 x 4

                 1                   2                   3                   4

    1   -18.82062668405748    -4.84021207814787    -0.02213428822512    -1.42625123094637
    2    -4.84021207814787    -2.04104529906248    -0.14794246734818    -1.07540295803442
    3    -0.02213428822512    -0.14794246734818    -0.19309329040995    -0.35612599153596
    4    -1.42625123094637    -1.07540295803442    -0.35612599153596    -0.70124238555271



  Irrep: 2 Size: 0 x 0

	(empty)

  Irrep: 3 Size: 1 x 1

                 1

    1    -0.14376892808119



  Irrep: 4 Size: 2 x 2

                 1                   2

    1    -0.22865319070446     0.37469005737215
    2     0.37469005737215    -0.14110302943293



DIIS coefficients:  0.009  -0.004  0.995 
  After DIIS:
  ## F (Symmetry 0) ##
  Irrep: 1 Size: 4 x 4

                 1                   2                   3                   4

    1   -18.80533356562363    -4.83700331727956    -0.02210232303103    -1.42531977252220
    2    -4.83700331727956    -2.03387368479551    -0.14883784970175    -1.07251282337081
    3    -0.02210232303103    -0.14883784970175    -0.18622195039657    -0.35530321502492
    4    -1.42531977252220    -1.07251282337081    -0.35530321502492    -0.69943687613094



  Irrep: 2 Size: 0 x 0

	(empty)

  Irrep: 3 Size: 1 x 1

                 1

    1    -0.13636897803250



  Irrep: 4 Size: 2 x 2

                 1                   2

    1    -0.22200588780960     0.37312051854074
    2     0.37312051854074    -0.14037759155585



  ## F (Symmetry 0) ##
  Irrep: 1 Size: 4 x 4

                 1                   2                   3                   4

    1   -18.80533356562363    -4.83700331727956    -0.02210232303103    -1.42531977252220
    2    -4.83700331727956    -2.03387368479551    -0.14883784970175    -1.07251282337081
    3    -0.02210232303103    -0.14883784970175    -0.18622195039657    -0.35530321502492
    4    -1.42531977252220    -1.07251282337081    -0.35530321502492    -0.69943687613094



  Irrep: 2 Size: 0 x 0

	(empty)

  Irrep: 3 Size: 1 x 1

                 1

    1    -0.13636897803250



  Irrep: 4 Size: 2 x 2

                 1                   2

    1    -0.22200588780960     0.37312051854074
    2     0.37312051854074    -0.14037759155585



    Occupation by irrep:
             A1    A2    B1    B2 
    DOCC [     3,    0,    1,    1 ]

  ## C (Symmetry 0) ##
  Irrep: 1 Size: 4 x 4

                 1                   2                   3                   4

    1    -0.99356305510492    -0.22919994226524     0.12128596218572    -0.12323135388643
    2    -0.02875208948096     0.81593845726200    -0.59807701498847     0.79459185778866
    3    -0.00431569422216     0.17843267960263     0.74303994160198     0.75243630601358
    4     0.00932828312902     0.23972787224266     0.41929149385742    -1.08016182698964



  Irrep: 2 Size: 0 x 0

	(empty)

  Irrep: 3 Size: 1 x 1

                 1

    1     1.00000000000000



  Irrep: 4 Size: 2 x 2

                 1                   2

    1    -0.60707942284437     0.96597386416130
    2     0.63111069752171     1.13503198217192



  ## C (Symmetry 0) ##
  Irrep: 1 Size: 4 x 4

                 1                   2                   3                   4

    1    -0.99356305510492    -0.22919994226524     0.12128596218572    -0.12323135388643
    2    -0.02875208948096     0.81593845726200    -0.59807701498847     0.79459185778866
    3    -0.00431569422216     0.17843267960263     0.74303994160198     0.75243630601358
    4     0.00932828312902     0.23972787224266     0.41929149385742    -1.08016182698964



  Irrep: 2 Size: 0 x 0

	(empty)

  Irrep: 3 Size: 1 x 1

                 1

    1     1.00000000000000



  Irrep: 4 Size: 2 x 2

                 1                   2

    1    -0.60707942284437     0.96597386416130
    2     0.63111069752171     1.13503198217192



  ## SCF density (Symmetry 0) ##
  Irrep: 1 Size: 4 x 4

                 1                   2                   3                   4

    1     1.05441044262713    -0.23098437965512     0.05351146873273    -0.01335967969315
    2    -0.23098437965512     1.02427836454613    -0.29868093974398    -0.05543362244716
    3     0.05351146873273    -0.29868093974398     0.58396520118267     0.35428535571212
    4    -0.01335967969315    -0.05543362244716     0.35428535571212     0.23336182641731



  Irrep: 2 Size: 0 x 0

	(empty)

  Irrep: 3 Size: 1 x 1

                 1

    1     1.00000000000000



  Irrep: 4 Size: 2 x 2

                 1                   2

    1     0.36854542564105    -0.38313431800239
    2    -0.38313431800239     0.39830071252634



  ## SCF density (Symmetry 0) ##
  Irrep: 1 Size: 4 x 4

                 1                   2                   3                   4

    1     1.05441044262713    -0.23098437965512     0.05351146873273    -0.01335967969315
    2    -0.23098437965512     1.02427836454613    -0.29868093974398    -0.05543362244716
    3     0.05351146873273    -0.29868093974398     0.58396520118267     0.35428535571212
    4    -0.01335967969315    -0.05543362244716     0.35428535571212     0.23336182641731



  Irrep: 2 Size: 0 x 0

	(empty)

  Irrep: 3 Size: 1 x 1

                 1

    1     1.00000000000000



  Irrep: 4 Size: 2 x 2

                 1                   2

    1     0.36854542564105    -0.38313431800239
    2    -0.38313431800239     0.39830071252634



   @DF-RKS iter   3:   -75.30817744725809   -6.51187e-01   3.77335e-03 DIIS
  ## F (Symmetry 0) ##
  Irrep: 1 Size: 4 x 4

                 1                   2                   3                   4

    1   -18.81077306467539    -4.83811010482604    -0.02185144341131    -1.42561644422177
    2    -4.83811010482604    -2.03612714039029    -0.14760396924498    -1.07331336854304
    3    -0.02185144341131    -0.14760396924498    -0.18887089267488    -0.35493004769699
    4    -1.42561644422177    -1.07331336854304    -0.35493004769699    -0.69934946181169



  Irrep: 2 Size: 0 x 0

	(empty)

  Irrep: 3 Size: 1 x 1

                 1

    1    -0.13867772233405



  Irrep: 4 Size: 2 x 2

                 1                   2

    1    -0.22365559304233     0.37372549067393
    2     0.37372549067393    -0.14094548633648



  ## F (Symmetry 0) ##
  Irrep: 1 Size: 4 x 4

                 1                   2                   3                   4

    1   -18.81077306467539    -4.83811010482604    -0.02185144341131    -1.42561644422177
    2    -4.83811010482604    -2.03612714039029    -0.14760396924498    -1.07331336854304
    3    -0.02185144341131    -0.14760396924498    -0.18887089267488    -0.35493004769699
    4    -1.42561644422177    -1.07331336854304    -0.35493004769699    -0.69934946181169



  Irrep: 2 Size: 0 x 0

	(empty)

  Irrep: 3 Size: 1 x 1

                 1

    1    -0.13867772233405



  Irrep: 4 Size: 2 x 2

                 1                   2

    1    -0.22365559304233     0.37372549067393
    2     0.37372549067393    -0.14094548633648



DIIS coefficients:  -0.001  -0.003  -0.049  1.052 
  After DIIS:
  ## F (Symmetry 0) ##
  Irrep: 1 Size: 4 x 4

                 1                   2                   3                   4

    1   -18.80942659015254    -4.83781747508702    -0.02186714857900    -1.42553255834412
    2    -4.83781747508702    -2.03535651439183    -0.14776890332192    -1.07308787175024
    3    -0.02186714857900    -0.14776890332192    -0.18821939578574    -0.35494425862987
    4    -1.42553255834412    -1.07308787175024    -0.35494425862987    -0.69937342356995



  Irrep: 2 Size: 0 x 0

	(empty)

  Irrep: 3 Size: 1 x 1

                 1

    1    -0.13787726859979



  Irrep: 4 Size: 2 x 2

                 1                   2

    1    -0.22296061836188     0.37367105013867
    2     0.37367105013867    -0.14107201531988



  ## F (Symmetry 0) ##
  Irrep: 1 Size: 4 x 4

                 1                   2                   3                   4

    1   -18.80942659015254    -4.83781747508702    -0.02186714857900    -1.42553255834412
    2    -4.83781747508702    -2.03535651439183    -0.14776890332192    -1.07308787175024
    3    -0.02186714857900    -0.14776890332192    -0.18821939578574    -0.35494425862987
    4    -1.42553255834412    -1.07308787175024    -0.35494425862987    -0.69937342356995



  Irrep: 2 Size: 0 x 0

	(empty)

  Irrep: 3 Size: 1 x 1

                 1

    1    -0.13787726859979



  Irrep: 4 Size: 2 x 2

                 1                   2

    1    -0.22296061836188     0.37367105013867
    2     0.37367105013867    -0.14107201531988



    Occupation by irrep:
             A1    A2    B1    B2 
    DOCC [     3,    0,    1,    1 ]

  ## C (Symmetry 0) ##
  Irrep: 1 Size: 4 x 4

                 1                   2                   3                   4

    1    -0.99356722253381    -0.22934391161106     0.12075890603102    -0.12344731805665
    2    -0.02873312585100     0.81671812416022    -0.59549204010066     0.79573219636631
    3    -0.00429868065750     0.17749390961959     0.74472298537181     0.75099314526931
    4     0.00931852025201     0.23917163815823     0.41750654996846    -1.08097630516000



  Irrep: 2 Size: 0 x 0

	(empty)

  Irrep: 3 Size: 1 x 1

                 1

    1     1.00000000000000



  Irrep: 4 Size: 2 x 2

                 1                   2

    1    -0.60710058583632     0.96596056366756
    2     0.63108583040546     1.13504580865308



  ## C (Symmetry 0) ##
  Irrep: 1 Size: 4 x 4

                 1                   2                   3                   4

    1    -0.99356722253381    -0.22934391161106     0.12075890603102    -0.12344731805665
    2    -0.02873312585100     0.81671812416022    -0.59549204010066     0.79573219636631
    3    -0.00429868065750     0.17749390961959     0.74472298537181     0.75099314526931
    4     0.00931852025201     0.23917163815823     0.41750654996846    -1.08097630516000



  Irrep: 2 Size: 0 x 0

	(empty)

  Irrep: 3 Size: 1 x 1

                 1

    1     1.00000000000000



  Irrep: 4 Size: 2 x 2

                 1                   2

    1    -0.60710058583632     0.96596056366756
    2     0.63108583040546     1.13504580865308



  ## SCF density (Symmetry 0) ##
  Irrep: 1 Size: 4 x 4

                 1                   2                   3                   4

    1     1.05435716887243    -0.23067200454480     0.05349581369179    -0.01369350109157
    2    -0.23067200454480     1.02246485667621    -0.29839060242222    -0.05355376574234
    3     0.05349581369179    -0.29839060242222     0.58613489154854     0.35333817608886
    4    -0.01369350109157    -0.05355376574234     0.35333817608886     0.23160162658555



  Irrep: 2 Size: 0 x 0

	(empty)

  Irrep: 3 Size: 1 x 1

                 1

    1     1.00000000000000



  Irrep: 4 Size: 2 x 2

                 1                   2

    1     0.36857112132280    -0.38313257735215
    2    -0.38313257735215     0.39826932533855



  ## SCF density (Symmetry 0) ##
  Irrep: 1 Size: 4 x 4

                 1                   2                   3                   4

    1     1.05435716887243    -0.23067200454480     0.05349581369179    -0.01369350109157
    2    -0.23067200454480     1.02246485667621    -0.29839060242222    -0.05355376574234
    3     0.05349581369179    -0.29839060242222     0.58613489154854     0.35333817608886
    4    -0.01369350109157    -0.05355376574234     0.35333817608886     0.23160162658555



  Irrep: 2 Size: 0 x 0

	(empty)

  Irrep: 3 Size: 1 x 1

                 1

    1     1.00000000000000



  Irrep: 4 Size: 2 x 2

                 1                   2

    1     0.36857112132280    -0.38313257735215
    2    -0.38313257735215     0.39826932533855



   @DF-RKS iter   4:   -75.30849899533953   -3.21548e-04   4.50095e-04 DIIS
  ## F (Symmetry 0) ##
  Irrep: 1 Size: 4 x 4

                 1                   2                   3                   4

    1   -18.80904100780675    -4.83774089065740    -0.02186134905742    -1.42550922402769
    2    -4.83774089065740    -2.03520208215723    -0.14778386647883    -1.07302489476877
    3    -0.02186134905742    -0.14778386647883    -0.18808183393952    -0.35485722691387
    4    -1.42550922402769    -1.07302489476877    -0.35485722691387    -0.69924730617893



  Irrep: 2 Size: 0 x 0

	(empty)

  Irrep: 3 Size: 1 x 1

                 1

    1    -0.13775914883206



  Irrep: 4 Size: 2 x 2

                 1                   2

    1    -0.22280662942497     0.37359637413214
    2     0.37359637413214    -0.14098644752524



  ## F (Symmetry 0) ##
  Irrep: 1 Size: 4 x 4

                 1                   2                   3                   4

    1   -18.80904100780675    -4.83774089065740    -0.02186134905742    -1.42550922402769
    2    -4.83774089065740    -2.03520208215723    -0.14778386647883    -1.07302489476877
    3    -0.02186134905742    -0.14778386647883    -0.18808183393952    -0.35485722691387
    4    -1.42550922402769    -1.07302489476877    -0.35485722691387    -0.69924730617893



  Irrep: 2 Size: 0 x 0

	(empty)

  Irrep: 3 Size: 1 x 1

                 1

    1    -0.13775914883206



  Irrep: 4 Size: 2 x 2

                 1                   2

    1    -0.22280662942497     0.37359637413214
    2     0.37359637413214    -0.14098644752524



DIIS coefficients:  -0.000  0.000  -0.001  -0.036  1.036 
  After DIIS:
  ## F (Symmetry 0) ##
  Irrep: 1 Size: 4 x 4

                 1                   2                   3                   4

    1   -18.80909594813059    -4.83775211758809    -0.02186196689020    -1.42551247752879
    2    -4.83775211758809    -2.03522258988497    -0.14778370067549    -1.07303679596151
    3    -0.02186196689020    -0.14778370067549    -0.18810588625571    -0.35486123487911
    4    -1.42551247752879    -1.07303679596151    -0.35486123487911    -0.69925849659705



  Irrep: 2 Size: 0 x 0

	(empty)

  Irrep: 3 Size: 1 x 1

                 1

    1    -0.13778157461933



  Irrep: 4 Size: 2 x 2

                 1                   2

    1    -0.22282587864717     0.37360441118613
    2     0.37360441118613    -0.14099505954243



  ## F (Symmetry 0) ##
  Irrep: 1 Size: 4 x 4

                 1                   2                   3                   4

    1   -18.80909594813059    -4.83775211758809    -0.02186196689020    -1.42551247752879
    2    -4.83775211758809    -2.03522258988497    -0.14778370067549    -1.07303679596151
    3    -0.02186196689020    -0.14778370067549    -0.18810588625571    -0.35486123487911
    4    -1.42551247752879    -1.07303679596151    -0.35486123487911    -0.69925849659705



  Irrep: 2 Size: 0 x 0

	(empty)

  Irrep: 3 Size: 1 x 1

                 1

    1    -0.13778157461933



  Irrep: 4 Size: 2 x 2

                 1                   2

    1    -0.22282587864717     0.37360441118613
    2     0.37360441118613    -0.14099505954243



    Occupation by irrep:
             A1    A2    B1    B2 
    DOCC [     3,    0,    1,    1 ]

  ## C (Symmetry 0) ##
  Irrep: 1 Size: 4 x 4

                 1                   2                   3                   4

    1    -0.99356693167668    -0.22934086732337     0.12075364952379    -0.12346045597056
    2    -0.02873436371623     0.81669629370190    -0.59544374001498     0.79579069967080
    3    -0.00429858999346     0.17749415533383     0.74477800915538     0.75093851933096
    4     0.00931889223011     0.23919503008032     0.41741945783321    -1.08100475991441



  Irrep: 2 Size: 0 x 0

	(empty)

  Irrep: 3 Size: 1 x 1

                 1

    1     1.00000000000000



  Irrep: 4 Size: 2 x 2

                 1                   2

    1    -0.60707955873282     0.96597377876034
    2     0.63111053785098     1.13503207095347



  ## C (Symmetry 0) ##
  Irrep: 1 Size: 4 x 4

                 1                   2                   3                   4

    1    -0.99356693167668    -0.22934086732337     0.12075364952379    -0.12346045597056
    2    -0.02873436371623     0.81669629370190    -0.59544374001498     0.79579069967080
    3    -0.00429858999346     0.17749415533383     0.74477800915538     0.75093851933096
    4     0.00931889223011     0.23919503008032     0.41741945783321    -1.08100475991441



  Irrep: 2 Size: 0 x 0

	(empty)

  Irrep: 3 Size: 1 x 1

                 1

    1     1.00000000000000



  Irrep: 4 Size: 2 x 2

                 1                   2

    1    -0.60707955873282     0.96597377876034
    2     0.63111053785098     1.13503207095347



  ## SCF density (Symmetry 0) ##
  Irrep: 1 Size: 4 x 4

                 1                   2                   3                   4

    1     1.05435392501935    -0.23065432743907     0.05349893603183    -0.01371121590216
    2    -0.23065432743907     1.02237174732762    -0.29839106718916    -0.05346788102749
    3     0.05349893603183    -0.29839106718916     0.58621693597505     0.35330049451500
    4    -0.01371121590216    -0.05346788102749     0.35330049451500     0.23154010794530



  Irrep: 2 Size: 0 x 0

	(empty)

  Irrep: 3 Size: 1 x 1

                 1

    1     1.00000000000000



  Irrep: 4 Size: 2 x 2

                 1                   2

    1     0.36854559063124    -0.38313430683021
    2    -0.38313430683021     0.39830051098655



  ## SCF density (Symmetry 0) ##
  Irrep: 1 Size: 4 x 4

                 1                   2                   3                   4

    1     1.05435392501935    -0.23065432743907     0.05349893603183    -0.01371121590216
    2    -0.23065432743907     1.02237174732762    -0.29839106718916    -0.05346788102749
    3     0.05349893603183    -0.29839106718916     0.58621693597505     0.35330049451500
    4    -0.01371121590216    -0.05346788102749     0.35330049451500     0.23154010794530



  Irrep: 2 Size: 0 x 0

	(empty)

  Irrep: 3 Size: 1 x 1

                 1

    1     1.00000000000000



  Irrep: 4 Size: 2 x 2

                 1                   2

    1     0.36854559063124    -0.38313430683021
    2    -0.38313430683021     0.39830051098655



   @DF-RKS iter   5:   -75.30850417813161   -5.18279e-06   1.46346e-05 DIIS
  ## F (Symmetry 0) ##
  Irrep: 1 Size: 4 x 4

                 1                   2                   3                   4

    1   -18.80902481136291    -4.83773728818310    -0.02186238994692    -1.42550815014036
    2    -4.83773728818310    -2.03518963773931    -0.14778973428978    -1.07302364191395
    3    -0.02186238994692    -0.14778973428978    -0.18807471123007    -0.35485712037970
    4    -1.42550815014036    -1.07302364191395    -0.35485712037970    -0.69924874404095



  Irrep: 2 Size: 0 x 0

	(empty)

  Irrep: 3 Size: 1 x 1

                 1

    1    -0.13774856001400



  Irrep: 4 Size: 2 x 2

                 1                   2

    1    -0.22279517320118     0.37359601763934
    2     0.37359601763934    -0.14098992226292



  ## F (Symmetry 0) ##
  Irrep: 1 Size: 4 x 4

                 1                   2                   3                   4

    1   -18.80902481136291    -4.83773728818310    -0.02186238994692    -1.42550815014036
    2    -4.83773728818310    -2.03518963773931    -0.14778973428978    -1.07302364191395
    3    -0.02186238994692    -0.14778973428978    -0.18807471123007    -0.35485712037970
    4    -1.42550815014036    -1.07302364191395    -0.35485712037970    -0.69924874404095



  Irrep: 2 Size: 0 x 0

	(empty)

  Irrep: 3 Size: 1 x 1

                 1

    1    -0.13774856001400



  Irrep: 4 Size: 2 x 2

                 1                   2

    1    -0.22279517320118     0.37359601763934
    2     0.37359601763934    -0.14098992226292



DIIS coefficients:  -0.000  0.000  -0.000  0.001  -0.058  1.057 
  After DIIS:
  ## F (Symmetry 0) ##
  Irrep: 1 Size: 4 x 4

                 1                   2                   3                   4

    1   -18.80905425284069    -4.83774351087732    -0.02186230437096    -1.42550994060492
    2    -4.83774351087732    -2.03520403371009    -0.14778740479589    -1.07302902608777
    3    -0.02186230437096    -0.14778740479589    -0.18808831169736    -0.35485798219680
    4    -1.42550994060492    -1.07302902608777    -0.35485798219680    -0.69925095871510



  Irrep: 2 Size: 0 x 0

	(empty)

  Irrep: 3 Size: 1 x 1

                 1

    1    -0.13776354224947



  Irrep: 4 Size: 2 x 2

                 1                   2

    1    -0.22280825647984     0.37359856645620
    2     0.37359856645620    -0.14099037050941



  ## F (Symmetry 0) ##
  Irrep: 1 Size: 4 x 4

                 1                   2                   3                   4

    1   -18.80905425284069    -4.83774351087732    -0.02186230437096    -1.42550994060492
    2    -4.83774351087732    -2.03520403371009    -0.14778740479589    -1.07302902608777
    3    -0.02186230437096    -0.14778740479589    -0.18808831169736    -0.35485798219680
    4    -1.42550994060492    -1.07302902608777    -0.35485798219680    -0.69925095871510



  Irrep: 2 Size: 0 x 0

	(empty)

  Irrep: 3 Size: 1 x 1

                 1

    1    -0.13776354224947



  Irrep: 4 Size: 2 x 2

                 1                   2

    1    -0.22280825647984     0.37359856645620
    2     0.37359856645620    -0.14099037050941



    Occupation by irrep:
             A1    A2    B1    B2 
    DOCC [     3,    0,    1,    1 ]

  ## C (Symmetry 0) ##
  Irrep: 1 Size: 4 x 4

                 1                   2                   3                   4

    1    -0.99356689987701    -0.22933976950450     0.12075602415402    -0.12346042860260
    2    -0.02873450346653     0.81668988625660    -0.59545433323745     0.79578934400733
    3    -0.00429863270855     0.17749707849862     0.74477208315621     0.75094370549495
    4     0.00931894861581     0.23920104489404     0.41742459331095    -1.08100144547563



  Irrep: 2 Size: 0 x 0

	(empty)

  Irrep: 3 Size: 1 x 1

                 1

    1     1.00000000000000



  Irrep: 4 Size: 2 x 2

                 1                   2

    1    -0.60707219614430     0.96597840584160
    2     0.63111918895161     1.13502726064907



  ## C (Symmetry 0) ##
  Irrep: 1 Size: 4 x 4

                 1                   2                   3                   4

    1    -0.99356689987701    -0.22933976950450     0.12075602415402    -0.12346042860260
    2    -0.02873450346653     0.81668988625660    -0.59545433323745     0.79578934400733
    3    -0.00429863270855     0.17749707849862     0.74477208315621     0.75094370549495
    4     0.00931894861581     0.23920104489404     0.41742459331095    -1.08100144547563



  Irrep: 2 Size: 0 x 0

	(empty)

  Irrep: 3 Size: 1 x 1

                 1

    1     1.00000000000000



  Irrep: 4 Size: 2 x 2

                 1                   2

    1    -0.60707219614430     0.96597840584160
    2     0.63111918895161     1.13502726064907



  ## SCF density (Symmetry 0) ##
  Irrep: 1 Size: 4 x 4

                 1                   2                   3                   4

    1     1.05435393177708    -0.23065451658903     0.05349955576619    -0.01371077711522
    2    -0.23065451658903     1.02237390497455    -0.29839417626327    -0.05347198410122
    3     0.05349955576619    -0.29839417626327     0.58620914696755     0.35330361182601
    4    -0.01371077711522    -0.05347198410122     0.35330361182601     0.23154727378252



  Irrep: 2 Size: 0 x 0

	(empty)

  Irrep: 3 Size: 1 x 1

                 1

    1     1.00000000000000



  Irrep: 4 Size: 2 x 2

                 1                   2

    1     0.36853665133147    -0.38313491206567
    2    -0.38313491206567     0.39831143066294



  ## SCF density (Symmetry 0) ##
  Irrep: 1 Size: 4 x 4

                 1                   2                   3                   4

    1     1.05435393177708    -0.23065451658903     0.05349955576619    -0.01371077711522
    2    -0.23065451658903     1.02237390497455    -0.29839417626327    -0.05347198410122
    3     0.05349955576619    -0.29839417626327     0.58620914696755     0.35330361182601
    4    -0.01371077711522    -0.05347198410122     0.35330361182601     0.23154727378252



  Irrep: 2 Size: 0 x 0

	(empty)

  Irrep: 3 Size: 1 x 1

                 1

    1     1.00000000000000



  Irrep: 4 Size: 2 x 2

                 1                   2

    1     0.36853665133147    -0.38313491206567
    2    -0.38313491206567     0.39831143066294



   @DF-RKS iter   6:   -75.30850418466071   -6.52909e-09   5.52865e-06 DIIS
  ## F (Symmetry 0) ##
  Irrep: 1 Size: 4 x 4

                 1                   2                   3                   4

    1   -18.80904473540381    -4.83774149902484    -0.02186241753389    -1.42550936877543
    2    -4.83774149902484    -2.03519942796055    -0.14778841098145    -1.07302725753886
    3    -0.02186241753389    -0.14778841098145    -0.18808400742182    -0.35485790441646
    4    -1.42550936877543    -1.07302725753886    -0.35485790441646    -0.69925021259334



  Irrep: 2 Size: 0 x 0

	(empty)

  Irrep: 3 Size: 1 x 1

                 1

    1    -0.13775870769023



  Irrep: 4 Size: 2 x 2

                 1                   2

    1    -0.22280400907457     0.37359768403163
    2     0.37359768403163    -0.14099018450425



  ## F (Symmetry 0) ##
  Irrep: 1 Size: 4 x 4

                 1                   2                   3                   4

    1   -18.80904473540381    -4.83774149902484    -0.02186241753389    -1.42550936877543
    2    -4.83774149902484    -2.03519942796055    -0.14778841098145    -1.07302725753886
    3    -0.02186241753389    -0.14778841098145    -0.18808400742182    -0.35485790441646
    4    -1.42550936877543    -1.07302725753886    -0.35485790441646    -0.69925021259334



  Irrep: 2 Size: 0 x 0

	(empty)

  Irrep: 3 Size: 1 x 1

                 1

    1    -0.13775870769023



  Irrep: 4 Size: 2 x 2

                 1                   2

    1    -0.22280400907457     0.37359768403163
    2     0.37359768403163    -0.14099018450425



DIIS coefficients:  -0.000  0.000  -0.000  -0.000  0.009  -0.222  1.213 
  After DIIS:
  ## F (Symmetry 0) ##
  Irrep: 1 Size: 4 x 4

                 1                   2                   3                   4

    1   -18.80904882554909    -4.83774236445275    -0.02186241315504    -1.42550961922999
    2    -4.83774236445275    -2.03520146648613    -0.14778809743421    -1.07302798604062
    3    -0.02186241315504    -0.14778809743421    -0.18808591777598    -0.35485805287225
    4    -1.42550961922999    -1.07302798604062    -0.35485805287225    -0.69925048445833



  Irrep: 2 Size: 0 x 0

	(empty)

  Irrep: 3 Size: 1 x 1

                 1

    1    -0.13776080607028



  Irrep: 4 Size: 2 x 2

                 1                   2

    1    -0.22280584429020     0.37359801830006
    2     0.37359801830006    -0.14099021427578



  ## F (Symmetry 0) ##
  Irrep: 1 Size: 4 x 4

                 1                   2                   3                   4

    1   -18.80904882554909    -4.83774236445275    -0.02186241315504    -1.42550961922999
    2    -4.83774236445275    -2.03520146648613    -0.14778809743421    -1.07302798604062
    3    -0.02186241315504    -0.14778809743421    -0.18808591777598    -0.35485805287225
    4    -1.42550961922999    -1.07302798604062    -0.35485805287225    -0.69925048445833



  Irrep: 2 Size: 0 x 0

	(empty)

  Irrep: 3 Size: 1 x 1

                 1

    1    -0.13776080607028



  Irrep: 4 Size: 2 x 2

                 1                   2

    1    -0.22280584429020     0.37359801830006
    2     0.37359801830006    -0.14099021427578



    Occupation by irrep:
             A1    A2    B1    B2 
    DOCC [     3,    0,    1,    1 ]

  ## C (Symmetry 0) ##
  Irrep: 1 Size: 4 x 4

                 1                   2                   3                   4

    1    -0.99356689618900    -0.22933956232256     0.12075654002317    -0.12346033857277
    2    -0.02873451981889     0.81668872692496    -0.59545676046043     0.79578871700760
    3    -0.00429864168909     0.17749776049385     0.74477059882187     0.75094501637593
    4     0.00931895570767     0.23920208743536     0.41742605773923    -1.08100064923860



  Irrep: 2 Size: 0 x 0

	(empty)

  Irrep: 3 Size: 1 x 1

                 1

    1     1.00000000000000



  Irrep: 4 Size: 2 x 2

                 1                   2

    1    -0.60707077233421     0.96597930063811
    2     0.63112086193089     1.13502633040607



  ## C (Symmetry 0) ##
  Irrep: 1 Size: 4 x 4

                 1                   2                   3                   4

    1    -0.99356689618900    -0.22933956232256     0.12075654002317    -0.12346033857277
    2    -0.02873451981889     0.81668872692496    -0.59545676046043     0.79578871700760
    3    -0.00429864168909     0.17749776049385     0.74477059882187     0.75094501637593
    4     0.00931895570767     0.23920208743536     0.41742605773923    -1.08100064923860



  Irrep: 2 Size: 0 x 0

	(empty)

  Irrep: 3 Size: 1 x 1

                 1

    1     1.00000000000000



  Irrep: 4 Size: 2 x 2

                 1                   2

    1    -0.60707077233421     0.96597930063811
    2     0.63112086193089     1.13502633040607



  ## SCF density (Symmetry 0) ##
  Irrep: 1 Size: 4 x 4

                 1                   2                   3                   4

    1     1.05435395400731    -0.23065466564341     0.05349965000067    -0.01371058148916
    2    -0.23065466564341     1.02237490289356    -0.29839474860607    -0.05347329552527
    3     0.05349965000067    -0.29839474860607     0.58620717817019     0.35330443096003
    4    -0.01371058148916    -0.05347329552527     0.35330443096003     0.23154899524863



  Irrep: 2 Size: 0 x 0

	(empty)

  Irrep: 3 Size: 1 x 1

                 1

    1     1.00000000000000



  Irrep: 4 Size: 2 x 2

                 1                   2

    1     0.36853492262246    -0.38313502908862
    2    -0.38313502908862     0.39831354236439



  ## SCF density (Symmetry 0) ##
  Irrep: 1 Size: 4 x 4

                 1                   2                   3                   4

    1     1.05435395400731    -0.23065466564341     0.05349965000067    -0.01371058148916
    2    -0.23065466564341     1.02237490289356    -0.29839474860607    -0.05347329552527
    3     0.05349965000067    -0.29839474860607     0.58620717817019     0.35330443096003
    4    -0.01371058148916    -0.05347329552527     0.35330443096003     0.23154899524863



  Irrep: 2 Size: 0 x 0

	(empty)

  Irrep: 3 Size: 1 x 1

                 1

    1     1.00000000000000



  Irrep: 4 Size: 2 x 2

                 1                   2

    1     0.36853492262246    -0.38313502908862
    2    -0.38313502908862     0.39831354236439



   @DF-RKS iter   7:   -75.30850418507863   -4.17927e-10   9.33298e-07 DIIS

  DF guess converged.

  ==> Integral Setup <==

  ==> DirectJK: Integral-Direct J/K Matrices <==

    J tasked:                  Yes
    K tasked:                  Yes
    wK tasked:                  No
    Integrals threads:           1
    Schwarz Cutoff:          1E-12

  ## F (Symmetry 0) ##
  Irrep: 1 Size: 4 x 4

                 1                   2                   3                   4

    1   -18.80870272464865    -4.83771124046904    -0.02185863845893    -1.42549888369211
    2    -4.83771124046904    -2.03520331701799    -0.14778854442604    -1.07302350242920
    3    -0.02185863845893    -0.14778854442604    -0.18809193964179    -0.35485306625672
    4    -1.42549888369211    -1.07302350242920    -0.35485306625672    -0.69922004618588



  Irrep: 2 Size: 0 x 0

	(empty)

  Irrep: 3 Size: 1 x 1

                 1

    1    -0.13775502947130



  Irrep: 4 Size: 2 x 2

                 1                   2

    1    -0.22281914001136     0.37359154147760
    2     0.37359154147760    -0.14096160003117



  ## F (Symmetry 0) ##
  Irrep: 1 Size: 4 x 4

                 1                   2                   3                   4

    1   -18.80870272464865    -4.83771124046904    -0.02185863845893    -1.42549888369211
    2    -4.83771124046904    -2.03520331701799    -0.14778854442604    -1.07302350242920
    3    -0.02185863845893    -0.14778854442604    -0.18809193964179    -0.35485306625672
    4    -1.42549888369211    -1.07302350242920    -0.35485306625672    -0.69922004618588



  Irrep: 2 Size: 0 x 0

	(empty)

  Irrep: 3 Size: 1 x 1

                 1

    1    -0.13775502947130



  Irrep: 4 Size: 2 x 2

                 1                   2

    1    -0.22281914001136     0.37359154147760
    2     0.37359154147760    -0.14096160003117



DIIS coefficients:  1.000 
  After DIIS:
  ## F (Symmetry 0) ##
  Irrep: 1 Size: 4 x 4

                 1                   2                   3                   4

    1   -18.80870272464865    -4.83771124046904    -0.02185863845893    -1.42549888369211
    2    -4.83771124046904    -2.03520331701799    -0.14778854442604    -1.07302350242920
    3    -0.02185863845893    -0.14778854442604    -0.18809193964179    -0.35485306625672
    4    -1.42549888369211    -1.07302350242920    -0.35485306625672    -0.69922004618588



  Irrep: 2 Size: 0 x 0

	(empty)

  Irrep: 3 Size: 1 x 1

                 1

    1    -0.13775502947130



  Irrep: 4 Size: 2 x 2

                 1                   2

    1    -0.22281914001136     0.37359154147760
    2     0.37359154147760    -0.14096160003117



  ## F (Symmetry 0) ##
  Irrep: 1 Size: 4 x 4

                 1                   2                   3                   4

    1   -18.80870272464865    -4.83771124046904    -0.02185863845893    -1.42549888369211
    2    -4.83771124046904    -2.03520331701799    -0.14778854442604    -1.07302350242920
    3    -0.02185863845893    -0.14778854442604    -0.18809193964179    -0.35485306625672
    4    -1.42549888369211    -1.07302350242920    -0.35485306625672    -0.69922004618588



  Irrep: 2 Size: 0 x 0

	(empty)

  Irrep: 3 Size: 1 x 1

                 1

    1    -0.13775502947130



  Irrep: 4 Size: 2 x 2

                 1                   2

    1    -0.22281914001136     0.37359154147760
    2     0.37359154147760    -0.14096160003117



    Occupation by irrep:
             A1    A2    B1    B2 
    DOCC [     3,    0,    1,    1 ]

  ## C (Symmetry 0) ##
  Irrep: 1 Size: 4 x 4

                 1                   2                   3                   4

    1    -0.99356587730884    -0.22934372193001     0.12075402512544    -0.12346327098626
    2    -0.02873891459465     0.81669691453297    -0.59543150076177     0.79579905597519
    3    -0.00429897249877     0.17750265058552     0.74479308055894     0.75092156102494
    4     0.00932046639237     0.23919175015961     0.41739478717792    -1.08101499809272



  Irrep: 2 Size: 0 x 0

	(empty)

  Irrep: 3 Size: 1 x 1

                 1

    1     1.00000000000000



  Irrep: 4 Size: 2 x 2

                 1                   2

    1    -0.60710334880540     0.96595882715208
    2     0.63108258379073     1.13504761376582



  ## C (Symmetry 0) ##
  Irrep: 1 Size: 4 x 4

                 1                   2                   3                   4

    1    -0.99356587730884    -0.22934372193001     0.12075402512544    -0.12346327098626
    2    -0.02873891459465     0.81669691453297    -0.59543150076177     0.79579905597519
    3    -0.00429897249877     0.17750265058552     0.74479308055894     0.75092156102494
    4     0.00932046639237     0.23919175015961     0.41739478717792    -1.08101499809272



  Irrep: 2 Size: 0 x 0

	(empty)

  Irrep: 3 Size: 1 x 1

                 1

    1     1.00000000000000



  Irrep: 4 Size: 2 x 2

                 1                   2

    1    -0.60710334880540     0.96595882715208
    2     0.63108258379073     1.13504761376582



  ## SCF density (Symmetry 0) ##
  Irrep: 1 Size: 4 x 4

                 1                   2                   3                   4

    1     1.05435322992519    -0.23065105557908     0.05349895620761    -0.01371552298651
    2    -0.23065105557908     1.02235844751916    -0.29838384685608    -0.05345070029003
    3     0.05349895620761    -0.29838384685608     0.58624240497790     0.35328985057431
    4    -0.01371552298651    -0.05345070029003     0.35328985057431     0.23151797280149



  Irrep: 2 Size: 0 x 0

	(empty)

  Irrep: 3 Size: 1 x 1

                 1

    1     1.00000000000000



  Irrep: 4 Size: 2 x 2

                 1                   2

    1     0.36857447613073    -0.38313234999212
    2    -0.38313234999212     0.39826522756398



  ## SCF density (Symmetry 0) ##
  Irrep: 1 Size: 4 x 4

                 1                   2                   3                   4

    1     1.05435322992519    -0.23065105557908     0.05349895620761    -0.01371552298651
    2    -0.23065105557908     1.02235844751916    -0.29838384685608    -0.05345070029003
    3     0.05349895620761    -0.29838384685608     0.58624240497790     0.35328985057431
    4    -0.01371552298651    -0.05345070029003     0.35328985057431     0.23151797280149



  Irrep: 2 Size: 0 x 0

	(empty)

  Irrep: 3 Size: 1 x 1

                 1

    1     1.00000000000000



  Irrep: 4 Size: 2 x 2

                 1                   2

    1     0.36857447613073    -0.38313234999212
    2    -0.38313234999212     0.39826522756398



   @RKS iter   8:   -75.30813136377101    3.72821e-04   1.35209e-05 DIIS
  ## F (Symmetry 0) ##
  Irrep: 1 Size: 4 x 4

                 1                   2                   3                   4

    1   -18.80861934124588    -4.83769357828987    -0.02185887772764    -1.42549371485883
    2    -4.83769357828987    -2.03516146379292    -0.14779501385384    -1.07300845037385
    3    -0.02185887772764    -0.14779501385384    -0.18805241065939    -0.35485014695741
    4    -1.42549371485883    -1.07300845037385    -0.35485014695741    -0.69921459218183



  Irrep: 2 Size: 0 x 0

	(empty)

  Irrep: 3 Size: 1 x 1

                 1

    1    -0.13771182844448



  Irrep: 4 Size: 2 x 2

                 1                   2

    1    -0.22278159394716     0.37358462255535
    2     0.37358462255535    -0.14096083476935



  ## F (Symmetry 0) ##
  Irrep: 1 Size: 4 x 4

                 1                   2                   3                   4

    1   -18.80861934124588    -4.83769357828987    -0.02185887772764    -1.42549371485883
    2    -4.83769357828987    -2.03516146379292    -0.14779501385384    -1.07300845037385
    3    -0.02185887772764    -0.14779501385384    -0.18805241065939    -0.35485014695741
    4    -1.42549371485883    -1.07300845037385    -0.35485014695741    -0.69921459218183



  Irrep: 2 Size: 0 x 0

	(empty)

  Irrep: 3 Size: 1 x 1

                 1

    1    -0.13771182844448



  Irrep: 4 Size: 2 x 2

                 1                   2

    1    -0.22278159394716     0.37358462255535
    2     0.37358462255535    -0.14096083476935



DIIS coefficients:  0.379  0.621 
  After DIIS:
  ## F (Symmetry 0) ##
  Irrep: 1 Size: 4 x 4

                 1                   2                   3                   4

    1   -18.80865092571690    -4.83770026847722    -0.02185878709599    -1.42549567274085
    2    -4.83770026847722    -2.03517731721135    -0.14779256332474    -1.07301415188267
    3    -0.02185878709599    -0.14779256332474    -0.18806738368709    -0.35485125274731
    4    -1.42549567274085    -1.07301415188267    -0.35485125274731    -0.69921665808256



  Irrep: 2 Size: 0 x 0

	(empty)

  Irrep: 3 Size: 1 x 1

                 1

    1    -0.13772819239143



  Irrep: 4 Size: 2 x 2

                 1                   2

    1    -0.22279581587308     0.37358724334669
    2     0.37358724334669    -0.14096112463987



  ## F (Symmetry 0) ##
  Irrep: 1 Size: 4 x 4

                 1                   2                   3                   4

    1   -18.80865092571690    -4.83770026847722    -0.02185878709599    -1.42549567274085
    2    -4.83770026847722    -2.03517731721135    -0.14779256332474    -1.07301415188267
    3    -0.02185878709599    -0.14779256332474    -0.18806738368709    -0.35485125274731
    4    -1.42549567274085    -1.07301415188267    -0.35485125274731    -0.69921665808256



  Irrep: 2 Size: 0 x 0

	(empty)

  Irrep: 3 Size: 1 x 1

                 1

    1    -0.13772819239143



  Irrep: 4 Size: 2 x 2

                 1                   2

    1    -0.22279581587308     0.37358724334669
    2     0.37358724334669    -0.14096112463987



    Occupation by irrep:
             A1    A2    B1    B2 
    DOCC [     3,    0,    1,    1 ]

  ## C (Symmetry 0) ##
  Irrep: 1 Size: 4 x 4

                 1                   2                   3                   4

    1    -0.99356584500926    -0.22934155042189     0.12075847964734    -0.12346320780781
    2    -0.02873905514064     0.81668441291475    -0.59545242613345     0.79579622368648
    3    -0.00429900272102     0.17750577139406     0.74478010486277     0.75093369273727
    4     0.00932051873758     0.23920426125835     0.41740781915612    -1.08100719735650



  Irrep: 2 Size: 0 x 0

	(empty)

  Irrep: 3 Size: 1 x 1

                 1

    1     1.00000000000000



  Irrep: 4 Size: 2 x 2

                 1                   2

    1    -0.60708865319938     0.96596806315754
    2     0.63109985167192     1.13503801271109



  ## C (Symmetry 0) ##
  Irrep: 1 Size: 4 x 4

                 1                   2                   3                   4

    1    -0.99356584500926    -0.22934155042189     0.12075847964734    -0.12346320780781
    2    -0.02873905514064     0.81668441291475    -0.59545242613345     0.79579622368648
    3    -0.00429900272102     0.17750577139406     0.74478010486277     0.75093369273727
    4     0.00932051873758     0.23920426125835     0.41740781915612    -1.08100719735650



  Irrep: 2 Size: 0 x 0

	(empty)

  Irrep: 3 Size: 1 x 1

                 1

    1     1.00000000000000



  Irrep: 4 Size: 2 x 2

                 1                   2

    1    -0.60708865319938     0.96596806315754
    2     0.63109985167192     1.13503801271109



  ## SCF density (Symmetry 0) ##
  Irrep: 1 Size: 4 x 4

                 1                   2                   3                   4

    1     1.05435324552562    -0.23065145553988     0.05350040658567    -0.01371449158574
    2    -0.23065145553988     1.02236295537651    -0.29839137440028    -0.05345996983304
    3     0.05350040658567    -0.29839137440028     0.58622418490200     0.35329710730163
    4    -0.01371449158574    -0.05345996983304     0.35329710730163     0.23153483816636



  Irrep: 2 Size: 0 x 0

	(empty)

  Irrep: 3 Size: 1 x 1

                 1

    1     1.00000000000000



  Irrep: 4 Size: 2 x 2

                 1                   2

    1     0.36855663284344    -0.38313355898583
    2    -0.38313355898583     0.39828702278032



  ## SCF density (Symmetry 0) ##
  Irrep: 1 Size: 4 x 4

                 1                   2                   3                   4

    1     1.05435324552562    -0.23065145553988     0.05350040658567    -0.01371449158574
    2    -0.23065145553988     1.02236295537651    -0.29839137440028    -0.05345996983304
    3     0.05350040658567    -0.29839137440028     0.58622418490200     0.35329710730163
    4    -0.01371449158574    -0.05345996983304     0.35329710730163     0.23153483816636



  Irrep: 2 Size: 0 x 0

	(empty)

  Irrep: 3 Size: 1 x 1

                 1

    1     1.00000000000000



  Irrep: 4 Size: 2 x 2

                 1                   2

    1     0.36855663284344    -0.38313355898583
    2    -0.38313355898583     0.39828702278032



   @RKS iter   9:   -75.30813136451378   -7.42773e-10   8.78839e-06 DIIS
  ## F (Symmetry 0) ##
  Irrep: 1 Size: 4 x 4

                 1                   2                   3                   4

    1   -18.80866247036242    -4.83770269688578    -0.02185899053957    -1.42549636117239
    2    -4.83770269688578    -2.03518265430655    -0.14779236962218    -1.07301635331709
    3    -0.02185899053957    -0.14779236962218    -0.18807248787586    -0.35485200294830
    4    -1.42549636117239    -1.07301635331709    -0.35485200294830    -0.69921800660864



  Irrep: 2 Size: 0 x 0

	(empty)

  Irrep: 3 Size: 1 x 1

                 1

    1    -0.13773380911407



  Irrep: 4 Size: 2 x 2

                 1                   2

    1    -0.22280081945528     0.37358826730334
    2     0.37358826730334    -0.14096143407922



  ## F (Symmetry 0) ##
  Irrep: 1 Size: 4 x 4

                 1                   2                   3                   4

    1   -18.80866247036242    -4.83770269688578    -0.02185899053957    -1.42549636117239
    2    -4.83770269688578    -2.03518265430655    -0.14779236962218    -1.07301635331709
    3    -0.02185899053957    -0.14779236962218    -0.18807248787586    -0.35485200294830
    4    -1.42549636117239    -1.07301635331709    -0.35485200294830    -0.69921800660864



  Irrep: 2 Size: 0 x 0

	(empty)

  Irrep: 3 Size: 1 x 1

                 1

    1    -0.13773380911407



  Irrep: 4 Size: 2 x 2

                 1                   2

    1    -0.22280081945528     0.37358826730334
    2     0.37358826730334    -0.14096143407922



DIIS coefficients:  -0.005  0.108  0.897 
  After DIIS:
  ## F (Symmetry 0) ##
  Irrep: 1 Size: 4 x 4

                 1                   2                   3                   4

    1   -18.80865763412352    -4.83770167423124    -0.02185897998416    -1.42549606418986
    2    -4.83770167423124    -2.03518027407863    -0.14779267234603    -1.07301546816854
    3    -0.02185897998416    -0.14779267234603    -0.18807023327343    -0.35485179789236
    4    -1.42549606418986    -1.07301546816854    -0.35485179789236    -0.69921762898952



  Irrep: 2 Size: 0 x 0

	(empty)

  Irrep: 3 Size: 1 x 1

                 1

    1    -0.13773134110645



  Irrep: 4 Size: 2 x 2

                 1                   2

    1    -0.22279866189832     0.37358785918779
    2     0.37358785918779    -0.14096136867793



  ## F (Symmetry 0) ##
  Irrep: 1 Size: 4 x 4

                 1                   2                   3                   4

    1   -18.80865763412352    -4.83770167423124    -0.02185897998416    -1.42549606418986
    2    -4.83770167423124    -2.03518027407863    -0.14779267234603    -1.07301546816854
    3    -0.02185897998416    -0.14779267234603    -0.18807023327343    -0.35485179789236
    4    -1.42549606418986    -1.07301546816854    -0.35485179789236    -0.69921762898952



  Irrep: 2 Size: 0 x 0

	(empty)

  Irrep: 3 Size: 1 x 1

                 1

    1    -0.13773134110645



  Irrep: 4 Size: 2 x 2

                 1                   2

    1    -0.22279866189832     0.37358785918779
    2     0.37358785918779    -0.14096136867793



    Occupation by irrep:
             A1    A2    B1    B2 
    DOCC [     3,    0,    1,    1 ]

  ## C (Symmetry 0) ##
  Irrep: 1 Size: 4 x 4

                 1                   2                   3                   4

    1    -0.99356584900936    -0.22934171890767     0.12075813347727    -0.12346320122886
    2    -0.02873903932272     0.81668545845161    -0.59545069165805     0.79579644909148
    3    -0.00429901270693     0.17750595414703     0.74478137710116     0.75093238766578
    4     0.00932051782451     0.23920308207643     0.41740629200180    -1.08100804796858



  Irrep: 2 Size: 0 x 0

	(empty)

  Irrep: 3 Size: 1 x 1

                 1

    1     1.00000000000000



  Irrep: 4 Size: 2 x 2

                 1                   2

    1    -0.60709028747592     0.96596703605049
    2     0.63109793135185     1.13503908043859



  ## C (Symmetry 0) ##
  Irrep: 1 Size: 4 x 4

                 1                   2                   3                   4

    1    -0.99356584900936    -0.22934171890767     0.12075813347727    -0.12346320122886
    2    -0.02873903932272     0.81668545845161    -0.59545069165805     0.79579644909148
    3    -0.00429901270693     0.17750595414703     0.74478137710116     0.75093238766578
    4     0.00932051782451     0.23920308207643     0.41740629200180    -1.08100804796858



  Irrep: 2 Size: 0 x 0

	(empty)

  Irrep: 3 Size: 1 x 1

                 1

    1     1.00000000000000



  Irrep: 4 Size: 2 x 2

                 1                   2

[...]
    2     0.37358724334669    -0.14096112463987



    Occupation by irrep:
             A1    A2    B1    B2 
    DOCC [     3,    0,    1,    1 ]

  ## C (Symmetry 0) ##
  Irrep: 1 Size: 4 x 4

                 1                   2                   3                   4

    1    -0.99356584500926    -0.22934155042189     0.12075847964734    -0.12346320780781
    2    -0.02873905514064     0.81668441291475    -0.59545242613345     0.79579622368648
    3    -0.00429900272102     0.17750577139406     0.74478010486277     0.75093369273727
    4     0.00932051873758     0.23920426125835     0.41740781915612    -1.08100719735650



  Irrep: 2 Size: 0 x 0

	(empty)

  Irrep: 3 Size: 1 x 1

                 1

    1     1.00000000000000



  Irrep: 4 Size: 2 x 2

                 1                   2

    1    -0.60708865319938     0.96596806315754
    2     0.63109985167192     1.13503801271109



  ## C (Symmetry 0) ##
  Irrep: 1 Size: 4 x 4

                 1                   2                   3                   4

    1    -0.99356584500926    -0.22934155042189     0.12075847964734    -0.12346320780781
    2    -0.02873905514064     0.81668441291475    -0.59545242613345     0.79579622368648
    3    -0.00429900272102     0.17750577139406     0.74478010486277     0.75093369273727
    4     0.00932051873758     0.23920426125835     0.41740781915612    -1.08100719735650



  Irrep: 2 Size: 0 x 0

	(empty)

  Irrep: 3 Size: 1 x 1

                 1

    1     1.00000000000000



  Irrep: 4 Size: 2 x 2

                 1                   2

    1    -0.60708865319938     0.96596806315754
    2     0.63109985167192     1.13503801271109



  ## SCF density (Symmetry 0) ##
  Irrep: 1 Size: 4 x 4

                 1                   2                   3                   4

    1     1.05435324552562    -0.23065145553988     0.05350040658567    -0.01371449158574
    2    -0.23065145553988     1.02236295537651    -0.29839137440028    -0.05345996983304
    3     0.05350040658567    -0.29839137440028     0.58622418490200     0.35329710730163
    4    -0.01371449158574    -0.05345996983304     0.35329710730163     0.23153483816636



  Irrep: 2 Size: 0 x 0

	(empty)

  Irrep: 3 Size: 1 x 1

                 1

    1     1.00000000000000



  Irrep: 4 Size: 2 x 2

                 1                   2

    1     0.36855663284344    -0.38313355898583
    2    -0.38313355898583     0.39828702278032



  ## SCF density (Symmetry 0) ##
  Irrep: 1 Size: 4 x 4

                 1                   2                   3                   4

    1     1.05435324552562    -0.23065145553988     0.05350040658567    -0.01371449158574
    2    -0.23065145553988     1.02236295537651    -0.29839137440028    -0.05345996983304
    3     0.05350040658567    -0.29839137440028     0.58622418490200     0.35329710730163
    4    -0.01371449158574    -0.05345996983304     0.35329710730163     0.23153483816636



  Irrep: 2 Size: 0 x 0

	(empty)

  Irrep: 3 Size: 1 x 1

                 1

    1     1.00000000000000



  Irrep: 4 Size: 2 x 2

                 1                   2

    1     0.36855663284344    -0.38313355898583
    2    -0.38313355898583     0.39828702278032



   @RKS iter   9:   -75.30813136451378   -7.42773e-10   8.78839e-06 DIIS
  ## F (Symmetry 0) ##
  Irrep: 1 Size: 4 x 4

                 1                   2                   3                   4

    1   -18.80866247036242    -4.83770269688578    -0.02185899053957    -1.42549636117239
    2    -4.83770269688578    -2.03518265430655    -0.14779236962218    -1.07301635331709
    3    -0.02185899053957    -0.14779236962218    -0.18807248787586    -0.35485200294830
    4    -1.42549636117239    -1.07301635331709    -0.35485200294830    -0.69921800660864



  Irrep: 2 Size: 0 x 0

	(empty)

  Irrep: 3 Size: 1 x 1

                 1

    1    -0.13773380911407



  Irrep: 4 Size: 2 x 2

                 1                   2

    1    -0.22280081945528     0.37358826730334
    2     0.37358826730334    -0.14096143407922



  ## F (Symmetry 0) ##
  Irrep: 1 Size: 4 x 4

                 1                   2                   3                   4

    1   -18.80866247036242    -4.83770269688578    -0.02185899053957    -1.42549636117239
    2    -4.83770269688578    -2.03518265430655    -0.14779236962218    -1.07301635331709
    3    -0.02185899053957    -0.14779236962218    -0.18807248787586    -0.35485200294830
    4    -1.42549636117239    -1.07301635331709    -0.35485200294830    -0.69921800660864



  Irrep: 2 Size: 0 x 0

	(empty)

  Irrep: 3 Size: 1 x 1

                 1

    1    -0.13773380911407



  Irrep: 4 Size: 2 x 2

                 1                   2

    1    -0.22280081945528     0.37358826730334
    2     0.37358826730334    -0.14096143407922



DIIS coefficients:  -0.005  0.108  0.897 
  After DIIS:
  ## F (Symmetry 0) ##
  Irrep: 1 Size: 4 x 4

                 1                   2                   3                   4

    1   -18.80865763412352    -4.83770167423124    -0.02185897998416    -1.42549606418986
    2    -4.83770167423124    -2.03518027407863    -0.14779267234603    -1.07301546816854
    3    -0.02185897998416    -0.14779267234603    -0.18807023327343    -0.35485179789236
    4    -1.42549606418986    -1.07301546816854    -0.35485179789236    -0.69921762898952



  Irrep: 2 Size: 0 x 0

	(empty)

  Irrep: 3 Size: 1 x 1

                 1

    1    -0.13773134110645



  Irrep: 4 Size: 2 x 2

                 1                   2

    1    -0.22279866189832     0.37358785918779
    2     0.37358785918779    -0.14096136867793



  ## F (Symmetry 0) ##
  Irrep: 1 Size: 4 x 4

                 1                   2                   3                   4

    1   -18.80865763412352    -4.83770167423124    -0.02185897998416    -1.42549606418986
    2    -4.83770167423124    -2.03518027407863    -0.14779267234603    -1.07301546816854
    3    -0.02185897998416    -0.14779267234603    -0.18807023327343    -0.35485179789236
    4    -1.42549606418986    -1.07301546816854    -0.35485179789236    -0.69921762898952



  Irrep: 2 Size: 0 x 0

	(empty)

  Irrep: 3 Size: 1 x 1

                 1

    1    -0.13773134110645



  Irrep: 4 Size: 2 x 2

                 1                   2

    1    -0.22279866189832     0.37358785918779
    2     0.37358785918779    -0.14096136867793



    Occupation by irrep:
             A1    A2    B1    B2 
    DOCC [     3,    0,    1,    1 ]

  ## C (Symmetry 0) ##
  Irrep: 1 Size: 4 x 4

                 1                   2                   3                   4

    1    -0.99356584900936    -0.22934171890767     0.12075813347727    -0.12346320122886
    2    -0.02873903932272     0.81668545845161    -0.59545069165805     0.79579644909148
    3    -0.00429901270693     0.17750595414703     0.74478137710116     0.75093238766578
    4     0.00932051782451     0.23920308207643     0.41740629200180    -1.08100804796858



  Irrep: 2 Size: 0 x 0

	(empty)

  Irrep: 3 Size: 1 x 1

                 1

    1     1.00000000000000



  Irrep: 4 Size: 2 x 2

                 1                   2

    1    -0.60709028747592     0.96596703605049
    2     0.63109793135185     1.13503908043859



  ## C (Symmetry 0) ##
  Irrep: 1 Size: 4 x 4

                 1                   2                   3                   4

    1    -0.99356584900936    -0.22934171890767     0.12075813347727    -0.12346320122886
    2    -0.02873903932272     0.81668545845161    -0.59545069165805     0.79579644909148
    3    -0.00429901270693     0.17750595414703     0.74478137710116     0.75093238766578
    4     0.00932051782451     0.23920308207643     0.41740629200180    -1.08100804796858



  Irrep: 2 Size: 0 x 0

	(empty)

  Irrep: 3 Size: 1 x 1

                 1

    1     1.00000000000000



  Irrep: 4 Size: 2 x 2

                 1                   2

    1    -0.60709028747592     0.96596703605049
    2     0.63109793135185     1.13503908043859



  ## SCF density (Symmetry 0) ##
  Irrep: 1 Size: 4 x 4

                 1                   2                   3                   4

    1     1.05435324715014    -0.23065143294617     0.05350024051701    -0.01371458949313
    2    -0.23065143294617     1.02236259662355    -0.29839050509323    -0.05345904925454
    3     0.05350024051701    -0.29839050509323     0.58622614494461     0.35329633526212
    4    -0.01371458949313    -0.05345904925454     0.35329633526212     0.23153299913007



  Irrep: 2 Size: 0 x 0

	(empty)

  Irrep: 3 Size: 1 x 1

                 1

    1     1.00000000000000



  Irrep: 4 Size: 2 x 2

                 1                   2

    1     0.36855861714759    -0.38313342456985
    2    -0.38313342456985     0.39828459895659



  ## SCF density (Symmetry 0) ##
  Irrep: 1 Size: 4 x 4

                 1                   2                   3                   4

    1     1.05435324715014    -0.23065143294617     0.05350024051701    -0.01371458949313
    2    -0.23065143294617     1.02236259662355    -0.29839050509323    -0.05345904925454
    3     0.05350024051701    -0.29839050509323     0.58622614494461     0.35329633526212
    4    -0.01371458949313    -0.05345904925454     0.35329633526212     0.23153299913007



  Irrep: 2 Size: 0 x 0

	(empty)

  Irrep: 3 Size: 1 x 1

                 1

    1     1.00000000000000



  Irrep: 4 Size: 2 x 2

                 1                   2

    1     0.36855861714759    -0.38313342456985
    2    -0.38313342456985     0.39828459895659



   @RKS iter  10:   -75.30813136557897   -1.06519e-09   1.10957e-06 DIIS
  ## F (Symmetry 0) ##
  Irrep: 1 Size: 4 x 4

                 1                   2                   3                   4

    1   -18.80865767442855    -4.83770168294206    -0.02185897502475    -1.42549606647073
    2    -4.83770168294206    -2.03518030300420    -0.14779264894117    -1.07301546858744
    3    -0.02185897502475    -0.14779264894117    -0.18807025448204    -0.35485179007825
    4    -1.42549606647073    -1.07301546858744    -0.35485179007825    -0.69921761442981



  Irrep: 2 Size: 0 x 0

	(empty)

  Irrep: 3 Size: 1 x 1

                 1

    1    -0.13773136595101



  Irrep: 4 Size: 2 x 2

                 1                   2

    1    -0.22279868302861     0.37358785887504
    2     0.37358785887504    -0.14096136060089



  ## F (Symmetry 0) ##
  Irrep: 1 Size: 4 x 4

                 1                   2                   3                   4

    1   -18.80865767442855    -4.83770168294206    -0.02185897502475    -1.42549606647073
    2    -4.83770168294206    -2.03518030300420    -0.14779264894117    -1.07301546858744
    3    -0.02185897502475    -0.14779264894117    -0.18807025448204    -0.35485179007825
    4    -1.42549606647073    -1.07301546858744    -0.35485179007825    -0.69921761442981



  Irrep: 2 Size: 0 x 0

	(empty)

  Irrep: 3 Size: 1 x 1

                 1

    1    -0.13773136595101



  Irrep: 4 Size: 2 x 2

                 1                   2

    1    -0.22279868302861     0.37358785887504
    2     0.37358785887504    -0.14096136060089



DIIS coefficients:  -0.000  0.003  0.019  0.978 
  After DIIS:
  ## F (Symmetry 0) ##
  Irrep: 1 Size: 4 x 4

                 1                   2                   3                   4

    1   -18.80865764709895    -4.83770167716207    -0.02185897503108    -1.42549606480167
    2    -4.83770167716207    -2.03518028944050    -0.14779265097553    -1.07301546371465
    3    -0.02185897503108    -0.14779265097553    -0.18807024175643    -0.35485178906235
    4    -1.42549606480167    -1.07301546371465    -0.35485178906235    -0.69921761257069



  Irrep: 2 Size: 0 x 0

	(empty)

  Irrep: 3 Size: 1 x 1

                 1

    1    -0.13773135197845



  Irrep: 4 Size: 2 x 2

                 1                   2

    1    -0.22279867080372     0.37358785663713
    2     0.37358785663713    -0.14096136038077



  ## F (Symmetry 0) ##
  Irrep: 1 Size: 4 x 4

                 1                   2                   3                   4

    1   -18.80865764709895    -4.83770167716207    -0.02185897503108    -1.42549606480167
    2    -4.83770167716207    -2.03518028944050    -0.14779265097553    -1.07301546371465
    3    -0.02185897503108    -0.14779265097553    -0.18807024175643    -0.35485178906235
    4    -1.42549606480167    -1.07301546371465    -0.35485178906235    -0.69921761257069



  Irrep: 2 Size: 0 x 0

	(empty)

  Irrep: 3 Size: 1 x 1

                 1

    1    -0.13773135197845



  Irrep: 4 Size: 2 x 2

                 1                   2

    1    -0.22279867080372     0.37358785663713
    2     0.37358785663713    -0.14096136038077



    Occupation by irrep:
             A1    A2    B1    B2 
    DOCC [     3,    0,    1,    1 ]

  ## C (Symmetry 0) ##
  Irrep: 1 Size: 4 x 4

                 1                   2                   3                   4

    1    -0.99356584901987    -0.22934172282493     0.12075812628901    -0.12346320089845
    2    -0.02873903925409     0.81668547853092    -0.59545066399257     0.79579644918813
    3    -0.00429901238386     0.17750593335969     0.74478138516557     0.75093238458300
    4     0.00932051772527     0.23920306670591     0.41740629543587    -1.08100805004460



  Irrep: 2 Size: 0 x 0

	(empty)

  Irrep: 3 Size: 1 x 1

                 1

    1     1.00000000000000



  Irrep: 4 Size: 2 x 2

                 1                   2

    1    -0.60709030033125     0.96596702797118
    2     0.63109791624647     1.13503908883740



  ## C (Symmetry 0) ##
  Irrep: 1 Size: 4 x 4

                 1                   2                   3                   4

    1    -0.99356584901987    -0.22934172282493     0.12075812628901    -0.12346320089845
    2    -0.02873903925409     0.81668547853092    -0.59545066399257     0.79579644918813
    3    -0.00429901238386     0.17750593335969     0.74478138516557     0.75093238458300
    4     0.00932051772527     0.23920306670591     0.41740629543587    -1.08100805004460



  Irrep: 2 Size: 0 x 0

	(empty)

  Irrep: 3 Size: 1 x 1

                 1

    1     1.00000000000000



  Irrep: 4 Size: 2 x 2

                 1                   2

    1    -0.60709030033125     0.96596702797118
    2     0.63109791624647     1.13503908883740



  ## SCF density (Symmetry 0) ##
  Irrep: 1 Size: 4 x 4

                 1                   2                   3                   4

    1     1.05435324723172    -0.23065143319717     0.05350023988829    -0.01371458939228
    2    -0.23065143319717     1.02236259646972    -0.29839050271255    -0.05345904749796
    3     0.05350023988829    -0.29839050271255     0.58622614957452     0.35329633348857
    4    -0.01371458939228    -0.05345904749796     0.35329633348857     0.23153299464168



  Irrep: 2 Size: 0 x 0

	(empty)

  Irrep: 3 Size: 1 x 1

                 1

    1     1.00000000000000



  Irrep: 4 Size: 2 x 2

                 1                   2

    1     0.36855863275629    -0.38313342351249
    2    -0.38313342351249     0.39828457989063



  ## SCF density (Symmetry 0) ##
  Irrep: 1 Size: 4 x 4

                 1                   2                   3                   4

    1     1.05435324723172    -0.23065143319717     0.05350023988829    -0.01371458939228
    2    -0.23065143319717     1.02236259646972    -0.29839050271255    -0.05345904749796
    3     0.05350023988829    -0.29839050271255     0.58622614957452     0.35329633348857
    4    -0.01371458939228    -0.05345904749796     0.35329633348857     0.23153299464168



  Irrep: 2 Size: 0 x 0

	(empty)

  Irrep: 3 Size: 1 x 1

                 1

    1     1.00000000000000



  Irrep: 4 Size: 2 x 2

                 1                   2

    1     0.36855863275629    -0.38313342351249
    2    -0.38313342351249     0.39828457989063



   @RKS iter  11:   -75.30813136559613   -1.71525e-11   6.50198e-09 DIIS

  ==> Post-Iterations <==

    Orbital Energies (a.u.)
    -----------------------

    Doubly Occupied:                                                      

       1A1   -18.818637     2A1    -0.914472     1B2    -0.424525  
       3A1    -0.230101     1B1    -0.137731  

    Virtual:                                                              

       4A1     0.321083     2B2     0.429717  

    Final Occupation by Irrep:
             A1    A2    B1    B2 
    DOCC [     3,    0,    1,    1 ]

  Energy converged.

  @RKS Final Energy:   -75.30813136559613

   => Energetics <=

    Nuclear Repulsion Energy =              8.8014655299720665
    One-Electron Energy =                -121.6688869113285421
    Two-Electron Energy =                  45.2065448385499167
    DFT Exchange-Correlation Energy =      -7.6472548227895594
    Empirical Dispersion Energy =           0.0000000000000000
    PCM Polarization Energy =               0.0000000000000000
    EFP Energy =                            0.0000000000000000
    Total Energy =                        -75.3081313655961253



Properties will be evaluated at   0.000000,   0.000000,   0.000000 Bohr

Properties computed using the SCF density matrix

  ## SO Dipole x (Symmetry 2) ##
  Irrep: 1 Size: 4 x 1

                 1

    1    -0.05079192958791
    2    -0.64117284432493
    3     0.00000000000000
    4    -0.40665797533250



  Irrep: 2 Size: 0 x 2

	(empty)

  Irrep: 3 Size: 1 x 4

                 1                   2                   3                   4

    1    -0.05079192958791    -0.64117284432493     0.00000000000000    -0.40665797533250



  Irrep: 4 Size: 2 x 0

	(empty)

  ## SO Dipole y (Symmetry 3) ##
  Irrep: 1 Size: 4 x 2

                 1                   2

    1    -0.05079192958791     0.00400786695583
    2    -0.64117284432493     0.39997816429334
    3     0.00000000000000     0.21294148009645
    4    -0.68167570779567     1.49418675050395



  Irrep: 2 Size: 0 x 1

	(empty)

  Irrep: 3 Size: 1 x 0

	(empty)

  Irrep: 4 Size: 2 x 4

                 1                   2                   3                   4

    1    -0.05079192958791    -0.64117284432493     0.00000000000000    -0.68167570779567
    2     0.00400786695583     0.39997816429334     0.21294148009645     1.49418675050395



  ## SO Dipole z (Symmetry 0) ##
  Irrep: 1 Size: 4 x 4

                 1                   2                   3                   4

    1     0.12947689015702     0.03064768958735    -0.05079192958791     0.00582362221664
    2     0.03064768958735     0.12947689015702    -0.64117284432493    -0.22782002572925
    3    -0.05079192958791    -0.64117284432493     0.12947689015702    -0.52913757214902
    4     0.00582362221664    -0.22782002572925    -0.52913757214902    -1.26194929409996



  Irrep: 2 Size: 0 x 0

	(empty)

  Irrep: 3 Size: 1 x 1

                 1

    1     0.12947689015702



  Irrep: 4 Size: 2 x 2

                 1                   2

    1     0.12947689015702     0.15818459125121
    2     0.15818459125121    -0.79294291175653



  Nuclear Dipole Moment: (a.u.)
     X:     0.0000      Y:     0.0000      Z:     1.0191

  Electronic Dipole Moment: (a.u.)
     X:     0.0000      Y:     0.0000      Z:    -0.3877

  Dipole Moment: (a.u.)
     X:     0.0000      Y:     0.0000      Z:     0.6314     Total:     0.6314

  Dipole Moment: (Debye)
     X:     0.0000      Y:     0.0000      Z:     1.6048     Total:     1.6048


*** tstop() called on psinet at Mon May 15 15:36:23 2017
Module time:
	user time   =       4.01 seconds =       0.07 minutes
	system time =       0.05 seconds =       0.00 minutes
	total time  =          5 seconds =       0.08 minutes
Total time:
	user time   =       8.13 seconds =       0.14 minutes
	system time =       0.14 seconds =       0.00 minutes
	total time  =          9 seconds =       0.15 minutes
	RKS  0 1   B97 Energy.............................................PASSED

*** Psi4 exiting successfully. Buy a developer a beer!
