    -----------------------------------------------------------------------
          Psi4: An Open-Source Ab Initio Electronic Structure Package
                              Psi4 0.5 Driver

                          Git: Rev {master} dbe9080

    J. M. Turney, A. C. Simmonett, R. M. Parrish, E. G. Hohenstein,
    F. A. Evangelista, J. T. Fermann, B. J. Mintz, L. A. Burns, J. J. Wilke,
    M. L. Abrams, N. J. Russ, M. L. Leininger, C. L. Janssen, E. T. Seidl,
    W. D. Allen, H. F. Schaefer, R. A. King, E. F. Valeev, C. D. Sherrill,
    and T. D. Crawford, WIREs Comput. Mol. Sci. 2, 556-565 (2012)
    (doi: 10.1002/wcms.93)

                         Additional Contributions by
    A. E. DePrince, M. Saitow, U. Bozkaya, A. Yu. Sokolov
    -----------------------------------------------------------------------


    Psi4 started on: Mon Mar 14 15:26:29 2016

    Process ID:  12188
    PSI4DATADIR: /home/dsmith/Gits/dgas_psi/share
    Memory level set to 256.000 MB

  ==> Input File <==

--------------------------------------------------------------------------
#! Dispersionless density functional (dlDF+D) internal match to Psi4
#! Extensive testing has been done to match supplemental info of
#! Szalewicz et. al., Phys. Rev. Lett., 103, 263201 (2009) and Szalewicz et. al., J. Phys. Chem. Lett., 1, 550-555 (2010)

molecule water {
0 1
O  -1.551007  -0.114520   0.000000
H  -1.934259   0.762503   0.000000
H  -0.599677   0.040712   0.000000
--
0 1
O   1.350625   0.111469   0.000000
H   1.680398  -0.373741  -0.758561
H   1.680398  -0.373741   0.758561
}

memory 500 mb

set basis aug-cc-pvdz
set scf_type df
set dft_radial_points 99
set dft_spherical_points 302

edft = energy('dldf+d')
val = -153.8044099603441168
compare_values(val, edft, 8, "dlDF+D (2010 +D correction)")

clean()


edft = energy('dldf+d09')
val = -153.8046528936604886 
compare_values(val, edft, 8, "dlDF+D09 (2009 +D correction)")

clean()

--------------------------------------------------------------------------

  Memory set to 500.000 MiB by Python script.

*** tstart() called on ds1.sherrill.chemistry.gatech.edu
*** at Mon Mar 14 15:26:29 2016


         ---------------------------------------------------------
                                   SCF
            by Justin Turney, Rob Parrish, and Andy Simmonett
                              RKS Reference
                        1 Threads,    500 MiB Core
         ---------------------------------------------------------

  ==> Geometry <==

    Molecular point group: cs
    Full point group: Cs

    Geometry (in Angstrom), charge = 0, multiplicity = 1:

       Center              X                  Y                   Z               Mass       
    ------------   -----------------  -----------------  -----------------  -----------------
           O         -1.485163346097    -0.114724564047     0.000000000000    15.994914619560
           H         -1.868415346097     0.762298435953     0.000000000000     1.007825032070
           H         -0.533833346097     0.040507435953     0.000000000000     1.007825032070
           O          1.416468653903     0.111264435953     0.000000000000    15.994914619560
           H          1.746241653903    -0.373945564047    -0.758561000000     1.007825032070
           H          1.746241653903    -0.373945564047     0.758561000000     1.007825032070

  Running in cs symmetry.

  Rotational constants: A =      7.15151  B =      0.21457  C =      0.21447 [cm^-1]
  Rotational constants: A = 214396.91676  B =   6432.69056  C =   6429.61813 [MHz]
  Nuclear repulsion =   36.662847852755299

  Charge       = 0
  Multiplicity = 1
  Electrons    = 20
  Nalpha       = 10
  Nbeta        = 10

  ==> Algorithm <==

  SCF Algorithm Type is DF.
  DIIS enabled.
  MOM disabled.
  Fractional occupation disabled.
  Guess Type is CORE.
  Energy threshold   = 1.00e-06
  Density threshold  = 1.00e-06
  Integral threshold = 0.00e+00

  ==> Primary Basis <==

  Basis Set: AUG-CC-PVDZ
    Number of shells: 38
    Number of basis function: 82
    Number of Cartesian functions: 86
    Spherical Harmonics?: true
    Max angular momentum: 2

  ==> DFT Potential <==

   => dlDF+D Composite Functional <= 

    Dispersionless Hybrid Meta-GGA XC Functional

    Pernal et. al., Phys. Rev. Lett., 103, 263201, 2009

    Points   =           5000
    Deriv    =              1
    GGA      =           TRUE
    Meta     =           TRUE

    X_LRC        =          FALSE
    X_Hybrid     =           TRUE
    X_Alpha      =   6.144129E-01
    X_Omega      =   0.000000E+00
    C_LRC        =          FALSE
    C_Hybrid     =          FALSE
    C_Alpha      =   0.000000E+00
    C_Omega      =   0.000000E+00

   => Exchange Functionals <=

    0.3856  dlDF_X
    0.6144      HF 

   => Correlation Functionals <=

    1.0000  dlDF_C

   => -DAS2010: Empirical Dispersion <=

    Podeszwa and Szalewicz Dispersion Correction

    Podeszwa, R.; Pernal, K.; Patkowski, K.; Szalewicz, K. (2010), J. Phys. Chem. Lett., 1: 550

    S6  =   1.000000E+00

   => Molecular Quadrature <=

    Radial Scheme    =       TREUTLER
    Pruning Scheme   =           FLAT
    Nuclear Scheme   =       TREUTLER

    BS radius alpha  =              1
    Pruning alpha    =              1
    Radial Points    =             99
    Spherical Points =            302
    Total Points     =         179388
    Total Blocks     =            171
    Max Points       =           4939
    Max Functions    =             82

  ==> Pre-Iterations <==

   -------------------------------------------------------
    Irrep   Nso     Nmo     Nalpha   Nbeta   Ndocc  Nsocc
   -------------------------------------------------------
     A'        55      55       0       0       0       0
     A"        27      27       0       0       0       0
   -------------------------------------------------------
    Total      82      82      10      10      10       0
   -------------------------------------------------------

  ==> Integral Setup <==

  ==> DFJK: Density-Fitted J/K Matrices <==

    J tasked:                  Yes
    K tasked:                  Yes
    wK tasked:                  No
    OpenMP threads:              1
    Integrals threads:           1
    Memory (MB):               357
    Algorithm:                Core
    Integral Cache:           NONE
    Schwarz Cutoff:          1E-12
    Fitting Condition:       1E-12

   => Auxiliary Basis Set <=

  Basis Set: 
    Number of shells: 104
    Number of basis function: 300
    Number of Cartesian functions: 342
    Spherical Harmonics?: true
    Max angular momentum: 3

  Minimum eigenvalue in the overlap matrix is 1.5458174156E-03.
  Using Symmetric Orthogonalization.
  SCF Guess: Core (One-Electron) Hamiltonian.

  ==> Iterations <==

                           Total Energy        Delta E     RMS |[F,P]|

   @DF-RKS iter   1:  -138.74042095531172   -1.38740e+02   7.82855e-02 
   @DF-RKS iter   2:  -132.12779958777656    6.61262e+00   6.46647e-02 DIIS
   @DF-RKS iter   3:  -152.28054128238472   -2.01527e+01   3.17293e-02 DIIS
   @DF-RKS iter   4:  -153.41657741192162   -1.13604e+00   1.61030e-02 DIIS
   @DF-RKS iter   5:  -153.78498324166662   -3.68406e-01   3.56115e-03 DIIS
   @DF-RKS iter   6:  -153.80168916639832   -1.67059e-02   1.41750e-03 DIIS
   @DF-RKS iter   7:  -153.80423978181250   -2.55062e-03   3.48328e-04 DIIS
   @DF-RKS iter   8:  -153.80439834939955   -1.58568e-04   8.87436e-05 DIIS
   @DF-RKS iter   9:  -153.80440986916980   -1.15198e-05   6.27235e-06 DIIS
   @DF-RKS iter  10:  -153.80440995790920   -8.87394e-08   8.39743e-07 DIIS

  ==> Post-Iterations <==

    Orbital Energies (a.u.)
    -----------------------

    Doubly Occupied:                                                      

       1Ap   -19.942649     2Ap   -19.887592     3Ap    -1.233038  
       4Ap    -1.177423     1App   -0.673584     5Ap    -0.625456  
       6Ap    -0.545577     7Ap    -0.492009     8Ap    -0.462886  
       2App   -0.414537  

    Virtual:                                                              

       9Ap    -0.017525    10Ap     0.018452     3App    0.026016  
      11Ap     0.059747    12Ap     0.101913    13Ap     0.122651  
       4App    0.151032    14Ap     0.152934     5App    0.164881  
      15Ap     0.169740    16Ap     0.195029     6App    0.196849  
      17Ap     0.227031    18Ap     0.248179    19Ap     0.263621  
       7App    0.278652    20Ap     0.293601    21Ap     0.354291  
       8App    0.354433    22Ap     0.397078    23Ap     0.431543  
       9App    0.447737    10App    0.463807    24Ap     0.516737  
      25Ap     0.538788    11App    0.562445    26Ap     0.571397  
      12App    0.661975    27Ap     0.674901    28Ap     0.784496  
      29Ap     0.819277    30Ap     0.885073    13App    0.980012  
      31Ap     1.002110    14App    1.008000    32Ap     1.037408  
      33Ap     1.066598    15App    1.081367    34Ap     1.178472  
      35Ap     1.215978    16App    1.262562    36Ap     1.298207  
      37Ap     1.399894    17App    1.410481    38Ap     1.451237  
      18App    1.763533    39Ap     1.793654    19App    1.816113  
      40Ap     1.840564    20App    1.866242    41Ap     1.950516  
      21App    2.065660    42Ap     2.127501    22App    2.219146  
      43Ap     2.260437    44Ap     2.336611    45Ap     2.383878  
      23App    2.434408    46Ap     2.503185    47Ap     2.549860  
      48Ap     2.766744    49Ap     2.856896    24App    3.417557  
      50Ap     3.418432    25App    3.435266    51Ap     3.461574  
      26App    3.493132    52Ap     3.510561    53Ap     3.726851  
      54Ap     3.836631    27App    3.928740    55Ap     4.056949  

    Final Occupation by Irrep:
             Ap   App 
    DOCC [     8,    2 ]

  Energy converged.

  @DF-RKS Final Energy:  -153.80440995790920

   => Energetics <=

    Nuclear Repulsion Energy =             36.6628478527552986
    One-Electron Energy =                -282.6716529092637415
    Two-Electron Energy =                 100.8239945090894167
    DFT Exchange-Correlation Energy =      -8.6159567949036671
    Empirical Dispersion Energy =          -0.0036426155864924
    PCM Polarization Energy =               0.0000000000000000
    EFP Energy =                            0.0000000000000000
    Total Energy =                       -153.8044099579091721

    Alert: EFP and PCM quantities not currently incorporated into SCF psivars.

Properties will be evaluated at   0.000000,   0.000000,   0.000000 Bohr
  ==> Properties <==


Properties computed using the SCF density matrix

  Nuclear Dipole Moment: (a.u.)
     X:     1.0217      Y:     0.0515      Z:     0.0000

  Electronic Dipole Moment: (a.u.)
     X:    -0.0163      Y:    -0.0203      Z:     0.0000

  Dipole Moment: (a.u.)
     X:     1.0054      Y:     0.0312      Z:     0.0000     Total:     1.0059

  Dipole Moment: (Debye)
     X:     2.5555      Y:     0.0793      Z:     0.0000     Total:     2.5567


  Saving occupied orbitals to File 180.

*** tstop() called on ds1.sherrill.chemistry.gatech.edu at Mon Mar 14 15:26:51 2016
Module time:
	user time   =      21.90 seconds =       0.37 minutes
	system time =       0.02 seconds =       0.00 minutes
	total time  =         22 seconds =       0.37 minutes
Total time:
	user time   =      21.90 seconds =       0.37 minutes
	system time =       0.02 seconds =       0.00 minutes
	total time  =         22 seconds =       0.37 minutes
	dlDF+D (2010 +D correction).......................................PASSED

*** tstart() called on ds1.sherrill.chemistry.gatech.edu
*** at Mon Mar 14 15:26:51 2016


         ---------------------------------------------------------
                                   SCF
            by Justin Turney, Rob Parrish, and Andy Simmonett
                              RKS Reference
                        1 Threads,    500 MiB Core
         ---------------------------------------------------------

  ==> Geometry <==

    Molecular point group: cs
    Full point group: Cs

    Geometry (in Angstrom), charge = 0, multiplicity = 1:

       Center              X                  Y                   Z               Mass       
    ------------   -----------------  -----------------  -----------------  -----------------
           O         -1.485163346097    -0.114724564047     0.000000000000    15.994914619560
           H         -1.868415346097     0.762298435953     0.000000000000     1.007825032070
           H         -0.533833346097     0.040507435953     0.000000000000     1.007825032070
           O          1.416468653903     0.111264435953     0.000000000000    15.994914619560
           H          1.746241653903    -0.373945564047    -0.758561000000     1.007825032070
           H          1.746241653903    -0.373945564047     0.758561000000     1.007825032070

  Running in cs symmetry.

  Rotational constants: A =      7.15151  B =      0.21457  C =      0.21447 [cm^-1]
  Rotational constants: A = 214396.91676  B =   6432.69056  C =   6429.61813 [MHz]
  Nuclear repulsion =   36.662847852755299

  Charge       = 0
  Multiplicity = 1
  Electrons    = 20
  Nalpha       = 10
  Nbeta        = 10

  ==> Algorithm <==

  SCF Algorithm Type is DF.
  DIIS enabled.
  MOM disabled.
  Fractional occupation disabled.
  Guess Type is CORE.
  Energy threshold   = 1.00e-06
  Density threshold  = 1.00e-06
  Integral threshold = 0.00e+00

  ==> Primary Basis <==

  Basis Set: AUG-CC-PVDZ
    Number of shells: 38
    Number of basis function: 82
    Number of Cartesian functions: 86
    Spherical Harmonics?: true
    Max angular momentum: 2

  ==> DFT Potential <==

   => dlDF+D09 Composite Functional <= 

    Dispersionless Hybrid Meta-GGA XC Functional

    Pernal et. al., Phys. Rev. Lett., 103, 263201, 2009

    Points   =           5000
    Deriv    =              1
    GGA      =           TRUE
    Meta     =           TRUE

    X_LRC        =          FALSE
    X_Hybrid     =           TRUE
    X_Alpha      =   6.144129E-01
    X_Omega      =   0.000000E+00
    C_LRC        =          FALSE
    C_Hybrid     =          FALSE
    C_Alpha      =   0.000000E+00
    C_Omega      =   0.000000E+00

   => Exchange Functionals <=

    0.3856  dlDF_X
    0.6144      HF 

   => Correlation Functionals <=

    1.0000  dlDF_C

   => -DAS2009: Empirical Dispersion <=

    Podeszwa and Szalewicz Dispersion Correction

    Pernal, K.; Podeszwa, R.; Patkowski, K.; Szalewicz, K. (2009), Phys. Rev. Lett., 103: 263201

    S6  =   1.000000E+00

   => Molecular Quadrature <=

    Radial Scheme    =       TREUTLER
    Pruning Scheme   =           FLAT
    Nuclear Scheme   =       TREUTLER

    BS radius alpha  =              1
    Pruning alpha    =              1
    Radial Points    =             99
    Spherical Points =            302
    Total Points     =         179388
    Total Blocks     =            171
    Max Points       =           4939
    Max Functions    =             82

  ==> Pre-Iterations <==

   -------------------------------------------------------
    Irrep   Nso     Nmo     Nalpha   Nbeta   Ndocc  Nsocc
   -------------------------------------------------------
     A'        55      55       0       0       0       0
     A"        27      27       0       0       0       0
   -------------------------------------------------------
    Total      82      82      10      10      10       0
   -------------------------------------------------------

  ==> Integral Setup <==

  ==> DFJK: Density-Fitted J/K Matrices <==

    J tasked:                  Yes
    K tasked:                  Yes
    wK tasked:                  No
    OpenMP threads:              1
    Integrals threads:           1
    Memory (MB):               357
    Algorithm:                Core
    Integral Cache:           NONE
    Schwarz Cutoff:          1E-12
    Fitting Condition:       1E-12

   => Auxiliary Basis Set <=

  Basis Set: 
    Number of shells: 104
    Number of basis function: 300
    Number of Cartesian functions: 342
    Spherical Harmonics?: true
    Max angular momentum: 3

  Minimum eigenvalue in the overlap matrix is 1.5458174156E-03.
  Using Symmetric Orthogonalization.
  SCF Guess: Core (One-Electron) Hamiltonian.

  ==> Iterations <==

                           Total Energy        Delta E     RMS |[F,P]|

   @DF-RKS iter   1:  -138.74066388862801   -1.38741e+02   7.82855e-02 
   @DF-RKS iter   2:  -132.12804252106912    6.61262e+00   6.46647e-02 DIIS
   @DF-RKS iter   3:  -152.28078421570544   -2.01527e+01   3.17293e-02 DIIS
   @DF-RKS iter   4:  -153.41682034524064   -1.13604e+00   1.61030e-02 DIIS
   @DF-RKS iter   5:  -153.78522617498214   -3.68406e-01   3.56115e-03 DIIS
   @DF-RKS iter   6:  -153.80193209971469   -1.67059e-02   1.41750e-03 DIIS
   @DF-RKS iter   7:  -153.80448271512873   -2.55062e-03   3.48328e-04 DIIS
   @DF-RKS iter   8:  -153.80464128271586   -1.58568e-04   8.87436e-05 DIIS
   @DF-RKS iter   9:  -153.80465280248595   -1.15198e-05   6.27235e-06 DIIS
   @DF-RKS iter  10:  -153.80465289122563   -8.87397e-08   8.39743e-07 DIIS

  ==> Post-Iterations <==

    Orbital Energies (a.u.)
    -----------------------

    Doubly Occupied:                                                      

       1Ap   -19.942649     2Ap   -19.887592     3Ap    -1.233038  
       4Ap    -1.177423     1App   -0.673584     5Ap    -0.625456  
       6Ap    -0.545577     7Ap    -0.492009     8Ap    -0.462886  
       2App   -0.414537  

    Virtual:                                                              

       9Ap    -0.017525    10Ap     0.018452     3App    0.026016  
      11Ap     0.059747    12Ap     0.101913    13Ap     0.122651  
       4App    0.151032    14Ap     0.152934     5App    0.164881  
      15Ap     0.169740    16Ap     0.195029     6App    0.196849  
      17Ap     0.227031    18Ap     0.248179    19Ap     0.263621  
       7App    0.278652    20Ap     0.293601    21Ap     0.354291  
       8App    0.354433    22Ap     0.397078    23Ap     0.431543  
       9App    0.447737    10App    0.463807    24Ap     0.516737  
      25Ap     0.538788    11App    0.562445    26Ap     0.571397  
      12App    0.661975    27Ap     0.674901    28Ap     0.784496  
      29Ap     0.819277    30Ap     0.885073    13App    0.980012  
      31Ap     1.002110    14App    1.008000    32Ap     1.037408  
      33Ap     1.066598    15App    1.081367    34Ap     1.178472  
      35Ap     1.215978    16App    1.262562    36Ap     1.298207  
      37Ap     1.399894    17App    1.410481    38Ap     1.451237  
      18App    1.763533    39Ap     1.793654    19App    1.816113  
      40Ap     1.840564    20App    1.866242    41Ap     1.950516  
      21App    2.065660    42Ap     2.127501    22App    2.219146  
      43Ap     2.260437    44Ap     2.336611    45Ap     2.383878  
      23App    2.434408    46Ap     2.503185    47Ap     2.549860  
      48Ap     2.766744    49Ap     2.856896    24App    3.417557  
      50Ap     3.418432    25App    3.435266    51Ap     3.461574  
      26App    3.493132    52Ap     3.510561    53Ap     3.726851  
      54Ap     3.836631    27App    3.928740    55Ap     4.056949  

    Final Occupation by Irrep:
             Ap   App 
    DOCC [     8,    2 ]

  Energy converged.

  @DF-RKS Final Energy:  -153.80465289122563

   => Energetics <=

    Nuclear Repulsion Energy =             36.6628478527552986
    One-Electron Energy =                -282.6716529092637415
    Two-Electron Energy =                 100.8239945090893315
    DFT Exchange-Correlation Energy =      -8.6159567949036671
    Empirical Dispersion Energy =          -0.0038855489028651
    PCM Polarization Energy =               0.0000000000000000
    EFP Energy =                            0.0000000000000000
    Total Energy =                       -153.8046528912256576

    Alert: EFP and PCM quantities not currently incorporated into SCF psivars.

Properties will be evaluated at   0.000000,   0.000000,   0.000000 Bohr
  ==> Properties <==


Properties computed using the SCF density matrix

  Nuclear Dipole Moment: (a.u.)
     X:     1.0217      Y:     0.0515      Z:     0.0000

  Electronic Dipole Moment: (a.u.)
     X:    -0.0163      Y:    -0.0203      Z:     0.0000

  Dipole Moment: (a.u.)
     X:     1.0054      Y:     0.0312      Z:     0.0000     Total:     1.0059

  Dipole Moment: (Debye)
     X:     2.5555      Y:     0.0793      Z:     0.0000     Total:     2.5567


  Saving occupied orbitals to File 180.

*** tstop() called on ds1.sherrill.chemistry.gatech.edu at Mon Mar 14 15:27:14 2016
Module time:
	user time   =      22.71 seconds =       0.38 minutes
	system time =       0.02 seconds =       0.00 minutes
	total time  =         23 seconds =       0.38 minutes
Total time:
	user time   =      44.66 seconds =       0.74 minutes
	system time =       0.04 seconds =       0.00 minutes
	total time  =         45 seconds =       0.75 minutes
	dlDF+D09 (2009 +D correction).....................................PASSED

*** PSI4 exiting successfully. Buy a developer a beer!
