    -----------------------------------------------------------------------
          Psi4: An Open-Source Ab Initio Electronic Structure Package
                              Psi4 0.4.190 Driver

                          Git: Rev {test_ref_refresh} 9b1b239 dirty

    J. M. Turney, A. C. Simmonett, R. M. Parrish, E. G. Hohenstein,
    F. A. Evangelista, J. T. Fermann, B. J. Mintz, L. A. Burns, J. J. Wilke,
    M. L. Abrams, N. J. Russ, M. L. Leininger, C. L. Janssen, E. T. Seidl,
    W. D. Allen, H. F. Schaefer, R. A. King, E. F. Valeev, C. D. Sherrill,
    and T. D. Crawford, WIREs Comput. Mol. Sci. 2, 556-565 (2012)
    (doi: 10.1002/wcms.93)

                         Additional Contributions by
    A. E. DePrince, U. Bozkaya, A. Yu. Sokolov, D. G. A. Smith, R. Di Remigio,
    R. M. Richard, J. F. Gonthier, H. R. McAlexander, M. Saitow, and
    B. P. Pritchard
    -----------------------------------------------------------------------


    Psi4 started on: Mon Apr  4 10:20:42 2016

    Process ID:   4481
    PSI4DATADIR: /home/dsmith/Gits/dgas_psi/share
    Memory level set to 256.000 MB

  ==> Input File <==

--------------------------------------------------------------------------
#! CC2(UHF)/cc-pVDZ energy of H2O+.

memory 250 mb

# H2O Re geom from Olsen et al., JCP 104, 8007 (1996)
molecule h2o {
  1 2
  O 0.0  0.00000000 -0.00900000
  H 0.0 -1.51526300 -1.05889800
  H 0.0  1.51526300 -1.05889800
  units bohr
}

set {
  reference uhf
  basis "cc-pVDZ"
  docc = [3, 0, 0, 1]
  socc = [0, 0, 1, 0]
}

energy('cc2')
--------------------------------------------------------------------------

  Memory set to 250.000 MiB by Python script.

*** tstart() called on ds1.sherrill.chemistry.gatech.edu
*** at Mon Apr  4 10:20:42 2016


         ---------------------------------------------------------
                                   SCF
            by Justin Turney, Rob Parrish, and Andy Simmonett
                              UHF Reference
                        1 Threads,    250 MiB Core
         ---------------------------------------------------------

  ==> Geometry <==

    Molecular point group: c2v
    Full point group: C2v

    Geometry (in Bohr), charge = 1, multiplicity = 2:

       Center              X                  Y                   Z               Mass       
    ------------   -----------------  -----------------  -----------------  -----------------
           O          0.000000000000     0.000000000000     0.117499201619    15.994914619560
           H          0.000000000000    -1.515263000000    -0.932398798381     1.007825032070
           H         -0.000000000000     1.515263000000    -0.932398798381     1.007825032070

  Running in c2v symmetry.

  Rotational constants: A =     30.50916  B =     13.00778  C =      9.11958 [cm^-1]
  Rotational constants: A = 914641.67040  B = 389963.32063  C = 273398.23581 [MHz]
  Nuclear repulsion =    9.009354229662666

  Charge       = 1
  Multiplicity = 2
  Electrons    = 9
  Nalpha       = 5
  Nbeta        = 4

  ==> Algorithm <==

  SCF Algorithm Type is PK.
  DIIS enabled.
  MOM disabled.
  Fractional occupation disabled.
  Guess Type is CORE.
  Energy threshold   = 1.00e-08
  Density threshold  = 1.00e-08
  Integral threshold = 0.00e+00

  ==> Primary Basis <==

  Basis Set: CC-PVDZ
    Number of shells: 12
    Number of basis function: 24
    Number of Cartesian functions: 25
    Spherical Harmonics?: true
    Max angular momentum: 2

  ==> Pre-Iterations <==

   -------------------------------------------------------
    Irrep   Nso     Nmo     Nalpha   Nbeta   Ndocc  Nsocc
   -------------------------------------------------------
     A1        11      11       3       3       3       0
     A2         2       2       0       0       0       0
     B1         4       4       1       0       0       1
     B2         7       7       1       1       1       0
   -------------------------------------------------------
    Total      24      24       5       4       4       1
   -------------------------------------------------------

  ==> Integral Setup <==

	Batch   1 pq = [       0,     107] index = [             0,5778]
  ==> DiskJK: Disk-Based J/K Matrices <==

    J tasked:                  Yes
    K tasked:                  Yes
    wK tasked:                  No
    Memory (MB):               178
    Schwarz Cutoff:          1E-12

  Minimum eigenvalue in the overlap matrix is 3.6636430474E-02.
  Using Symmetric Orthogonalization.
  SCF Guess: Core (One-Electron) Hamiltonian.

  ==> Iterations <==

                        Total Energy        Delta E     RMS |[F,P]|

   @UHF iter   1:   -70.68554325330811   -7.06855e+01   1.96232e-01 
   @UHF iter   2:   -73.53919315021399   -2.85365e+00   1.36982e-01 DIIS
   @UHF iter   3:   -75.59989246771300   -2.06070e+00   1.95883e-02 DIIS
   @UHF iter   4:   -75.63200367885003   -3.21112e-02   3.67241e-03 DIIS
   @UHF iter   5:   -75.63390630921489   -1.90263e-03   7.64359e-04 DIIS
   @UHF iter   6:   -75.63405073460019   -1.44425e-04   2.05356e-04 DIIS
   @UHF iter   7:   -75.63406070575424   -9.97115e-06   7.09285e-05 DIIS
   @UHF iter   8:   -75.63406211152424   -1.40577e-06   3.04137e-05 DIIS
   @UHF iter   9:   -75.63406241399862   -3.02474e-07   5.54613e-06 DIIS
   @UHF iter  10:   -75.63406242068044   -6.68182e-09   8.43201e-07 DIIS
   @UHF iter  11:   -75.63406242079115   -1.10717e-10   1.68560e-07 DIIS
   @UHF iter  12:   -75.63406242079748   -6.32383e-12   3.97390e-08 DIIS
   @UHF iter  13:   -75.63406242079780   -3.26850e-13   4.80466e-09 DIIS

  ==> Post-Iterations <==

   @Spin Contamination Metric:   6.409683762E-03
   @S^2 Expected:                7.500000000E-01
   @S^2 Observed:                7.564096838E-01
   @S   Expected:                5.000000000E-01
   @S   Observed:                5.000000000E-01

    Orbital Energies (a.u.)
    -----------------------

    Alpha Occupied:                                                       

       1A1   -21.134242     2A1    -1.897912     1B2    -1.215114  
       1B1    -1.123201     3A1    -1.080004  

    Alpha Virtual:                                                        

       4A1    -0.144520     2B2    -0.061415     3B2     0.404336  
       5A1     0.410920     2B1     0.675866     6A1     0.712554  
       4B2     0.824019     1A2     1.021859     7A1     1.078877  
       3B1     1.272432     8A1     1.409410     5B2     1.483004  
       9A1     1.958117     6B2     1.978042     4B1     2.676405  
       2A2     2.781501    10A1     2.928831    11A1     3.375924  
       7B2     3.597505  

    Beta Occupied:                                                        

       1A1   -21.089002     2A1    -1.739799     1B2    -1.177609  
       3A1    -1.028404  

    Beta Virtual:                                                         

       1B1    -0.307757     4A1    -0.129916     2B2    -0.052917  
       3B2     0.403481     5A1     0.425377     6A1     0.733770  
       4B2     0.840802     2B1     0.874092     1A2     1.051558  
       7A1     1.091152     3B1     1.299284     8A1     1.458681  
       5B2     1.480208     6B2     1.989451     9A1     2.013603  
       4B1     2.782780     2A2     2.886343    10A1     2.973700  
      11A1     3.443997     7B2     3.615709  

    Final Occupation by Irrep:
             A1    A2    B1    B2 
    DOCC [     3,    0,    0,    1 ]
    SOCC [     0,    0,    1,    0 ]

  Energy converged.

  @UHF Final Energy:   -75.63406242079780

   => Energetics <=

    Nuclear Repulsion Energy =              9.0093542296626659
    One-Electron Energy =                -117.8015464994605281
    Two-Electron Energy =                  33.1581298490000691
    DFT Exchange-Correlation Energy =       0.0000000000000000
    Empirical Dispersion Energy =           0.0000000000000000
    PCM Polarization Energy =               0.0000000000000000
    EFP Energy =                            0.0000000000000000
    Total Energy =                        -75.6340624207977896

    Alert: EFP and PCM quantities not currently incorporated into SCF psivars.

Properties will be evaluated at   0.000000,   0.000000,   0.000000 Bohr
  ==> Properties <==


Properties computed using the SCF density matrix

  Nuclear Dipole Moment: (a.u.)
     X:     0.0000      Y:     0.0000      Z:    -0.9248

  Electronic Dipole Moment: (a.u.)
     X:     0.0000      Y:     0.0000      Z:    -0.0328

  Dipole Moment: (a.u.)
     X:     0.0000      Y:     0.0000      Z:    -0.9576     Total:     0.9576

  Dipole Moment: (Debye)
     X:     0.0000      Y:     0.0000      Z:    -2.4339     Total:     2.4339


  Saving occupied orbitals to File 180.

  UHF NO Occupations:
  HONO-2 :    1 B2 1.9991329
  HONO-1 :    3 A1 1.9979850
  HONO-0 :    1 B1 1.0000000
  LUNO+0 :    4 A1 0.0020150
  LUNO+1 :    2 B2 0.0008671
  LUNO+2 :    5 A1 0.0003249
  LUNO+3 :    6 A1 0.0000003


*** tstop() called on ds1.sherrill.chemistry.gatech.edu at Mon Apr  4 10:20:42 2016
Module time:
	user time   =       0.05 seconds =       0.00 minutes
	system time =       0.02 seconds =       0.00 minutes
	total time  =          0 seconds =       0.00 minutes
Total time:
	user time   =       0.05 seconds =       0.00 minutes
	system time =       0.02 seconds =       0.00 minutes
	total time  =          0 seconds =       0.00 minutes

*** tstart() called on ds1.sherrill.chemistry.gatech.edu
*** at Mon Apr  4 10:20:42 2016


	Wfn Parameters:
	--------------------
	Wavefunction         = CC2
	Number of irreps     = 4
	Number of MOs        = 24
	Number of active MOs = 24
	AO-Basis             = NONE
	Semicanonical        = false
	Reference            = UHF
	Print Level          = 1

	IRREP	# MOs	# FZDC	# DOCC	# SOCC	# VIRT	# FZVR
	-----	-----	------	------	------	------	------
	 A1	   11	    0	    3	    0	    8	    0
	 A2	   2	    0	    0	    0	    2	    0
	 B1	   4	    0	    0	    1	    3	    0
	 B2	   7	    0	    1	    0	    6	    0
	Transforming integrals...
	IWL integrals will be deleted.
	(OO|OO)...
	Presorting SO-basis two-electron integrals.
	Sorting File: SO Ints (nn|nn) nbuckets = 1
	Transforming the one-electron integrals and constructing Fock matrices
	Starting AA/AB first half-transformation.
	Sorting AA/AB half-transformed integrals.
	Starting BB first half-transformation.
	Sorting BB half-transformed integrals.
	First half integral transformation complete.
	Starting AA second half-transformation.
	Starting AB second half-transformation.
	Starting BB second half-transformation.
	Two-electron integral transformation complete.
	(OO|OV)...
	Starting AA second half-transformation.
	Starting AB second half-transformation.
	Starting BB second half-transformation.
	Two-electron integral transformation complete.
	(OO|VV)...
	Starting AA second half-transformation.
	Starting AB second half-transformation.
	Starting BB second half-transformation.
	Two-electron integral transformation complete.
	(OV|OO)...
	Starting AA/AB first half-transformation.
	Sorting AA/AB half-transformed integrals.
	Starting BB first half-transformation.
	Sorting BB half-transformed integrals.
	First half integral transformation complete.
	Starting AA second half-transformation.
	Starting AB second half-transformation.
	Starting BB second half-transformation.
	Two-electron integral transformation complete.
	(OV|OV)...
	Starting AA second half-transformation.
	Starting AB second half-transformation.
	Starting BB second half-transformation.
	Two-electron integral transformation complete.
	(OV|VV)...
	Starting AA second half-transformation.
	Starting AB second half-transformation.
	Starting BB second half-transformation.
	Two-electron integral transformation complete.
	(VV|OO)...
	Starting AA/AB first half-transformation.
	Sorting AA/AB half-transformed integrals.
	Starting BB first half-transformation.
	Sorting BB half-transformed integrals.
	First half integral transformation complete.
	Starting AA second half-transformation.
	Starting AB second half-transformation.
	Starting BB second half-transformation.
	Two-electron integral transformation complete.
	(VV|OV)...
	Starting AA second half-transformation.
	Starting AB second half-transformation.
	Starting BB second half-transformation.
	Two-electron integral transformation complete.
	(VV|VV)...
	Starting AA second half-transformation.
	Starting AB second half-transformation.
	Starting BB second half-transformation.
	Two-electron integral transformation complete.
	Frozen core energy     =      0.00000000000000

	Size of irrep 0 of <AB|CD> integrals:      0.002 (MW) /      0.018 (MB)
	Size of irrep 1 of <AB|CD> integrals:      0.001 (MW) /      0.009 (MB)
	Size of irrep 2 of <AB|CD> integrals:      0.001 (MW) /      0.010 (MB)
	Size of irrep 3 of <AB|CD> integrals:      0.003 (MW) /      0.023 (MB)
	Total:                                     0.008 (MW) /      0.061 (MB)

	Size of irrep 0 of <ab|cd> integrals:      0.003 (MW) /      0.020 (MB)
	Size of irrep 1 of <ab|cd> integrals:      0.002 (MW) /      0.013 (MB)
	Size of irrep 2 of <ab|cd> integrals:      0.002 (MW) /      0.015 (MB)
	Size of irrep 3 of <ab|cd> integrals:      0.003 (MW) /      0.025 (MB)
	Total:                                     0.009 (MW) /      0.073 (MB)

	Size of irrep 0 of <Ab|Cd> integrals:      0.013 (MW) /      0.108 (MB)
	Size of irrep 1 of <Ab|Cd> integrals:      0.005 (MW) /      0.044 (MB)
	Size of irrep 2 of <Ab|Cd> integrals:      0.006 (MW) /      0.051 (MB)
	Size of irrep 3 of <Ab|Cd> integrals:      0.012 (MW) /      0.097 (MB)
	Total:                                     0.037 (MW) /      0.299 (MB)

	Size of irrep 0 of <IA|BC> integrals:      0.004 (MW) /      0.030 (MB)
	Size of irrep 1 of <IA|BC> integrals:      0.001 (MW) /      0.008 (MB)
	Size of irrep 2 of <IA|BC> integrals:      0.001 (MW) /      0.011 (MB)
	Size of irrep 3 of <IA|BC> integrals:      0.003 (MW) /      0.024 (MB)
	Total:                                     0.009 (MW) /      0.073 (MB)

	Size of irrep 0 of <ia|bc> integrals:      0.004 (MW) /      0.029 (MB)
	Size of irrep 1 of <ia|bc> integrals:      0.001 (MW) /      0.006 (MB)
	Size of irrep 2 of <ia|bc> integrals:      0.001 (MW) /      0.010 (MB)
	Size of irrep 3 of <ia|bc> integrals:      0.003 (MW) /      0.023 (MB)
	Total:                                     0.009 (MW) /      0.068 (MB)

	Size of irrep 0 of <Ia|Bc> integrals:      0.004 (MW) /      0.032 (MB)
	Size of irrep 1 of <Ia|Bc> integrals:      0.001 (MW) /      0.009 (MB)
	Size of irrep 2 of <Ia|Bc> integrals:      0.002 (MW) /      0.014 (MB)
	Size of irrep 3 of <Ia|Bc> integrals:      0.003 (MW) /      0.025 (MB)
	Total:                                     0.010 (MW) /      0.080 (MB)

	Size of irrep 0 of <iA|bC> integrals:      0.003 (MW) /      0.028 (MB)
	Size of irrep 1 of <iA|bC> integrals:      0.001 (MW) /      0.005 (MB)
	Size of irrep 2 of <iA|bC> integrals:      0.001 (MW) /      0.007 (MB)
	Size of irrep 3 of <iA|bC> integrals:      0.003 (MW) /      0.023 (MB)
	Total:                                     0.008 (MW) /      0.063 (MB)

	Size of irrep 0 of tIjAb amplitudes:       0.001 (MW) /      0.009 (MB)
	Size of irrep 1 of tIjAb amplitudes:       0.000 (MW) /      0.001 (MB)
	Size of irrep 2 of tIjAb amplitudes:       0.000 (MW) /      0.002 (MB)
	Size of irrep 3 of tIjAb amplitudes:       0.001 (MW) /      0.005 (MB)
	Total:                                     0.002 (MW) /      0.017 (MB)

	Nuclear Rep. energy          =      9.00935422966267
	SCF energy                   =    -75.63406242079780
	One-electron energy          =   -117.80154637040926
	Two-electron (AA) energy     =      7.85329580679620
	Two-electron (BB) energy     =      4.64043020138068
	Two-electron (AB) energy     =     20.66440371177187
	Two-electron energy          =     33.15812971994875
	Reference energy             =    -75.63406242079785

*** tstop() called on ds1.sherrill.chemistry.gatech.edu at Mon Apr  4 10:20:43 2016
Module time:
	user time   =       0.04 seconds =       0.00 minutes
	system time =       0.06 seconds =       0.00 minutes
	total time  =          1 seconds =       0.02 minutes
Total time:
	user time   =       0.09 seconds =       0.00 minutes
	system time =       0.08 seconds =       0.00 minutes
	total time  =          1 seconds =       0.02 minutes

*** tstart() called on ds1.sherrill.chemistry.gatech.edu
*** at Mon Apr  4 10:20:43 2016

            **************************
            *                        *
            *        CCENERGY        *
            *                        *
            **************************

    Nuclear Rep. energy (wfn)     =    9.009354229662666
    SCF energy          (wfn)     =  -75.634062420797804
    Reference energy    (file100) =  -75.634062420797846

    Input parameters:
    -----------------
    Wave function   =      CC2
    Reference wfn   =     UHF
    Brueckner       =     No
    Memory (Mbytes) =     250.0
    Maxiter         =     50
    R_Convergence   =     1.0e-07
    E_Convergence   =     1.0e-06
    Restart         =     Yes
    DIIS            =     Yes
    AO Basis        =     NONE
    ABCD            =     NEW
    Cache Level     =     2
    Cache Type      =     LRU
    Print Level     =     1
    Num. of threads =     1
    # Amps to Print =     10
    Print MP2 Amps? =     No
    Analyze T2 Amps =     No
    Print Pair Ener =     No
    Local CC        =     No
    SCS-MP2         =     False
    SCSN-MP2        =     False
    SCS-CCSD        =     False

MP2 correlation energy -0.1536803299577186
                Solving CC Amplitude Equations
                ------------------------------
  Iter             Energy              RMS        T1Diag      D1Diag    New D1Diag    D2Diag
  ----     ---------------------    ---------   ----------  ----------  ----------   --------
     0        -0.153680329957719    0.000e+00    0.000000    0.000000    0.000000    0.000000
     1        -0.153665031468581    1.713e-02    0.005709    0.000000    0.000000    0.000000
     2        -0.154319296681356    4.207e-03    0.006917    0.000000    0.000000    0.000000
     3        -0.154396656194689    1.579e-03    0.007523    0.000000    0.000000    0.000000
     4        -0.154388862916305    4.065e-04    0.007606    0.000000    0.000000    0.000000
     5        -0.154389784623554    7.499e-05    0.007619    0.000000    0.000000    0.000000
     6        -0.154389990432438    1.562e-05    0.007618    0.000000    0.000000    0.000000
     7        -0.154389965669879    3.893e-06    0.007619    0.000000    0.000000    0.000000
     8        -0.154389961558765    1.280e-06    0.007619    0.000000    0.000000    0.000000
     9        -0.154389961809091    2.558e-07    0.007619    0.000000    0.000000    0.000000
    10        -0.154389963332055    7.119e-08    0.007619    0.000000    0.000000    0.000000

    Iterations converged.


    Largest TIA Amplitudes:
              2   0        -0.0085529312
              4  13        -0.0084681092
              3  10        -0.0080629529
              1   0         0.0046170769
              4  17         0.0043086020
              2   1         0.0042740090
              4  14        -0.0041604652
              2   2         0.0038566633
              2   5        -0.0028039509
              1   2         0.0025796660

    Largest Tia Amplitudes:
              2   0        -0.0067364536
              3  18         0.0056707344
              1   5         0.0048750596
              1   1         0.0039835324
              3  14        -0.0036057668
              2   1         0.0034706127
              3  16         0.0031314121
              2   4        -0.0026165958
              2   3         0.0025312033
              2   5        -0.0021020046

    Largest TIJAB Amplitudes:
      3   2  10   2         0.0232051175
      4   3  13  10        -0.0192601213
      4   2  13   2         0.0186862025
      4   3  15  10        -0.0178445240
      4   2  14   2         0.0144661579
      4   2  15   2         0.0130542369
      3   2  10   1         0.0111933472
      4   3  14  10        -0.0110676041
      4   3   8   1        -0.0110013456
      3   1  10   0         0.0106184618

    Largest Tijab Amplitudes:
      3   2  14   2         0.0193532928
      3   2  15   2         0.0152645949
      3   2  16   2         0.0131425487
      3   2  16   1         0.0094551657
      2   1   2   0        -0.0092491492
      3   2  18   2         0.0088073618
      3   2  15   3         0.0087556255
      3   1  14   0         0.0086285844
      2   1  13  10        -0.0084862571
      3   1  10   8         0.0084782226

    Largest TIjAb Amplitudes:
      2   2   2   2        -0.0327122001
      3   2  10   2         0.0279215717
      4   3  13  14        -0.0253331283
      4   3  14  15        -0.0246193133
      3   3  10  14        -0.0217738591
      3   3  10  16        -0.0207614168
      4   3   1   1        -0.0206642137
      4   3  15  16        -0.0200699120
      4   2  13   2         0.0195384492
      2   3   2  14         0.0192232891

    SCF energy       (wfn)                    =  -75.634062420797804
    Reference energy (file100)                =  -75.634062420797846

    Opposite-spin MP2 correlation energy      =   -0.117764907465747
    Same-spin MP2 correlation energy          =   -0.035915422491971
    MP2 correlation energy                    =   -0.153680329957719
      * MP2 total energy                      =  -75.787742750755569
    CC2 correlation energy                    =   -0.154389963332055
      * CC2 total energy                      =  -75.788452384129897


*** tstop() called on ds1.sherrill.chemistry.gatech.edu at Mon Apr  4 10:20:43 2016
Module time:
	user time   =       0.08 seconds =       0.00 minutes
	system time =       0.18 seconds =       0.00 minutes
	total time  =          0 seconds =       0.00 minutes
Total time:
	user time   =       0.17 seconds =       0.00 minutes
	system time =       0.26 seconds =       0.00 minutes
	total time  =          1 seconds =       0.02 minutes

*** PSI4 exiting successfully. Buy a developer a beer!
