 Entering Gaussian System, Link 0=/usr/qc//g09.d01/g09/g09
 Initial command:
 /usr/qc//g09.d01/g09/l1.exe "/scratch/holger.31343/Gau-31345.inp" -scrdir="/scratch/holger.31343/"
 Entering Link 1 = /usr/qc//g09.d01/g09/l1.exe PID=     31346.
  
 Copyright (c) 1988,1990,1992,1993,1995,1998,2003,2009,2013,
            Gaussian, Inc.  All Rights Reserved.
  
 This is part of the Gaussian(R) 09 program.  It is based on
 the Gaussian(R) 03 system (copyright 2003, Gaussian, Inc.),
 the Gaussian(R) 98 system (copyright 1998, Gaussian, Inc.),
 the Gaussian(R) 94 system (copyright 1995, Gaussian, Inc.),
 the Gaussian 92(TM) system (copyright 1992, Gaussian, Inc.),
 the Gaussian 90(TM) system (copyright 1990, Gaussian, Inc.),
 the Gaussian 88(TM) system (copyright 1988, Gaussian, Inc.),
 the Gaussian 86(TM) system (copyright 1986, Carnegie Mellon
 University), and the Gaussian 82(TM) system (copyright 1983,
 Carnegie Mellon University). Gaussian is a federally registered
 trademark of Gaussian, Inc.
  
 This software contains proprietary and confidential information,
 including trade secrets, belonging to Gaussian, Inc.
  
 This software is provided under written license and may be
 used, copied, transmitted, or stored only in accord with that
 written license.
  
 The following legend is applicable only to US Government
 contracts under FAR:
  
                    RESTRICTED RIGHTS LEGEND
  
 Use, reproduction and disclosure by the US Government is
 subject to restrictions as set forth in subparagraphs (a)
 and (c) of the Commercial Computer Software - Restricted
 Rights clause in FAR 52.227-19.
  
 Gaussian, Inc.
 340 Quinnipiac St., Bldg. 40, Wallingford CT 06492
  
  
 ---------------------------------------------------------------
 Warning -- This program may not be used in any manner that
 competes with the business of Gaussian, Inc. or will provide
 assistance to any competitor of Gaussian, Inc.  The licensee
 of this program is prohibited from giving any competitor of
 Gaussian, Inc. access to this program.  By using this program,
 the user acknowledges that Gaussian, Inc. is engaged in the
 business of creating and licensing software in the field of
 computational chemistry and represents and warrants to the
 licensee that it is not a competitor of Gaussian, Inc. and that
 it will not use this program in any manner prohibited above.
 ---------------------------------------------------------------
  

 Cite this work as:
 Gaussian 09, Revision D.01,
 M. J. Frisch, G. W. Trucks, H. B. Schlegel, G. E. Scuseria, 
 M. A. Robb, J. R. Cheeseman, G. Scalmani, V. Barone, B. Mennucci, 
 G. A. Petersson, H. Nakatsuji, M. Caricato, X. Li, H. P. Hratchian, 
 A. F. Izmaylov, J. Bloino, G. Zheng, J. L. Sonnenberg, M. Hada, 
 M. Ehara, K. Toyota, R. Fukuda, J. Hasegawa, M. Ishida, T. Nakajima, 
 Y. Honda, O. Kitao, H. Nakai, T. Vreven, J. A. Montgomery, Jr., 
 J. E. Peralta, F. Ogliaro, M. Bearpark, J. J. Heyd, E. Brothers, 
 K. N. Kudin, V. N. Staroverov, T. Keith, R. Kobayashi, J. Normand, 
 K. Raghavachari, A. Rendell, J. C. Burant, S. S. Iyengar, J. Tomasi, 
 M. Cossi, N. Rega, J. M. Millam, M. Klene, J. E. Knox, J. B. Cross, 
 V. Bakken, C. Adamo, J. Jaramillo, R. Gomperts, R. E. Stratmann, 
 O. Yazyev, A. J. Austin, R. Cammi, C. Pomelli, J. W. Ochterski, 
 R. L. Martin, K. Morokuma, V. G. Zakrzewski, G. A. Voth, 
 P. Salvador, J. J. Dannenberg, S. Dapprich, A. D. Daniels, 
 O. Farkas, J. B. Foresman, J. V. Ortiz, J. Cioslowski, 
 and D. J. Fox, Gaussian, Inc., Wallingford CT, 2013.
 
 ******************************************
 Gaussian 09:  ES64L-G09RevD.01 24-Apr-2013
                 5-Jan-2018 
 ******************************************
 -------------------------------------
 #P BLYP/cc-pVDZ 5D SP Int(Grid=99770)
 -------------------------------------
 1/38=1/1;
 2/12=2,17=6,18=5,40=1/2;
 3/5=16,8=1,11=2,16=1,25=1,30=1,74=402,75=99770/1,2,3;
 4//1;
 5/5=2,38=5/2;
 6/7=2,8=2,9=2,10=2,28=1/1;
 99/5=1,9=1/99;
 Leave Link    1 at Fri Jan  5 21:51:05 2018, MaxMem=           0 cpu:         0.0
 (Enter /usr/qc//g09.d01/g09/l101.exe)
 -----
 title
 -----
 Symbolic Z-matrix:
 Charge =  0 Multiplicity = 1
 Ne                    0.        0.        0. 
 
 NAtoms=      1 NQM=        1 NQMF=       0 NMMI=      0 NMMIF=      0
                NMic=       0 NMicF=      0.
                    Isotopes and Nuclear Properties:
 (Nuclear quadrupole moments (NQMom) in fm**2, nuclear magnetic moments (NMagM)
  in nuclear magnetons)

  Atom         1
 IAtWgt=          20
 AtmWgt=  19.9924391
 NucSpn=           0
 AtZEff=   0.0000000
 NQMom=    0.0000000
 NMagM=    0.0000000
 AtZNuc=  10.0000000
 Leave Link  101 at Fri Jan  5 21:51:05 2018, MaxMem=    33554432 cpu:         0.0
 (Enter /usr/qc//g09.d01/g09/l202.exe)
                          Input orientation:                          
 ---------------------------------------------------------------------
 Center     Atomic      Atomic             Coordinates (Angstroms)
 Number     Number       Type             X           Y           Z
 ---------------------------------------------------------------------
      1         10           0        0.000000    0.000000    0.000000
 ---------------------------------------------------------------------
 Stoichiometry    Ne
 Framework group  OH[O(Ne)]
 Deg. of freedom     0
 Full point group                 OH      NOp  48
 Largest Abelian subgroup         D2H     NOp   8
 Largest concise Abelian subgroup C1      NOp   1
                         Standard orientation:                         
 ---------------------------------------------------------------------
 Center     Atomic      Atomic             Coordinates (Angstroms)
 Number     Number       Type             X           Y           Z
 ---------------------------------------------------------------------
      1         10           0        0.000000    0.000000    0.000000
 ---------------------------------------------------------------------
 Leave Link  202 at Fri Jan  5 21:51:05 2018, MaxMem=    33554432 cpu:         0.0
 (Enter /usr/qc//g09.d01/g09/l301.exe)
 Standard basis: CC-pVDZ (5D, 7F)
 Ernie: Thresh=  0.10000D-02 Tol=  0.10000D-05 Strict=F.
 Ernie:  2 primitive shells out of 22 were deleted.
 There are     6 symmetry adapted cartesian basis functions of AG  symmetry.
 There are     1 symmetry adapted cartesian basis functions of B1G symmetry.
 There are     1 symmetry adapted cartesian basis functions of B2G symmetry.
 There are     1 symmetry adapted cartesian basis functions of B3G symmetry.
 There are     0 symmetry adapted cartesian basis functions of AU  symmetry.
 There are     2 symmetry adapted cartesian basis functions of B1U symmetry.
 There are     2 symmetry adapted cartesian basis functions of B2U symmetry.
 There are     2 symmetry adapted cartesian basis functions of B3U symmetry.
 There are     5 symmetry adapted basis functions of AG  symmetry.
 There are     1 symmetry adapted basis functions of B1G symmetry.
 There are     1 symmetry adapted basis functions of B2G symmetry.
 There are     1 symmetry adapted basis functions of B3G symmetry.
 There are     0 symmetry adapted basis functions of AU  symmetry.
 There are     2 symmetry adapted basis functions of B1U symmetry.
 There are     2 symmetry adapted basis functions of B2U symmetry.
 There are     2 symmetry adapted basis functions of B3U symmetry.
    14 basis functions,    33 primitive gaussians,    15 cartesian basis functions
     5 alpha electrons        5 beta electrons
       nuclear repulsion energy         0.0000000000 Hartrees.
 IExCor=  402 DFT=T Ex=B Corr=LYP ExCW=0 ScaHFX=  0.000000
 ScaDFX=  1.000000  1.000000  1.000000  1.000000 ScalE2=  1.000000  1.000000
 IRadAn=  99770 IRanWt=     -1 IRanGd=            0 ICorTp=0 IEmpDi=  4
 NAtoms=    1 NActive=    1 NUniq=    1 SFac= 1.00D+00 NAtFMM=   60 NAOKFM=F Big=F
 Integral buffers will be    131072 words long.
 Raffenetti 2 integral format.
 Two-electron integral symmetry is turned on.
 Leave Link  301 at Fri Jan  5 21:51:05 2018, MaxMem=    33554432 cpu:         0.0
 (Enter /usr/qc//g09.d01/g09/l302.exe)
 NPDir=0 NMtPBC=     1 NCelOv=     1 NCel=       1 NClECP=     1 NCelD=      1
         NCelK=      1 NCelE2=     1 NClLst=     1 CellRange=     0.0.
 One-electron integrals computed using PRISM.
 NBasis=    14 RedAO= T EigKep=  5.96D-01  NBF=     5     1     1     1     0     2     2     2
 NBsUse=    14 1.00D-06 EigRej= -1.00D+00 NBFU=     5     1     1     1     0     2     2     2
 Precomputing XC quadrature grid using
 IXCGrd= 4 IRadAn=       99770 IRanWt=          -1 IRanGd=           0 AccXCQ= 0.00D+00.
 Generated NRdTot=       0 NPtTot=           0 NUsed=           0 NTot=          32
 NSgBfM=    15    15    15    15    15 MxSgAt=     1 MxSgA2=     1.
 Leave Link  302 at Fri Jan  5 21:51:06 2018, MaxMem=    33554432 cpu:         0.1
 (Enter /usr/qc//g09.d01/g09/l303.exe)
 DipDrv:  MaxL=1.
 Leave Link  303 at Fri Jan  5 21:51:06 2018, MaxMem=    33554432 cpu:         0.0
 (Enter /usr/qc//g09.d01/g09/l401.exe)
 ExpMin= 4.32D-01 ExpMax= 1.79D+04 ExpMxC= 6.12D+02 IAcc=4 IRadAn=    199770 AccDes= 0.00D+00
 Harris functional with IExCor=  402 and IRadAn=  199770 diagonalized for initial guess.
 HarFok:  IExCor=  402 AccDes= 0.00D+00 IRadAn=    199770 IDoV= 1 UseB2=F ITyADJ=14
 ICtDFT=  3500011 ScaDFX=  1.000000  1.000000  1.000000  1.000000
 FoFCou: FMM=F IPFlag=           0 FMFlag=      100000 FMFlg1=           0
         NFxFlg=           0 DoJE=T BraDBF=F KetDBF=T FulRan=T
         wScrn=  0.000000 ICntrl=     500 IOpCl=  0 I1Cent=   200000004 NGrid=           0
         NMat0=    1 NMatS0=      1 NMatT0=    0 NMatD0=    1 NMtDS0=    0 NMtDT0=    0
 Petite list used in FoFCou.
 Harris En= -128.883521096409    
 JPrj=0 DoOrth=F DoCkMO=F.
 Initial guess orbital symmetries:
       Occupied  (A1G) (A1G) (T1U) (T1U) (T1U)
       Virtual   (T1U) (T1U) (T1U) (A1G) (EG) (EG) (T2G) (T2G)
                 (T2G)
 The electronic state of the initial guess is 1-A1G.
 Leave Link  401 at Fri Jan  5 21:51:06 2018, MaxMem=    33554432 cpu:         0.1
 (Enter /usr/qc//g09.d01/g09/l502.exe)
 Closed shell SCF:
 Using DIIS extrapolation, IDIIS=  1040.
 Integral symmetry usage will be decided dynamically.
 Keep J ints in memory in symmetry-blocked form, NReq=890512.
 IVT=       20457 IEndB=       20457 NGot=    33554432 MDV=    33531445
 LenX=    33531445 LenY=    33530563
 Requested convergence on RMS density matrix=1.00D-08 within 128 cycles.
 Requested convergence on MAX density matrix=1.00D-06.
 Requested convergence on             energy=1.00D-06.
 No special actions if energy rises.
 FoFCou: FMM=F IPFlag=           0 FMFlag=           0 FMFlg1=           0
         NFxFlg=           0 DoJE=F BraDBF=F KetDBF=F FulRan=T
         wScrn=  0.000000 ICntrl=     600 IOpCl=  0 I1Cent=           0 NGrid=           0
         NMat0=    1 NMatS0=    105 NMatT0=    0 NMatD0=    1 NMtDS0=    0 NMtDT0=    0
 Petite list used in FoFCou.
 Integral accuracy reduced to 1.0D-05 until final iterations.

 Cycle   1  Pass 0  IDiag  1:
 E= -128.894826577080    
 DIIS: error= 6.97D-03 at cycle   1 NSaved=   1.
 NSaved= 1 IEnMin= 1 EnMin= -128.894826577080     IErMin= 1 ErrMin= 6.97D-03
 ErrMax= 6.97D-03  0.00D+00 EMaxC= 1.00D-01 BMatC= 1.95D-04 BMatP= 1.95D-04
 IDIUse=3 WtCom= 9.30D-01 WtEn= 6.97D-02
 Coeff-Com:  0.100D+01
 Coeff-En:   0.100D+01
 Coeff:      0.100D+01
 Gap=     1.740 Goal=   None    Shift=    0.000
 GapD=    1.740 DampG=2.000 DampE=1.000 DampFc=2.0000 IDamp=-1.
 RMSDP=3.60D-04 MaxDP=3.21D-03              OVMax= 1.84D-03

 Cycle   2  Pass 0  IDiag  1:
 E= -128.894854978700     Delta-E=       -0.000028401619 Rises=F Damp=F
 DIIS: error= 4.03D-04 at cycle   2 NSaved=   2.
 NSaved= 2 IEnMin= 2 EnMin= -128.894854978700     IErMin= 2 ErrMin= 4.03D-04
 ErrMax= 4.03D-04  0.00D+00 EMaxC= 1.00D-01 BMatC= 2.52D-06 BMatP= 1.95D-04
 IDIUse=3 WtCom= 9.96D-01 WtEn= 4.03D-03
 Coeff-Com:  0.444D-01 0.956D+00
 Coeff-En:   0.000D+00 0.100D+01
 Coeff:      0.442D-01 0.956D+00
 Gap=     1.740 Goal=   None    Shift=    0.000
 RMSDP=9.87D-05 MaxDP=5.60D-04 DE=-2.84D-05 OVMax= 2.23D-04

 Cycle   3  Pass 0  IDiag  1:
 E= -128.894854835027     Delta-E=        0.000000143673 Rises=F Damp=F
 DIIS: error= 4.27D-04 at cycle   3 NSaved=   3.
 NSaved= 3 IEnMin= 2 EnMin= -128.894854978700     IErMin= 2 ErrMin= 4.03D-04
 ErrMax= 4.27D-04  0.00D+00 EMaxC= 1.00D-01 BMatC= 2.77D-06 BMatP= 2.52D-06
 IDIUse=3 WtCom= 9.96D-01 WtEn= 4.27D-03
 Coeff-Com:  0.436D-02 0.515D+00 0.481D+00
 Coeff-En:   0.000D+00 0.526D+00 0.474D+00
 Coeff:      0.434D-02 0.515D+00 0.481D+00
 Gap=     1.740 Goal=   None    Shift=    0.000
 RMSDP=5.06D-05 MaxDP=2.87D-04 DE= 1.44D-07 OVMax= 1.14D-04

 Cycle   4  Pass 0  IDiag  1:
 E= -128.894856176929     Delta-E=       -0.000001341903 Rises=F Damp=F
 DIIS: error= 9.35D-07 at cycle   4 NSaved=   4.
 NSaved= 4 IEnMin= 4 EnMin= -128.894856176929     IErMin= 4 ErrMin= 9.35D-07
 ErrMax= 9.35D-07  0.00D+00 EMaxC= 1.00D-01 BMatC= 1.33D-11 BMatP= 2.52D-06
 IDIUse=1 WtCom= 1.00D+00 WtEn= 0.00D+00
 Coeff-Com: -0.193D-05-0.217D-03-0.240D-02 0.100D+01
 Coeff:     -0.193D-05-0.217D-03-0.240D-02 0.100D+01
 Gap=     1.740 Goal=   None    Shift=    0.000
 RMSDP=1.11D-07 MaxDP=6.29D-07 DE=-1.34D-06 OVMax= 2.53D-07

 Initial convergence to 1.0D-05 achieved.  Increase integral accuracy.
 Cycle   5  Pass 1  IDiag  1:
 E= -128.894856175713     Delta-E=        0.000000001216 Rises=F Damp=F
 DIIS: error= 6.57D-11 at cycle   1 NSaved=   1.
 NSaved= 1 IEnMin= 1 EnMin= -128.894856175713     IErMin= 1 ErrMin= 6.57D-11
 ErrMax= 6.57D-11  0.00D+00 EMaxC= 1.00D-01 BMatC= 7.03D-20 BMatP= 7.03D-20
 IDIUse=1 WtCom= 1.00D+00 WtEn= 0.00D+00
 Coeff-Com:  0.100D+01
 Coeff:      0.100D+01
 Gap=     1.740 Goal=   None    Shift=    0.000
 RMSDP=1.11D-07 MaxDP=6.29D-07 DE= 1.22D-09 OVMax= 3.98D-11

 Cycle   6  Pass 1  IDiag  1:
 E= -128.894856175713     Delta-E=        0.000000000000 Rises=F Damp=F
 DIIS: error= 7.63D-11 at cycle   2 NSaved=   2.
 NSaved= 2 IEnMin= 2 EnMin= -128.894856175713     IErMin= 1 ErrMin= 6.57D-11
 ErrMax= 7.63D-11  0.00D+00 EMaxC= 1.00D-01 BMatC= 8.85D-20 BMatP= 7.03D-20
 IDIUse=1 WtCom= 1.00D+00 WtEn= 0.00D+00
 Coeff-Com:  0.529D+00 0.471D+00
 Coeff:      0.529D+00 0.471D+00
 Gap=     1.740 Goal=   None    Shift=    0.000
 RMSDP=9.19D-12 MaxDP=5.22D-11 DE=-8.53D-14 OVMax= 2.07D-11

 SCF Done:  E(RB-LYP) =  -128.894856176     A.U. after    6 cycles
            NFock=  6  Conv=0.92D-11     -V/T= 2.0044
 KE= 1.283262240916D+02 PE=-3.109251148296D+02 EE= 5.370403456222D+01
 Leave Link  502 at Fri Jan  5 21:51:06 2018, MaxMem=    33554432 cpu:         0.2
 (Enter /usr/qc//g09.d01/g09/l601.exe)
 Copying SCF densities to generalized density rwf, IOpCl= 0 IROHF=0.

 **********************************************************************

            Population analysis using the SCF density.

 **********************************************************************

 Orbital symmetries:
       Occupied  (A1G) (A1G) (T1U) (T1U) (T1U)
       Virtual   (T1U) (T1U) (T1U) (A1G) (EG) (EG) (T2G) (T2G)
                 (T2G)
 The electronic state is 1-A1G.
 Alpha  occ. eigenvalues --  -30.50993  -1.28286  -0.43844  -0.43844  -0.43844
 Alpha virt. eigenvalues --    1.30163   1.30163   1.30163   1.75742   4.63629
 Alpha virt. eigenvalues --    4.63629   4.63629   4.63629   4.63629
          Condensed to atoms (all electrons):
               1
     1  Ne  10.000000
 Mulliken charges:
               1
     1  Ne   0.000000
 Sum of Mulliken charges =   0.00000
 Mulliken charges with hydrogens summed into heavy atoms:
               1
     1  Ne   0.000000
 Electronic spatial extent (au):  <R**2>=              9.0770
 Charge=              0.0000 electrons
 Dipole moment (field-independent basis, Debye):
    X=              0.0000    Y=              0.0000    Z=              0.0000  Tot=              0.0000
 Quadrupole moment (field-independent basis, Debye-Ang):
   XX=             -4.0696   YY=             -4.0696   ZZ=             -4.0696
   XY=              0.0000   XZ=              0.0000   YZ=              0.0000
 Traceless Quadrupole moment (field-independent basis, Debye-Ang):
   XX=              0.0000   YY=              0.0000   ZZ=              0.0000
   XY=              0.0000   XZ=              0.0000   YZ=              0.0000
 Octapole moment (field-independent basis, Debye-Ang**2):
  XXX=              0.0000  YYY=              0.0000  ZZZ=              0.0000  XYY=              0.0000
  XXY=              0.0000  XXZ=              0.0000  XZZ=              0.0000  YZZ=              0.0000
  YYZ=              0.0000  XYZ=              0.0000
 Hexadecapole moment (field-independent basis, Debye-Ang**3):
 XXXX=             -1.7053 YYYY=             -1.7053 ZZZZ=             -1.7053 XXXY=              0.0000
 XXXZ=              0.0000 YYYX=              0.0000 YYYZ=              0.0000 ZZZX=              0.0000
 ZZZY=              0.0000 XXYY=             -0.5684 XXZZ=             -0.5684 YYZZ=             -0.5684
 XXYZ=              0.0000 YYXZ=              0.0000 ZZXY=              0.0000
 N-N= 0.000000000000D+00 E-N=-3.109251148313D+02  KE= 1.283262240916D+02
 Symmetry AG   KE= 1.027337193715D+02
 Symmetry B1G  KE= 9.268063127263D-62
 Symmetry B2G  KE= 1.068596429351D-61
 Symmetry B3G  KE= 6.946627855986D-62
 Symmetry AU   KE= 0.000000000000D+00
 Symmetry B1U  KE= 8.530834906715D+00
 Symmetry B2U  KE= 8.530834906715D+00
 Symmetry B3U  KE= 8.530834906715D+00
 No NMR shielding tensors so no spin-rotation constants.
 Leave Link  601 at Fri Jan  5 21:51:06 2018, MaxMem=    33554432 cpu:         0.1
 (Enter /usr/qc//g09.d01/g09/l9999.exe)
 1\1\GINC-THINK\SP\RBLYP\CC-pVDZ\Ne1\HOLGER\05-Jan-2018\0\\#P BLYP/cc-p
 VDZ 5D SP Int(Grid=99770)\\title\\0,1\Ne,0,0.,0.,0.\\Version=ES64L-G09
 RevD.01\State=1-A1G\HF=-128.8948562\RMSD=9.191e-12\Dipole=0.,0.,0.\Qua
 drupole=0.,0.,0.,0.,0.,0.\PG=OH [O(Ne1)]\\@


 IF YOU GET CONFUSED, LOGIC OUT YOUR DILEMMA

           --  PICKER X-RAY CORP.    DIGITAL PRINTER MANUAL CA. 1964
