
    -----------------------------------------------------------------------
          Psi4: An Open-Source Ab Initio Electronic Structure Package
                               Psi4 1.11a1.dev51 

                         Git: Rev {cghf} 826d0f6 dirty


    D. G. A. Smith, L. A. Burns, A. C. Simmonett, R. M. Parrish,
    M. C. Schieber, R. Galvelis, P. Kraus, H. Kruse, R. Di Remigio,
    A. Alenaizan, A. M. James, S. Lehtola, J. P. Misiewicz, M. Scheurer,
    R. A. Shaw, J. B. Schriber, Y. Xie, Z. L. Glick, D. A. Sirianni,
    J. S. O'Brien, J. M. Waldrop, A. Kumar, E. G. Hohenstein,
    B. P. Pritchard, B. R. Brooks, H. F. Schaefer III, A. Yu. Sokolov,
    K. Patkowski, A. E. DePrince III, U. Bozkaya, R. A. King,
    F. A. Evangelista, J. M. Turney, T. D. Crawford, C. D. Sherrill,
    J. Chem. Phys. 152(18) 184108 (2020). https://doi.org/10.1063/5.0006002

                            Additional Code Authors
    E. T. Seidl, C. L. Janssen, E. F. Valeev, M. L. Leininger,
    J. F. Gonthier, R. M. Richard, H. R. McAlexander, M. Saitow, X. Wang,
    P. Verma, M. H. Lechner, A. Jiang, S. Behnle, A. G. Heide,
    M. F. Herbst, D. L. Poole, T. Győri, E. C. Mitchell, J. P. Pederson,
    and A. M. Wallace

             Previous Authors, Complete List of Code Contributors,
                       and Citations for Specific Modules
    https://github.com/psi4/psi4/blob/master/codemeta.json
    https://github.com/psi4/psi4/graphs/contributors
    https://psicode.org/psi4manual/master/introduction.html#citing-psifour

    -----------------------------------------------------------------------


    Psi4 started on: Friday, 27 February 2026 09:03PM

    Process ID: 94548
    Host:       
    PSIDATADIR: ./psi4/objdir_p4docs/stage/share/psi4
    Memory:     500.0 MiB
    Threads:    1
    Addons:     a̶d̶c̶c̶, a̶m̶b̶i̶t̶, b̶s̶e̶, c̶c̶t̶3̶, c̶f̶o̶u̶r̶, c̶h̶e̶m̶p̶s̶2̶, c̶p̶p̶e̶, d̶d̶x̶,
                d̶f̶t̶d̶3̶, d̶f̶t̶d̶4̶, d̶k̶h̶, e̶c̶p̶i̶n̶t̶, einsums, f̶o̶r̶t̶e̶, g̶a̶u̶x̶c̶,
                g̶c̶p̶, g̶d̶m̶a̶, g̶e̶o̶m̶e̶t̶r̶i̶c̶, g̶p̶u̶_̶d̶f̶c̶c̶,
                i̶n̶t̶e̶g̶r̶a̶t̶o̶r̶x̶x̶, i̶p̶i̶, l̶i̶b̶e̶f̶p̶, m̶d̶i̶, m̶p̶2̶d̶, m̶r̶c̶c̶,
                o̶o̶o̶, o̶p̶e̶n̶f̶e̶r̶m̶i̶o̶n̶p̶s̶i̶4̶, p̶c̶m̶s̶o̶l̶v̶e̶r̶,
                p̶s̶i̶4̶f̶o̶c̶k̶c̶i̶, p̶s̶i̶x̶a̶s̶, p̶y̶e̶i̶n̶s̶u̶m̶s̶, r̶e̶s̶p̶, s̶i̶m̶i̶n̶t̶,
                s̶n̶s̶m̶p̶2̶, v̶2̶r̶d̶m̶_̶c̶a̶s̶s̶c̶f̶

  ==> Input File <==

--------------------------------------------------------------------------
#! cGHF STO-3G energy for the O2 molecule using SAD guess, C1 symmetry, and 4-index ERI

nucenergy =    28.2227845690666648
refenergy =  -147.6334527334979612

molecule o2 {
    0 1
    O 0.0 0.0 0.0
    O 1.2 0.0 0.0
    Symmetry C1
}

set {
    reference cghf
    scf_type   pk
    basis      sto-3g
    diis_start 1
    diis_max_vecs 8
    e_convergence 1e-9
}
thisenergy = energy('scf')

compare_values(nucenergy, o2.nuclear_repulsion_energy(), 9, "Nuclear repulsion energy") #TEST
compare_values(refenergy, thisenergy, 8, "Reference energy")                            #TEST
--------------------------------------------------------------------------

Scratch directory: /tmp/
   => Libint2 <=

    Primary   basis highest AM E, G, H:  7, 6, 3
    Auxiliary basis highest AM E, G, H:  7, 7, 4
    Onebody   basis highest AM E, G, H:  -, -, -
    Solid Harmonics ordering:            Gaussian

*** tstart() called on dn5.dngroup.chem
*** at Fri Feb 27 21:03:12 2026

   => Loading Basis Set <=

    Name: STO-3G
    Role: ORBITAL
    Keyword: BASIS
    atoms 1-2 entry O          line    81 file ./psi4/objdir_p4docs/stage/share/psi4/basis/sto-3g.gbs 


         ---------------------------------------------------------
                                   SCF
               by Justin Turney, Rob Parrish, Andy Simmonett
                          and Daniel G. A. Smith
                             CGHF Reference
                        1 Threads,    500 MiB Core
         ---------------------------------------------------------

  ==> Geometry <==

    Molecular point group: c1
    Full point group: D_inf_h

    Geometry (in Angstrom), charge = 0, multiplicity = 1:

       Center              X                  Y                   Z               Mass       
    ------------   -----------------  -----------------  -----------------  -----------------
         O           -0.600000000000     0.000000000000     0.000000000000    15.994914619570
         O            0.600000000000     0.000000000000     0.000000000000    15.994914619570

  Running in c1 symmetry.

  Rotational constants: A = ************  B =      1.46380  C =      1.46380 [cm^-1]
  Rotational constants: A = ************  B =  43883.65345  C =  43883.65345 [MHz]
  Nuclear repulsion =   28.222784569066665

  Charge       = 0
  Multiplicity = 1
  Electrons    = 16
  Nalpha       = 8
  Nbeta        = 8

  ==> Algorithm <==

  SCF Algorithm Type is PK.
  DIIS enabled.
  MOM disabled.
  Fractional occupation disabled.
  Guess Type is SAD.
  Energy threshold   = 1.00e-09
  Density threshold  = 1.00e-06
  Integral threshold = 1.00e-12

  ==> Primary Basis <==

  Basis Set: STO-3G
    Blend: STO-3G
    Number of shells: 6
    Number of basis functions: 10
    Number of Cartesian functions: 10
    Spherical Harmonics?: true
    Max angular momentum: 1

  ==> Integral Setup <==

  Using in-core PK algorithm.
   Calculation information:
      Number of atoms:                   2
      Number of AO shells:               6
      Number of primitives:             18
      Number of atomic orbitals:        10
      Number of basis functions:        10

      Integral cutoff                 1.00e-12
      Number of threads:                 1

  Performing in-core PK
  Using 3080 doubles for integral storage.
  We computed 230 shell quartets total.
  Whereas there are 231 unique shell quartets.

  ==> DiskJK: Disk-Based J/K Matrices <==

    J tasked:                  Yes
    K tasked:                  Yes
    wK tasked:                  No
    Memory [MiB]:              375
    Schwarz Cutoff:          1E-12

    OpenMP threads:              1

  Minimum eigenvalue in the overlap matrix is 3.5295264830E-01.
  Reciprocal condition number of the overlap matrix is 2.0885408002E-01.
    Using symmetric orthogonalization.

  ==> Pre-Iterations <==

  SCF Guess: Superposition of Atomic Densities via on-the-fly atomic UHF (no occupation information).

   -------------------------
    Irrep   Nso     Nmo    
   -------------------------
     A         10      10 
   -------------------------
    Total      10      10
   -------------------------

  ==> Iterations <==

                        Total Energy        Delta E     RMS |[F,P]|

   @CGHF iter SAD:  -146.60741320301241   -1.46607e+02   0.00000e+00 
   @CGHF iter   1:  -147.60016648838550   -9.92753e-01   1.90472e-01 
   @CGHF iter   2:  -147.63144006450887   -3.12736e-02   4.28979e-02 
   @CGHF iter   3:  -147.63332326011516   -1.88320e-03   1.07789e-02 
   @CGHF iter   4:  -147.63344270075453   -1.19441e-04   2.94352e-03 
   @CGHF iter   5:  -147.63345171732749   -9.01657e-06   9.12302e-04 
   @CGHF iter   6:  -147.63345260406908   -8.86742e-07   3.18655e-04 
   @CGHF iter   7:  -147.63345271477590   -1.10707e-07   1.19706e-04 
   @CGHF iter   8:  -147.63345273063976   -1.58639e-08   4.64861e-05 
   @CGHF iter   9:  -147.63345273305271   -2.41295e-09   1.82919e-05 
   @CGHF iter  10:  -147.63345273349785   -4.45141e-10   1.60661e-11 
  Energy and wave function converged.


  ==> Post-Iterations <==

    Orbital Energies [Eh]
    ---------------------

    Final Occupation by Irrep:
              A 
    DOCC [     8 ]
    SOCC [     0 ]
    NA   [     8 ]
    NB   [     8 ]

  @CGHF Final Energy:  -147.63345273349785

   => Energetics <=

    Nuclear Repulsion Energy =             28.2227845690666648
    One-Electron Energy =                -260.5615760622046082
    Two-Electron Energy =                  84.7053387596400853
    Total Energy =                       -147.6334527334978475

Computation Completed


Properties will be evaluated at   0.000000,   0.000000,   0.000000 [a0]

Properties computed using the SCF density matrix


 Multipole Moments:

 ------------------------------------------------------------------------------------
     Multipole            Electronic (a.u.)      Nuclear  (a.u.)        Total (a.u.)
 ------------------------------------------------------------------------------------

 L = 1.  Multiply by 2.5417464519 to convert [e a0] to [Debye]
 Dipole X            :         -0.0000000            0.0000000           -0.0000000
 Dipole Y            :         -0.0000000            0.0000000           -0.0000000
 Dipole Z            :         -0.0000000            0.0000000           -0.0000000
 Magnitude           :                                                    0.0000000

 ------------------------------------------------------------------------------------

*** tstop() called on dn5.dngroup.chem at Fri Feb 27 21:03:13 2026
Module time:
	user time   =       0.06 seconds =       0.00 minutes
	system time =       0.00 seconds =       0.00 minutes
	total time  =          1 seconds =       0.02 minutes
Total time:
	user time   =       0.06 seconds =       0.00 minutes
	system time =       0.00 seconds =       0.00 minutes
	total time  =          1 seconds =       0.02 minutes
    Nuclear repulsion energy..............................................................PASSED
    Reference energy......................................................................PASSED

    Psi4 stopped on: Friday, 27 February 2026 09:03PM
    Psi4 wall time for execution: 0:00:00.10

*** Psi4 exiting successfully. Buy a developer a beer!
