    -----------------------------------------------------------------------
          PSI4: An Open-Source Ab Initio Electronic Structure Package
                              PSI 4.0.0-beta1 Driver

    J. M. Turney, A. C. Simmonett, R. M. Parrish, E. G. Hohenstein,
    F. Evangelista, J. T. Fermann, B. J. Mintz, L. A. Burns, J. J. Wilke,
    M. L. Abrams, N. J. Russ, M. L. Leininger, C. L. Janssen, E. T. Seidl,
    W. D. Allen, H. F. Schaefer, R. A. King, E. F. Valeev, C. D. Sherrill,
    and T. D. Crawford, WIREs Comput. Mol. Sci., (2011) (doi: 10.1002/wcms.93)

                         Additional Contributions by
    A. E. DePrince, M. Saitow, U. Bozkaya, A. Yu. Sokolov
    -----------------------------------------------------------------------


    Using LocalCommunicator (Number of processes = 1)

    Memory level set to 256.000 MB

  ==> Input File <==

--------------------------------------------------------------------------
#! SCF STO-3G geometry optimzation, with Z-matrix input, by finite-differences

memory 250 mb

# Same test case as scf5
nucenergy = 8.9064890670                            #TEST
refenergy = -74.965901192                           #TEST

molecule h2o {
     O
     H 1 1.0
     H 1 1.0 2 104.5
}

set globals {
  diis false
  basis sto-3g
  e_convergence 10
  d_convergence 10
  points 3
}

thisenergy = optimize('scf', dertype = 0)

compare_values(nucenergy, h2o.nuclear_repulsion_energy(), 3, "Nuclear repulsion energy")    #TEST
compare_values(refenergy, thisenergy, 3, "Reference energy")                                #TEST
--------------------------------------------------------------------------

  Memory set to 250.000 MiB by Python script.

-------------------------------------------------------------

  Using finite-differences of energies to determine gradients (fd_geoms_1_0).
	Generating geometries for use with 3-point formula.
	Displacement size will be 5.00e-03.
	Number of atoms is 3.
	Number of symmetric SALC's is 2.
	Number of displacements (including reference) is 5.

-------------------------------------------------------------

  //>>>>>>>>>>>>>>>>>>>>>>>>>>>>>>>>>>>//
  //    Loading displacement 1 of 5    //
  //<<<<<<<<<<<<<<<<<<<<<<<<<<<<<<<<<<<//

*** tstart() called on QuickSilver.local
*** at Mon Jan 23 14:43:19 2012

	There are an even number of electrons - assuming singlet.
	Specify the multiplicity with the MULTP option in the
	input if this is incorrect


         ---------------------------------------------------------
                                   SCF
            by Justin Turney, Rob Parrish, and Andy Simmonett
                              RHF Reference
                        1 Threads,    250 MiB Core
         ---------------------------------------------------------

  ==> Geometry <==

    Molecular point group: c2v

    Geometry (in Angstrom), charge = 0, multiplicity = 1:

       Center              X                  Y                   Z       
    ------------   -----------------  -----------------  -----------------
           O          0.000000000000     0.000000000000    -0.068737541050
           H          0.000000000000    -0.790689573744     0.545457329036
           H         -0.000000000000     0.790689573744     0.545457329036

    Number of unique atoms: 2

    Atoms equivalency:
       unique atom 0: 0 
       unique atom 1: 1 2 

  Running in c2v symmetry.

  Nuclear repulsion =    8.791216689717068

  Charge       = 0
  Multiplicity = 1
  Electrons    = 10
  Nalpha       = 5
  Nbeta        = 5

  ==> Algorithm <==

  SCF Algorithm Type is PK.
  DIIS disabled.
  MOM disabled.
  Fractional occupation disabled.
  Guess Type is CORE.
  Energy threshold   = 1.00e-10
  Density threshold  = 1.00e-10
  Integral threshold = 0.00e+00

  ==> Primary Basis: STO-3G <==

  Basis Set
    Number of shells: 5
    Number of basis function: 7
    Number of Cartesian functions: 7
    Spherical Harmonics?: true
    Max angular momentum: 1

  ==> Pre-Iterations <==

  Minimum eigenvalue in the overlap matrix is 3.7105727976E-01.
  Using Symmetric Orthogonalization.
  SCF Guess: Core (One-Electron) Hamiltonian.

  Initial RHF energy:   -54.63765038333515

   -------------------------------------------------------
    Irrep   Nso     Nmo     Nalpha   Nbeta   Ndocc  Nsocc
   -------------------------------------------------------
     A1         4       4       3       3       3       0
     A2         0       0       0       0       0       0
     B1         1       1       1       1       1       0
     B2         2       2       1       1       1       0
   -------------------------------------------------------
    Total       7       7       5       5       5       0
   -------------------------------------------------------

  ==> Integral Setup <==

 MINTS: Wrapper to libmints.
   by Justin Turney

   Calculation information:
      Number of atoms:                   3
      Number of AO shells:               5
      Number of SO shells:               4
      Number of primitives:             15
      Number of atomic orbitals:         7
      Number of basis functions:         7

      Number of irreps:                  4
      Number of functions per irrep: [   4    0    1    2 ]

      Overlap, kinetic, potential, dipole, and quadrupole integrals
        stored in file 35.

      Computing two-electron integrals...done
      Computed 138 non-zero two-electron integrals.
        Stored in file 33.

  ==> Iterations <==

                        Total Energy        Delta E     Density RMS

   @RHF iter   1:   -73.25324854505990   -1.86156e+01   0.00000e+00 
   @RHF iter   2:   -74.93065159044104   -1.67740e+00   3.98388e-01 
   @RHF iter   3:   -74.96313832496583   -3.24867e-02   5.65433e-02 
   @RHF iter   4:   -74.96447363036006   -1.33531e-03   9.75994e-03 
   @RHF iter   5:   -74.96462988291913   -1.56253e-04   3.85886e-03 
   @RHF iter   6:   -74.96465811889396   -2.82360e-05   1.54586e-03 
   @RHF iter   7:   -74.96466363158194   -5.51269e-06   6.74215e-04 
   @RHF iter   8:   -74.96466472926170   -1.09768e-06   2.96429e-04 
   @RHF iter   9:   -74.96466494902316   -2.19761e-07   1.31682e-04 
   @RHF iter  10:   -74.96466499309039   -4.40672e-08   5.87107e-05 
   @RHF iter  11:   -74.96466500193097   -8.84057e-09   2.62348e-05 
   @RHF iter  12:   -74.96466500370471   -1.77374e-09   1.17360e-05 
   @RHF iter  13:   -74.96466500406063   -3.55925e-10   5.25324e-06 
   @RHF iter  14:   -74.96466500413209   -7.14522e-11   2.35221e-06 
   @RHF iter  15:   -74.96466500414638   -1.42961e-11   1.05343e-06 
   @RHF iter  16:   -74.96466500414925   -2.87059e-12   4.71818e-07 
   @RHF iter  17:   -74.96466500414985   -5.96856e-13   2.11333e-07 
   @RHF iter  18:   -74.96466500414996   -1.13687e-13   9.46616e-08 
   @RHF iter  19:   -74.96466500414996    0.00000e+00   4.24021e-08 
   @RHF iter  20:   -74.96466500414996    0.00000e+00   1.89934e-08 
   @RHF iter  21:   -74.96466500414999   -2.84217e-14   8.50791e-09 
   @RHF iter  22:   -74.96466500415002   -2.84217e-14   3.81103e-09 
   @RHF iter  23:   -74.96466500414996    5.68434e-14   1.70712e-09 
   @RHF iter  24:   -74.96466500414996    0.00000e+00   7.64688e-10 
   @RHF iter  25:   -74.96466500414999   -2.84217e-14   3.42535e-10 
   @RHF iter  26:   -74.96466500414999    0.00000e+00   1.53436e-10 

  ==> Post-Iterations <==

	Orbital Energies (a.u.)
	-----------------------

	Doubly Occupied:                                                      

	   1A1   -20.247687     2A1    -1.247426     1B2    -0.594971  
	   3A1    -0.448166     1B1    -0.389044  

	Virtual:                                                              

	   4A1     0.563348     2B2     0.691150  

	Final Occupation by Irrep:
	         A1    A2    B1    B2 
	DOCC [     3,    0,    1,    1 ]

  Energy converged.

  @RHF Final Energy:   -74.96466500414999

  ==> Properties <==
  Nuclear Dipole Moment: (a.u.)
     X:     0.0000      Y:     0.0000      Z:     1.0224

  Electronic Dipole Moment: (a.u.)
     X:     0.0000      Y:     0.0000      Z:    -0.3660

  Dipole Moment: (a.u.)
     X:     0.0000      Y:     0.0000      Z:     0.6564     Total:     0.6564

  Dipole Moment: (Debye)
     X:     0.0000      Y:     0.0000      Z:     1.6684     Total:     1.6684


  Saving occupied orbitals to File 180.

*** tstop() called on QuickSilver.local at Mon Jan 23 14:43:19 2012
Module time:
	user time   =       0.03 seconds =       0.00 minutes
	system time =       0.01 seconds =       0.00 minutes
	total time  =          0 seconds =       0.00 minutes
Total time:
	user time   =       0.03 seconds =       0.00 minutes
	system time =       0.01 seconds =       0.00 minutes
	total time  =          0 seconds =       0.00 minutes

  //>>>>>>>>>>>>>>>>>>>>>>>>>>>>>>>>>>>//
  //    Loading displacement 2 of 5    //
  //<<<<<<<<<<<<<<<<<<<<<<<<<<<<<<<<<<<//

*** tstart() called on QuickSilver.local
*** at Mon Jan 23 14:43:19 2012

	There are an even number of electrons - assuming singlet.
	Specify the multiplicity with the MULTP option in the
	input if this is incorrect


         ---------------------------------------------------------
                                   SCF
            by Justin Turney, Rob Parrish, and Andy Simmonett
                              RHF Reference
                        1 Threads,    250 MiB Core
         ---------------------------------------------------------

  ==> Geometry <==

    Molecular point group: c2v

    Geometry (in Angstrom), charge = 0, multiplicity = 1:

       Center              X                  Y                   Z       
    ------------   -----------------  -----------------  -----------------
           O         -0.000000000000     0.000000000000    -0.068294897570
           H          0.000000000000    -0.790689573744     0.541944792413
           H         -0.000000000000     0.790689573744     0.541944792413

    Number of unique atoms: 2

    Atoms equivalency:
       unique atom 0: 0 
       unique atom 1: 1 2 

  Running in c2v symmetry.

  Nuclear repulsion =    8.811718490323457

  Charge       = 0
  Multiplicity = 1
  Electrons    = 10
  Nalpha       = 5
  Nbeta        = 5

  ==> Algorithm <==

  SCF Algorithm Type is PK.
  DIIS disabled.
  MOM disabled.
  Fractional occupation disabled.
  Guess Type is CORE.
  Energy threshold   = 1.00e-10
  Density threshold  = 1.00e-10
  Integral threshold = 0.00e+00

  ==> Primary Basis: STO-3G <==

  Basis Set
    Number of shells: 5
    Number of basis function: 7
    Number of Cartesian functions: 7
    Spherical Harmonics?: true
    Max angular momentum: 1

  ==> Pre-Iterations <==

  Minimum eigenvalue in the overlap matrix is 3.6951300188E-01.
  Using Symmetric Orthogonalization.
  SCF Guess: Core (One-Electron) Hamiltonian.

  Initial RHF energy:   -54.63086750183676

   -------------------------------------------------------
    Irrep   Nso     Nmo     Nalpha   Nbeta   Ndocc  Nsocc
   -------------------------------------------------------
     A1         4       4       3       3       3       0
     A2         0       0       0       0       0       0
     B1         1       1       1       1       1       0
     B2         2       2       1       1       1       0
   -------------------------------------------------------
    Total       7       7       5       5       5       0
   -------------------------------------------------------

  ==> Integral Setup <==

 MINTS: Wrapper to libmints.
   by Justin Turney

   Calculation information:
      Number of atoms:                   3
      Number of AO shells:               5
      Number of SO shells:               4
      Number of primitives:             15
      Number of atomic orbitals:         7
      Number of basis functions:         7

      Number of irreps:                  4
      Number of functions per irrep: [   4    0    1    2 ]

      Overlap, kinetic, potential, dipole, and quadrupole integrals
        stored in file 35.

      Computing two-electron integrals...done
      Computed 138 non-zero two-electron integrals.
        Stored in file 33.

  ==> Iterations <==

                        Total Energy        Delta E     Density RMS

   @RHF iter   1:   -73.25277200746827   -1.86219e+01   0.00000e+00 
   @RHF iter   2:   -74.93231810301532   -1.67955e+00   3.98372e-01 
   @RHF iter   3:   -74.96318819290499   -3.08701e-02   5.51081e-02 
   @RHF iter   4:   -74.96446551377433   -1.27732e-03   9.61454e-03 
   @RHF iter   5:   -74.96461772271095   -1.52209e-04   3.81256e-03 
   @RHF iter   6:   -74.96464524533907   -2.75226e-05   1.53159e-03 
   @RHF iter   7:   -74.96465060505190   -5.35971e-06   6.66834e-04 
   @RHF iter   8:   -74.96465166905107   -1.06400e-06   2.92835e-04 
   @RHF iter   9:   -74.96465188141242   -2.12361e-07   1.29887e-04 
   @RHF iter  10:   -74.96465192386407   -4.24516e-08   5.78226e-05 
   @RHF iter  11:   -74.96465193235413   -8.49006e-09   2.57981e-05 
   @RHF iter  12:   -74.96465193405231   -1.69818e-09   1.15228e-05 
   @RHF iter  13:   -74.96465193439198   -3.39668e-10   5.14982e-06 
   @RHF iter  14:   -74.96465193445992   -6.79421e-11   2.30234e-06 
   @RHF iter  15:   -74.96465193447351   -1.35856e-11   1.02949e-06 
   @RHF iter  16:   -74.96465193447628   -2.77112e-12   4.60384e-07 
   @RHF iter  17:   -74.96465193447676   -4.83169e-13   2.05893e-07 
   @RHF iter  18:   -74.96465193447689   -1.27898e-13   9.20818e-08 
   @RHF iter  19:   -74.96465193447695   -5.68434e-14   4.11826e-08 
   @RHF iter  20:   -74.96465193447693    1.42109e-14   1.84186e-08 
   @RHF iter  21:   -74.96465193447692    1.42109e-14   8.23766e-09 
   @RHF iter  22:   -74.96465193447690    1.42109e-14   3.68426e-09 
   @RHF iter  23:   -74.96465193447696   -5.68434e-14   1.64777e-09 
   @RHF iter  24:   -74.96465193447692    4.26326e-14   7.36966e-10 
   @RHF iter  25:   -74.96465193447689    2.84217e-14   3.29604e-10 
   @RHF iter  26:   -74.96465193447692   -2.84217e-14   1.47415e-10 

  ==> Post-Iterations <==

	Orbital Energies (a.u.)
	-----------------------

	Doubly Occupied:                                                      

	   1A1   -20.246852     2A1    -1.248122     1B2    -0.596731  
	   3A1    -0.447601     1B1    -0.388868  

	Virtual:                                                              

	   4A1     0.564953     2B2     0.694868  

	Final Occupation by Irrep:
	         A1    A2    B1    B2 
	DOCC [     3,    0,    1,    1 ]

  Energy converged.

  @RHF Final Energy:   -74.96465193447692

  ==> Properties <==
  Nuclear Dipole Moment: (a.u.)
     X:    -0.0000      Y:     0.0000      Z:     1.0158

  Electronic Dipole Moment: (a.u.)
     X:     0.0000      Y:     0.0000      Z:    -0.3589

  Dipole Moment: (a.u.)
     X:    -0.0000      Y:     0.0000      Z:     0.6569     Total:     0.6569

  Dipole Moment: (Debye)
     X:    -0.0000      Y:     0.0000      Z:     1.6696     Total:     1.6696


  Saving occupied orbitals to File 180.

*** tstop() called on QuickSilver.local at Mon Jan 23 14:43:19 2012
Module time:
	user time   =       0.03 seconds =       0.00 minutes
	system time =       0.00 seconds =       0.00 minutes
	total time  =          0 seconds =       0.00 minutes
Total time:
	user time   =       0.06 seconds =       0.00 minutes
	system time =       0.01 seconds =       0.00 minutes
	total time  =          0 seconds =       0.00 minutes

  //>>>>>>>>>>>>>>>>>>>>>>>>>>>>>>>>>>>//
  //    Loading displacement 3 of 5    //
  //<<<<<<<<<<<<<<<<<<<<<<<<<<<<<<<<<<<//

*** tstart() called on QuickSilver.local
*** at Mon Jan 23 14:43:19 2012

	There are an even number of electrons - assuming singlet.
	Specify the multiplicity with the MULTP option in the
	input if this is incorrect


         ---------------------------------------------------------
                                   SCF
            by Justin Turney, Rob Parrish, and Andy Simmonett
                              RHF Reference
                        1 Threads,    250 MiB Core
         ---------------------------------------------------------

  ==> Geometry <==

    Molecular point group: c2v

    Geometry (in Angstrom), charge = 0, multiplicity = 1:

       Center              X                  Y                   Z       
    ------------   -----------------  -----------------  -----------------
           O          0.000000000000     0.000000000000    -0.068516219310
           H          0.000000000000    -0.792553220368     0.543701060724
           H         -0.000000000000     0.792553220368     0.543701060724

    Number of unique atoms: 2

    Atoms equivalency:
       unique atom 0: 0 
       unique atom 1: 1 2 

  Running in c2v symmetry.

  Nuclear repulsion =    8.788215095736607

  Charge       = 0
  Multiplicity = 1
  Electrons    = 10
  Nalpha       = 5
  Nbeta        = 5

  ==> Algorithm <==

  SCF Algorithm Type is PK.
  DIIS disabled.
  MOM disabled.
  Fractional occupation disabled.
  Guess Type is CORE.
  Energy threshold   = 1.00e-10
  Density threshold  = 1.00e-10
  Integral threshold = 0.00e+00

  ==> Primary Basis: STO-3G <==

  Basis Set
    Number of shells: 5
    Number of basis function: 7
    Number of Cartesian functions: 7
    Spherical Harmonics?: true
    Max angular momentum: 1

  ==> Pre-Iterations <==

  Minimum eigenvalue in the overlap matrix is 3.7125954317E-01.
  Using Symmetric Orthogonalization.
  SCF Guess: Core (One-Electron) Hamiltonian.

  Initial RHF energy:   -54.63936676894848

   -------------------------------------------------------
    Irrep   Nso     Nmo     Nalpha   Nbeta   Ndocc  Nsocc
   -------------------------------------------------------
     A1         4       4       3       3       3       0
     A2         0       0       0       0       0       0
     B1         1       1       1       1       1       0
     B2         2       2       1       1       1       0
   -------------------------------------------------------
    Total       7       7       5       5       5       0
   -------------------------------------------------------

  ==> Integral Setup <==

 MINTS: Wrapper to libmints.
   by Justin Turney

   Calculation information:
      Number of atoms:                   3
      Number of AO shells:               5
      Number of SO shells:               4
      Number of primitives:             15
      Number of atomic orbitals:         7
      Number of basis functions:         7

      Number of irreps:                  4
      Number of functions per irrep: [   4    0    1    2 ]

      Overlap, kinetic, potential, dipole, and quadrupole integrals
        stored in file 35.

      Computing two-electron integrals...done
      Computed 138 non-zero two-electron integrals.
        Stored in file 33.

  ==> Iterations <==

                        Total Energy        Delta E     Density RMS

   @RHF iter   1:   -73.25385041701873   -1.86145e+01   0.00000e+00 
   @RHF iter   2:   -74.93083762166522   -1.67699e+00   3.98209e-01 
   @RHF iter   3:   -74.96299986463315   -3.21622e-02   5.62377e-02 
   @RHF iter   4:   -74.96432832551996   -1.32846e-03   9.74728e-03 
   @RHF iter   5:   -74.96448510632617   -1.56781e-04   3.86442e-03 
   @RHF iter   6:   -74.96451351965455   -2.84133e-05   1.55140e-03 
   @RHF iter   7:   -74.96451907446746   -5.55481e-06   6.77128e-04 
   @RHF iter   8:   -74.96452018162876   -1.10716e-06   2.97913e-04 
   @RHF iter   9:   -74.96452040348679   -2.21858e-07   1.32410e-04 
   @RHF iter  10:   -74.96452044801316   -4.45264e-08   5.90636e-05 
   @RHF iter  11:   -74.96452045695349   -8.94033e-09   2.64045e-05 
   @RHF iter  12:   -74.96452045874885   -1.79536e-09   1.18171e-05 
   @RHF iter  13:   -74.96452045910934   -3.60487e-10   5.29186e-06 
   @RHF iter  14:   -74.96452045918177   -7.24327e-11   2.37053e-06 
   @RHF iter  15:   -74.96452045919632   -1.45519e-11   1.06209e-06 
   @RHF iter  16:   -74.96452045919921   -2.88480e-12   4.75903e-07 
   @RHF iter  17:   -74.96452045919978   -5.68434e-13   2.13254e-07 
   @RHF iter  18:   -74.96452045919993   -1.56319e-13   9.55632e-08 
   @RHF iter  19:   -74.96452045919997   -4.26326e-14   4.28243e-08 
   @RHF iter  20:   -74.96452045919996    1.42109e-14   1.91908e-08 
   @RHF iter  21:   -74.96452045919993    2.84217e-14   8.60000e-09 
   @RHF iter  22:   -74.96452045919993    0.00000e+00   3.85394e-09 
   @RHF iter  23:   -74.96452045919995   -1.42109e-14   1.72708e-09 
   @RHF iter  24:   -74.96452045920000   -5.68434e-14   7.73961e-10 
   @RHF iter  25:   -74.96452045919996    4.26326e-14   3.46839e-10 
   @RHF iter  26:   -74.96452045919997   -1.42109e-14   1.55429e-10 

  ==> Post-Iterations <==

	Orbital Energies (a.u.)
	-----------------------

	Doubly Occupied:                                                      

	   1A1   -20.247291     2A1    -1.246966     1B2    -0.595310  
	   3A1    -0.447394     1B1    -0.388796  

	Virtual:                                                              

	   4A1     0.562516     2B2     0.691733  

	Final Occupation by Irrep:
	         A1    A2    B1    B2 
	DOCC [     3,    0,    1,    1 ]

  Energy converged.

  @RHF Final Energy:   -74.96452045919997

  ==> Properties <==
  Nuclear Dipole Moment: (a.u.)
     X:     0.0000      Y:     0.0000      Z:     1.0191

  Electronic Dipole Moment: (a.u.)
     X:     0.0000      Y:     0.0000      Z:    -0.3635

  Dipole Moment: (a.u.)
     X:     0.0000      Y:     0.0000      Z:     0.6556     Total:     0.6556

  Dipole Moment: (Debye)
     X:     0.0000      Y:     0.0000      Z:     1.6662     Total:     1.6662


  Saving occupied orbitals to File 180.

*** tstop() called on QuickSilver.local at Mon Jan 23 14:43:19 2012
Module time:
	user time   =       0.03 seconds =       0.00 minutes
	system time =       0.01 seconds =       0.00 minutes
	total time  =          0 seconds =       0.00 minutes
Total time:
	user time   =       0.09 seconds =       0.00 minutes
	system time =       0.02 seconds =       0.00 minutes
	total time  =          0 seconds =       0.00 minutes

  //>>>>>>>>>>>>>>>>>>>>>>>>>>>>>>>>>>>//
  //    Loading displacement 4 of 5    //
  //<<<<<<<<<<<<<<<<<<<<<<<<<<<<<<<<<<<//

*** tstart() called on QuickSilver.local
*** at Mon Jan 23 14:43:19 2012

	There are an even number of electrons - assuming singlet.
	Specify the multiplicity with the MULTP option in the
	input if this is incorrect


         ---------------------------------------------------------
                                   SCF
            by Justin Turney, Rob Parrish, and Andy Simmonett
                              RHF Reference
                        1 Threads,    250 MiB Core
         ---------------------------------------------------------

  ==> Geometry <==

    Molecular point group: c2v

    Geometry (in Angstrom), charge = 0, multiplicity = 1:

       Center              X                  Y                   Z       
    ------------   -----------------  -----------------  -----------------
           O         -0.000000000000     0.000000000000    -0.068516219310
           H          0.000000000000    -0.788825927119     0.543701060724
           H         -0.000000000000     0.788825927119     0.543701060724

    Number of unique atoms: 2

    Atoms equivalency:
       unique atom 0: 0 
       unique atom 1: 1 2 

  Running in c2v symmetry.

  Nuclear repulsion =    8.814745429922915

  Charge       = 0
  Multiplicity = 1
  Electrons    = 10
  Nalpha       = 5
  Nbeta        = 5

  ==> Algorithm <==

  SCF Algorithm Type is PK.
  DIIS disabled.
  MOM disabled.
  Fractional occupation disabled.
  Guess Type is CORE.
  Energy threshold   = 1.00e-10
  Density threshold  = 1.00e-10
  Integral threshold = 0.00e+00

  ==> Primary Basis: STO-3G <==

  Basis Set
    Number of shells: 5
    Number of basis function: 7
    Number of Cartesian functions: 7
    Spherical Harmonics?: true
    Max angular momentum: 1

  ==> Pre-Iterations <==

  Minimum eigenvalue in the overlap matrix is 3.6930928934E-01.
  Using Symmetric Orthogonalization.
  SCF Guess: Core (One-Electron) Hamiltonian.

  Initial RHF energy:   -54.62913728390147

   -------------------------------------------------------
    Irrep   Nso     Nmo     Nalpha   Nbeta   Ndocc  Nsocc
   -------------------------------------------------------
     A1         4       4       3       3       3       0
     A2         0       0       0       0       0       0
     B1         1       1       1       1       1       0
     B2         2       2       1       1       1       0
   -------------------------------------------------------
    Total       7       7       5       5       5       0
   -------------------------------------------------------

  ==> Integral Setup <==

 MINTS: Wrapper to libmints.
   by Justin Turney

   Calculation information:
      Number of atoms:                   3
      Number of AO shells:               5
      Number of SO shells:               4
      Number of primitives:             15
      Number of atomic orbitals:         7
      Number of basis functions:         7

      Number of irreps:                  4
      Number of functions per irrep: [   4    0    1    2 ]

      Overlap, kinetic, potential, dipole, and quadrupole integrals
        stored in file 35.

      Computing two-electron integrals...done
      Computed 138 non-zero two-electron integrals.
        Stored in file 33.

  ==> Iterations <==

                        Total Energy        Delta E     Density RMS

   @RHF iter   1:   -73.25216800632492   -1.86230e+01   0.00000e+00 
   @RHF iter   2:   -74.93213547442403   -1.67997e+00   3.98553e-01 
   @RHF iter   3:   -74.96332378145203   -3.11883e-02   5.54136e-02 
   @RHF iter   4:   -74.96460773181229   -1.28395e-03   9.62701e-03 
   @RHF iter   5:   -74.96475944715783   -1.51715e-04   3.80729e-03 
   @RHF iter   6:   -74.96478680234003   -2.73552e-05   1.52625e-03 
   @RHF iter   7:   -74.96479212219330   -5.31985e-06   6.64014e-04 
   @RHF iter   8:   -74.96479317722003   -1.05503e-06   2.91397e-04 
   @RHF iter   9:   -74.96479338759923   -2.10379e-07   1.29181e-04 
   @RHF iter  10:   -74.96479342961746   -4.20182e-08   5.74800e-05 
   @RHF iter  11:   -74.96479343801346   -8.39600e-09   2.56334e-05 
   @RHF iter  12:   -74.96479343969136   -1.67790e-09   1.14441e-05 
   @RHF iter  13:   -74.96479344002668   -3.35319e-10   5.11238e-06 
   @RHF iter  14:   -74.96479344009376   -6.70752e-11   2.28459e-06 
   @RHF iter  15:   -74.96479344010712   -1.33582e-11   1.02111e-06 
   @RHF iter  16:   -74.96479344010982   -2.70006e-12   4.56435e-07 
   @RHF iter  17:   -74.96479344011033   -5.11591e-13   2.04037e-07 
   @RHF iter  18:   -74.96479344011050   -1.70530e-13   9.12122e-08 
   @RHF iter  19:   -74.96479344011047    2.84217e-14   4.07759e-08 
   @RHF iter  20:   -74.96479344011047    0.00000e+00   1.82288e-08 
   @RHF iter  21:   -74.96479344011044    2.84217e-14   8.14918e-09 
   @RHF iter  22:   -74.96479344011044    0.00000e+00   3.64310e-09 
   @RHF iter  23:   -74.96479344011047   -2.84217e-14   1.62865e-09 
   @RHF iter  24:   -74.96479344011044    2.84217e-14   7.28095e-10 
   @RHF iter  25:   -74.96479344011041    2.84217e-14   3.25498e-10 
   @RHF iter  26:   -74.96479344011044   -2.84217e-14   1.45514e-10 

  ==> Post-Iterations <==

	Orbital Energies (a.u.)
	-----------------------

	Doubly Occupied:                                                      

	   1A1   -20.247250     2A1    -1.248586     1B2    -0.596391  
	   3A1    -0.448375     1B1    -0.389118  

	Virtual:                                                              

	   4A1     0.565789     2B2     0.694282  

	Final Occupation by Irrep:
	         A1    A2    B1    B2 
	DOCC [     3,    0,    1,    1 ]

  Energy converged.

  @RHF Final Energy:   -74.96479344011044

  ==> Properties <==
  Nuclear Dipole Moment: (a.u.)
     X:    -0.0000      Y:     0.0000      Z:     1.0191

  Electronic Dipole Moment: (a.u.)
     X:     0.0000      Y:     0.0000      Z:    -0.3614

  Dipole Moment: (a.u.)
     X:    -0.0000      Y:     0.0000      Z:     0.6577     Total:     0.6577

  Dipole Moment: (Debye)
     X:    -0.0000      Y:     0.0000      Z:     1.6717     Total:     1.6717


  Saving occupied orbitals to File 180.

*** tstop() called on QuickSilver.local at Mon Jan 23 14:43:19 2012
Module time:
	user time   =       0.03 seconds =       0.00 minutes
	system time =       0.01 seconds =       0.00 minutes
	total time  =          0 seconds =       0.00 minutes
Total time:
	user time   =       0.12 seconds =       0.00 minutes
	system time =       0.03 seconds =       0.00 minutes
	total time  =          0 seconds =       0.00 minutes

  //>>>>>>>>>>>>>>>>>>>>>>>>>>>>>>>>>>>//
  //    Loading displacement 5 of 5    //
  //<<<<<<<<<<<<<<<<<<<<<<<<<<<<<<<<<<<//

*** tstart() called on QuickSilver.local
*** at Mon Jan 23 14:43:19 2012

	There are an even number of electrons - assuming singlet.
	Specify the multiplicity with the MULTP option in the
	input if this is incorrect


         ---------------------------------------------------------
                                   SCF
            by Justin Turney, Rob Parrish, and Andy Simmonett
                              RHF Reference
                        1 Threads,    250 MiB Core
         ---------------------------------------------------------

  ==> Geometry <==

    Molecular point group: c2v

    Geometry (in Angstrom), charge = 0, multiplicity = 1:

       Center              X                  Y                   Z       
    ------------   -----------------  -----------------  -----------------
           O         -0.000000000000     0.000000000000    -0.068516219310
           H          0.000000000000    -0.790689573744     0.543701060724
           H         -0.000000000000     0.790689573744     0.543701060724

    Number of unique atoms: 2

    Atoms equivalency:
       unique atom 0: 0 
       unique atom 1: 1 2 

  Running in c2v symmetry.

  Nuclear repulsion =    8.801465529972067

  Charge       = 0
  Multiplicity = 1
  Electrons    = 10
  Nalpha       = 5
  Nbeta        = 5

  ==> Algorithm <==

  SCF Algorithm Type is PK.
  DIIS disabled.
  MOM disabled.
  Fractional occupation disabled.
  Guess Type is CORE.
  Energy threshold   = 1.00e-10
  Density threshold  = 1.00e-10
  Integral threshold = 0.00e+00

  ==> Primary Basis: STO-3G <==

  Basis Set
    Number of shells: 5
    Number of basis function: 7
    Number of Cartesian functions: 7
    Spherical Harmonics?: true
    Max angular momentum: 1

  ==> Pre-Iterations <==

  Minimum eigenvalue in the overlap matrix is 3.7028400642E-01.
  Using Symmetric Orthogonalization.
  SCF Guess: Core (One-Electron) Hamiltonian.

  Initial RHF energy:   -54.63426083487271

   -------------------------------------------------------
    Irrep   Nso     Nmo     Nalpha   Nbeta   Ndocc  Nsocc
   -------------------------------------------------------
     A1         4       4       3       3       3       0
     A2         0       0       0       0       0       0
     B1         1       1       1       1       1       0
     B2         2       2       1       1       1       0
   -------------------------------------------------------
    Total       7       7       5       5       5       0
   -------------------------------------------------------

  ==> Integral Setup <==

 MINTS: Wrapper to libmints.
   by Justin Turney

   Calculation information:
      Number of atoms:                   3
      Number of AO shells:               5
      Number of SO shells:               4
      Number of primitives:             15
      Number of atomic orbitals:         7
      Number of basis functions:         7

      Number of irreps:                  4
      Number of functions per irrep: [   4    0    1    2 ]

      Overlap, kinetic, potential, dipole, and quadrupole integrals
        stored in file 35.

      Computing two-electron integrals...done
      Computed 138 non-zero two-electron integrals.
        Stored in file 33.

  ==> Iterations <==

                        Total Energy        Delta E     Density RMS

   @RHF iter   1:   -73.25301168566617   -1.86188e+01   0.00000e+00 
   @RHF iter   2:   -74.93149650876840   -1.67848e+00   3.98379e-01 
   @RHF iter   3:   -74.96316771149122   -3.16712e-02   5.58235e-02 
   @RHF iter   4:   -74.96447365182996   -1.30594e-03   9.68664e-03 
   @RHF iter   5:   -74.96462787362444   -1.54222e-04   3.83566e-03 
   @RHF iter   6:   -74.96465575209834   -2.78785e-05   1.53875e-03 
   @RHF iter   7:   -74.96466118801398   -5.43592e-06   6.70528e-04 
   @RHF iter   8:   -74.96466226876265   -1.08075e-06   2.94632e-04 
   @RHF iter   9:   -74.96466248479857   -2.16036e-07   1.30783e-04 
   @RHF iter  10:   -74.96466252805119   -4.32526e-08   5.82654e-05 
   @RHF iter  11:   -74.96466253671484   -8.66365e-09   2.60156e-05 
   @RHF iter  12:   -74.96466253845041   -1.73557e-09   1.16289e-05 
   @RHF iter  13:   -74.96466253879805   -3.47640e-10   5.20124e-06 
   @RHF iter  14:   -74.96466253886777   -6.97185e-11   2.32712e-06 
   @RHF iter  15:   -74.96466253888168   -1.39124e-11   1.04138e-06 
   @RHF iter  16:   -74.96466253888450   -2.81375e-12   4.66057e-07 
   @RHF iter  17:   -74.96466253888509   -5.96856e-13   2.08590e-07 
   @RHF iter  18:   -74.96466253888518   -8.52651e-14   9.33600e-08 
   @RHF iter  19:   -74.96466253888518    0.00000e+00   4.17865e-08 
   @RHF iter  20:   -74.96466253888521   -2.84217e-14   1.87031e-08 
   @RHF iter  21:   -74.96466253888519    1.42109e-14   8.37133e-09 
   @RHF iter  22:   -74.96466253888519    0.00000e+00   3.74693e-09 
   @RHF iter  23:   -74.96466253888521   -1.42109e-14   1.67710e-09 
   @RHF iter  24:   -74.96466253888519    1.42109e-14   7.50654e-10 
   @RHF iter  25:   -74.96466253888519    0.00000e+00   3.35988e-10 
   @RHF iter  26:   -74.96466253888519    0.00000e+00   1.50387e-10 

  ==> Post-Iterations <==

	Orbital Energies (a.u.)
	-----------------------

	Doubly Occupied:                                                      

	   1A1   -20.247270     2A1    -1.247775     1B2    -0.595851  
	   3A1    -0.447884     1B1    -0.388956  

	Virtual:                                                              

	   4A1     0.564152     2B2     0.693007  

	Final Occupation by Irrep:
	         A1    A2    B1    B2 
	DOCC [     3,    0,    1,    1 ]

  Energy converged.

  @RHF Final Energy:   -74.96466253888519

  ==> Properties <==
  Nuclear Dipole Moment: (a.u.)
     X:     0.0000      Y:     0.0000      Z:     1.0191

  Electronic Dipole Moment: (a.u.)
     X:     0.0000      Y:     0.0000      Z:    -0.3624

  Dipole Moment: (a.u.)
     X:     0.0000      Y:     0.0000      Z:     0.6566     Total:     0.6566

  Dipole Moment: (Debye)
     X:     0.0000      Y:     0.0000      Z:     1.6690     Total:     1.6690


  Saving occupied orbitals to File 180.

*** tstop() called on QuickSilver.local at Mon Jan 23 14:43:19 2012
Module time:
	user time   =       0.03 seconds =       0.00 minutes
	system time =       0.00 seconds =       0.00 minutes
	total time  =          0 seconds =       0.00 minutes
Total time:
	user time   =       0.15 seconds =       0.00 minutes
	system time =       0.03 seconds =       0.00 minutes
	total time  =          0 seconds =       0.00 minutes

-------------------------------------------------------------

  Computing gradient from energies (fd_1_0).
	Using 3-point formula.
	Energy without displacement:  -74.9646625389
	Check energies below for precision!
	Forces are for mass-weighted, symmetry-adapted cartesians (in au).

	 Coord      Energy(-)        Energy(+)        Force
	    0    -74.9646650041   -74.9646519345     0.0013069673
	    1    -74.9645204592   -74.9647934401    -0.0272980910

	Gradient written to file11.
	Gradent saved to wavefunction.

-------------------------------------------------------------

			----------------------------------
			 OPTKING: for geometry optimizations  
			  - R.A. King,  Bethel University   
			------------------------------------

	Internal coordinates to be generated automatically.
	Detected frag with atoms:  1 2 3
	---Fragment 1 Bond Connectivity---
	 1 : 2 3
	 2 : 1
	 3 : 1

	---Fragment 1 Geometry and Gradient---
	 O          -0.0000000000        0.0000000000       -0.1294768902
	 H           0.0000000000       -1.4941867505        1.0274461029
	 H          -0.0000000000        1.4941867505        1.0274461029
	             0.0000000000        0.0000000000        0.0017486367
	             0.0000000000       -0.0193780401       -0.0008743184
	             0.0000000000        0.0193780401       -0.0008743184

	Previous optimization step data not found.  Starting new optimization.

	---Fragment 1 Intrafragment Coordinates---
	 * Coordinate *           * BOHR/RAD *       * ANG/DEG *
	 R(1,2)           =         1.889726	       1.000000
	 R(1,3)           =         1.889726	       1.000000
	 B(2,1,3)         =         1.823869	     104.500000

	Current energy   :       -74.9646625389

	Generating empirical Hessian (Fischer & Almlof '92) for each fragment.
	Following RFO solution 0.
	Projected energy change by RFO approximation:        -0.0017266304

	Back-transformation to cartesian coordinates...
	Successfully converged to displaced geometry.

	---Internal Coordinate Step in ANG or DEG, aJ/ANG or AJ/DEG ---
	 ----------------------------------------------------------------------
	 Coordinate             Previous        Force       Change         New 
	 ----------             --------       ------       ------       ------
	 R(1,2)          =      1.000000    -0.121824    -0.024004     0.975996
	 R(1,3)          =      1.000000    -0.121824    -0.024004     0.975996
	 B(2,1,3)        =    104.500000    -0.001805    -5.099837    99.400163
	 ----------------------------------------------------------------------

	Convergence Check Cycle    1: (using internal coordinates in au)
	                    Actual        Tolerance     Converged?
	----------------------------------------------------------
	MAX Force           2.4e-02        3.0e-04          no
	Energy Change      -7.5e+01        1.0e-06          no
	MAX Displacement    8.9e-02        1.2e-03          no
	----------------------------------------------------------
	Writing optimization data to binary file.
	Structure for next step:
	Cartesian Geometry (au)
	    O     0.0000000000   0.0000000000  -0.1335048421
	    H     0.0000000000  -1.4066401992   1.0594093633
	    H    -0.0000000000   1.4066401992   1.0594093633
			--------------------------
			 OPTKING Finished Execution 
			--------------------------

-------------------------------------------------------------

  Using finite-differences of energies to determine gradients (fd_geoms_1_0).
	Generating geometries for use with 3-point formula.
	Displacement size will be 5.00e-03.
	Number of atoms is 3.
	Number of symmetric SALC's is 2.
	Number of displacements (including reference) is 5.

-------------------------------------------------------------

  //>>>>>>>>>>>>>>>>>>>>>>>>>>>>>>>>>>>//
  //    Loading displacement 1 of 5    //
  //<<<<<<<<<<<<<<<<<<<<<<<<<<<<<<<<<<<//

*** tstart() called on QuickSilver.local
*** at Mon Jan 23 14:43:19 2012

	There are an even number of electrons - assuming singlet.
	Specify the multiplicity with the MULTP option in the
	input if this is incorrect


         ---------------------------------------------------------
                                   SCF
            by Justin Turney, Rob Parrish, and Andy Simmonett
                              RHF Reference
                        1 Threads,    250 MiB Core
         ---------------------------------------------------------

  ==> Geometry <==

    Molecular point group: c2v

    Geometry (in Angstrom), charge = 0, multiplicity = 1:

       Center              X                  Y                   Z       
    ------------   -----------------  -----------------  -----------------
           O          0.000000000000     0.000000000000    -0.070869041427
           H          0.000000000000    -0.744361934087     0.562371557919
           H         -0.000000000000     0.744361934087     0.562371557919

    Number of unique atoms: 2

    Atoms equivalency:
       unique atom 0: 0 
       unique atom 1: 1 2 

  Running in c2v symmetry.

  Nuclear repulsion =    9.019166553553495

  Charge       = 0
  Multiplicity = 1
  Electrons    = 10
  Nalpha       = 5
  Nbeta        = 5

  ==> Algorithm <==

  SCF Algorithm Type is PK.
  DIIS disabled.
  MOM disabled.
  Fractional occupation disabled.
  Guess Type is CORE.
  Energy threshold   = 1.00e-10
  Density threshold  = 1.00e-10
  Integral threshold = 0.00e+00

  ==> Primary Basis: STO-3G <==

  Basis Set
    Number of shells: 5
    Number of basis function: 7
    Number of Cartesian functions: 7
    Spherical Harmonics?: true
    Max angular momentum: 1

  ==> Pre-Iterations <==

  Minimum eigenvalue in the overlap matrix is 3.5524972723E-01.
  Using Symmetric Orthogonalization.
  SCF Guess: Core (One-Electron) Hamiltonian.

  Initial RHF energy:   -54.54233339283499

   -------------------------------------------------------
    Irrep   Nso     Nmo     Nalpha   Nbeta   Ndocc  Nsocc
   -------------------------------------------------------
     A1         4       4       3       3       3       0
     A2         0       0       0       0       0       0
     B1         1       1       1       1       1       0
     B2         2       2       1       1       1       0
   -------------------------------------------------------
    Total       7       7       5       5       5       0
   -------------------------------------------------------

  ==> Integral Setup <==

 MINTS: Wrapper to libmints.
   by Justin Turney

   Calculation information:
      Number of atoms:                   3
      Number of AO shells:               5
      Number of SO shells:               4
      Number of primitives:             15
      Number of atomic orbitals:         7
      Number of basis functions:         7

      Number of irreps:                  4
      Number of functions per irrep: [   4    0    1    2 ]

      Overlap, kinetic, potential, dipole, and quadrupole integrals
        stored in file 35.

      Computing two-electron integrals...done
      Computed 138 non-zero two-electron integrals.
        Stored in file 33.

  ==> Iterations <==

                        Total Energy        Delta E     Density RMS

   @RHF iter   1:   -73.23398276541757   -1.86916e+01   0.00000e+00 
   @RHF iter   2:   -74.93490291431615   -1.70092e+00   4.03045e-01 
   @RHF iter   3:   -74.96423916874848   -2.93363e-02   5.43154e-02 
   @RHF iter   4:   -74.96536457221993   -1.12540e-03   9.13334e-03 
   @RHF iter   5:   -74.96548612035689   -1.21548e-04   3.45344e-03 
   @RHF iter   6:   -74.96550669755180   -2.05772e-05   1.33971e-03 
   @RHF iter   7:   -74.96551052262288   -3.82507e-06   5.67517e-04 
   @RHF iter   8:   -74.96551125227684   -7.29654e-07   2.43646e-04 
   @RHF iter   9:   -74.96551139250481   -1.40228e-07   1.05860e-04 
   @RHF iter  10:   -74.96551141951396   -2.70092e-08   4.62135e-05 
   @RHF iter  11:   -74.96551142471957   -5.20561e-09   2.02296e-05 
   @RHF iter  12:   -74.96551142572299   -1.00343e-09   8.86762e-06 
   @RHF iter  13:   -74.96551142591646   -1.93467e-10   3.89005e-06 
   @RHF iter  14:   -74.96551142595381   -3.73461e-11   1.70718e-06 
   @RHF iter  15:   -74.96551142596095   -7.14806e-12   7.49377e-07 
   @RHF iter  16:   -74.96551142596235   -1.39266e-12   3.28983e-07 
   @RHF iter  17:   -74.96551142596262   -2.70006e-13   1.44436e-07 
   @RHF iter  18:   -74.96551142596267   -5.68434e-14   6.34153e-08 
   @RHF iter  19:   -74.96551142596266    1.42109e-14   2.78433e-08 
   @RHF iter  20:   -74.96551142596272   -5.68434e-14   1.22251e-08 
   @RHF iter  21:   -74.96551142596267    4.26326e-14   5.36767e-09 
   @RHF iter  22:   -74.96551142596269   -1.42109e-14   2.35679e-09 
   @RHF iter  23:   -74.96551142596267    1.42109e-14   1.03480e-09 
   @RHF iter  24:   -74.96551142596265    2.84217e-14   4.54353e-10 
   @RHF iter  25:   -74.96551142596265    0.00000e+00   1.99494e-10 

  ==> Post-Iterations <==

	Orbital Energies (a.u.)
	-----------------------

	Doubly Occupied:                                                      

	   1A1   -20.250923     2A1    -1.264341     1B2    -0.598499  
	   3A1    -0.463098     1B1    -0.393756  

	Virtual:                                                              

	   4A1     0.594549     2B2     0.704367  

	Final Occupation by Irrep:
	         A1    A2    B1    B2 
	DOCC [     3,    0,    1,    1 ]

  Energy converged.

  @RHF Final Energy:   -74.96551142596265

  ==> Properties <==
  Nuclear Dipole Moment: (a.u.)
     X:     0.0000      Y:     0.0000      Z:     1.0541

  Electronic Dipole Moment: (a.u.)
     X:     0.0000      Y:     0.0000      Z:    -0.3730

  Dipole Moment: (a.u.)
     X:     0.0000      Y:     0.0000      Z:     0.6811     Total:     0.6811

  Dipole Moment: (Debye)
     X:     0.0000      Y:     0.0000      Z:     1.7311     Total:     1.7311


  Saving occupied orbitals to File 180.

*** tstop() called on QuickSilver.local at Mon Jan 23 14:43:19 2012
Module time:
	user time   =       0.03 seconds =       0.00 minutes
	system time =       0.01 seconds =       0.00 minutes
	total time  =          0 seconds =       0.00 minutes
Total time:
	user time   =       0.18 seconds =       0.00 minutes
	system time =       0.04 seconds =       0.00 minutes
	total time  =          0 seconds =       0.00 minutes

  //>>>>>>>>>>>>>>>>>>>>>>>>>>>>>>>>>>>//
  //    Loading displacement 2 of 5    //
  //<<<<<<<<<<<<<<<<<<<<<<<<<<<<<<<<<<<//

*** tstart() called on QuickSilver.local
*** at Mon Jan 23 14:43:19 2012

	There are an even number of electrons - assuming singlet.
	Specify the multiplicity with the MULTP option in the
	input if this is incorrect


         ---------------------------------------------------------
                                   SCF
            by Justin Turney, Rob Parrish, and Andy Simmonett
                              RHF Reference
                        1 Threads,    250 MiB Core
         ---------------------------------------------------------

  ==> Geometry <==

    Molecular point group: c2v

    Geometry (in Angstrom), charge = 0, multiplicity = 1:

       Center              X                  Y                   Z       
    ------------   -----------------  -----------------  -----------------
           O          0.000000000000     0.000000000000    -0.070426397947
           H          0.000000000000    -0.744361934087     0.558859021296
           H         -0.000000000000     0.744361934087     0.558859021296

    Number of unique atoms: 2

    Atoms equivalency:
       unique atom 0: 0 
       unique atom 1: 1 2 

  Running in c2v symmetry.

  Nuclear repulsion =    9.041904600001217

  Charge       = 0
  Multiplicity = 1
  Electrons    = 10
  Nalpha       = 5
  Nbeta        = 5

  ==> Algorithm <==

  SCF Algorithm Type is PK.
  DIIS disabled.
  MOM disabled.
  Fractional occupation disabled.
  Guess Type is CORE.
  Energy threshold   = 1.00e-10
  Density threshold  = 1.00e-10
  Integral threshold = 0.00e+00

  ==> Primary Basis: STO-3G <==

  Basis Set
    Number of shells: 5
    Number of basis function: 7
    Number of Cartesian functions: 7
    Spherical Harmonics?: true
    Max angular momentum: 1

  ==> Pre-Iterations <==

  Minimum eigenvalue in the overlap matrix is 3.5355409996E-01.
  Using Symmetric Orthogonalization.
  SCF Guess: Core (One-Electron) Hamiltonian.

  Initial RHF energy:   -54.53469650173436

   -------------------------------------------------------
    Irrep   Nso     Nmo     Nalpha   Nbeta   Ndocc  Nsocc
   -------------------------------------------------------
     A1         4       4       3       3       3       0
     A2         0       0       0       0       0       0
     B1         1       1       1       1       1       0
     B2         2       2       1       1       1       0
   -------------------------------------------------------
    Total       7       7       5       5       5       0
   -------------------------------------------------------

  ==> Integral Setup <==

 MINTS: Wrapper to libmints.
   by Justin Turney

   Calculation information:
      Number of atoms:                   3
      Number of AO shells:               5
      Number of SO shells:               4
      Number of primitives:             15
      Number of atomic orbitals:         7
      Number of basis functions:         7

      Number of irreps:                  4
      Number of functions per irrep: [   4    0    1    2 ]

      Overlap, kinetic, potential, dipole, and quadrupole integrals
        stored in file 35.

      Computing two-electron integrals...done
      Computed 138 non-zero two-electron integrals.
        Stored in file 33.

  ==> Iterations <==

                        Total Energy        Delta E     Density RMS

   @RHF iter   1:   -73.23336226211650   -1.86987e+01   0.00000e+00 
   @RHF iter   2:   -74.93636665648049   -1.70300e+00   4.03129e-01 
   @RHF iter   3:   -74.96416271262326   -2.77961e-02   5.28752e-02 
   @RHF iter   4:   -74.96523806560573   -1.07535e-03   8.99924e-03 
   @RHF iter   5:   -74.96535638548129   -1.18320e-04   3.41137e-03 
   @RHF iter   6:   -74.96537641773486   -2.00323e-05   1.32669e-03 
   @RHF iter   7:   -74.96538012903484   -3.71130e-06   5.60835e-04 
   @RHF iter   8:   -74.96538083424434   -7.05210e-07   2.40384e-04 
   @RHF iter   9:   -74.96538096923912   -1.34995e-07   1.04239e-04 
   @RHF iter  10:   -74.96538099513734   -2.58982e-08   4.54167e-05 
   @RHF iter  11:   -74.96538100010901   -4.97167e-09   1.98415e-05 
   @RHF iter  12:   -74.96538100106365   -9.54643e-10   8.68024e-06 
   @RHF iter  13:   -74.96538100124702   -1.83377e-10   3.80029e-06 
   @RHF iter  14:   -74.96538100128213   -3.51008e-11   1.66448e-06 
   @RHF iter  15:   -74.96538100128890   -6.77858e-12   7.29186e-07 
   @RHF iter  16:   -74.96538100129023   -1.32161e-12   3.19485e-07 
   @RHF iter  17:   -74.96538100129050   -2.70006e-13   1.39988e-07 
   @RHF iter  18:   -74.96538100129055   -5.68434e-14   6.13406e-08 
   @RHF iter  19:   -74.96538100129054    1.42109e-14   2.68791e-08 
   @RHF iter  20:   -74.96538100129055   -1.42109e-14   1.17783e-08 
   @RHF iter  21:   -74.96538100129054    1.42109e-14   5.16128e-09 
   @RHF iter  22:   -74.96538100129050    4.26326e-14   2.26168e-09 
   @RHF iter  23:   -74.96538100129058   -8.52651e-14   9.91076e-10 
   @RHF iter  24:   -74.96538100129058    0.00000e+00   4.34291e-10 
   @RHF iter  25:   -74.96538100129057    1.42109e-14   1.90310e-10 

  ==> Post-Iterations <==

	Orbital Energies (a.u.)
	-----------------------

	Doubly Occupied:                                                      

	   1A1   -20.250194     2A1    -1.265234     1B2    -0.600425  
	   3A1    -0.462590     1B1    -0.393669  

	Virtual:                                                              

	   4A1     0.596510     2B2     0.708224  

	Final Occupation by Irrep:
	         A1    A2    B1    B2 
	DOCC [     3,    0,    1,    1 ]

  Energy converged.

  @RHF Final Energy:   -74.96538100129057

  ==> Properties <==
  Nuclear Dipole Moment: (a.u.)
     X:     0.0000      Y:     0.0000      Z:     1.0475

  Electronic Dipole Moment: (a.u.)
     X:     0.0000      Y:     0.0000      Z:    -0.3658

  Dipole Moment: (a.u.)
     X:     0.0000      Y:     0.0000      Z:     0.6817     Total:     0.6817

  Dipole Moment: (Debye)
     X:     0.0000      Y:     0.0000      Z:     1.7326     Total:     1.7326


  Saving occupied orbitals to File 180.

*** tstop() called on QuickSilver.local at Mon Jan 23 14:43:19 2012
Module time:
	user time   =       0.03 seconds =       0.00 minutes
	system time =       0.00 seconds =       0.00 minutes
	total time  =          0 seconds =       0.00 minutes
Total time:
	user time   =       0.21 seconds =       0.00 minutes
	system time =       0.04 seconds =       0.00 minutes
	total time  =          0 seconds =       0.00 minutes

  //>>>>>>>>>>>>>>>>>>>>>>>>>>>>>>>>>>>//
  //    Loading displacement 3 of 5    //
  //<<<<<<<<<<<<<<<<<<<<<<<<<<<<<<<<<<<//

*** tstart() called on QuickSilver.local
*** at Mon Jan 23 14:43:19 2012

	There are an even number of electrons - assuming singlet.
	Specify the multiplicity with the MULTP option in the
	input if this is incorrect


         ---------------------------------------------------------
                                   SCF
            by Justin Turney, Rob Parrish, and Andy Simmonett
                              RHF Reference
                        1 Threads,    250 MiB Core
         ---------------------------------------------------------

  ==> Geometry <==

    Molecular point group: c2v

    Geometry (in Angstrom), charge = 0, multiplicity = 1:

       Center              X                  Y                   Z       
    ------------   -----------------  -----------------  -----------------
           O          0.000000000000     0.000000000000    -0.070647719687
           H          0.000000000000    -0.746225580712     0.560615289607
           H         -0.000000000000     0.746225580712     0.560615289607

    Number of unique atoms: 2

    Atoms equivalency:
       unique atom 0: 0 
       unique atom 1: 1 2 

  Running in c2v symmetry.

  Nuclear repulsion =    9.017021550422335

  Charge       = 0
  Multiplicity = 1
  Electrons    = 10
  Nalpha       = 5
  Nbeta        = 5

  ==> Algorithm <==

  SCF Algorithm Type is PK.
  DIIS disabled.
  MOM disabled.
  Fractional occupation disabled.
  Guess Type is CORE.
  Energy threshold   = 1.00e-10
  Density threshold  = 1.00e-10
  Integral threshold = 0.00e+00

  ==> Primary Basis: STO-3G <==

  Basis Set
    Number of shells: 5
    Number of basis function: 7
    Number of Cartesian functions: 7
    Spherical Harmonics?: true
    Max angular momentum: 1

  ==> Pre-Iterations <==

  Minimum eigenvalue in the overlap matrix is 3.5532927151E-01.
  Using Symmetric Orthogonalization.
  SCF Guess: Core (One-Electron) Hamiltonian.

  Initial RHF energy:   -54.54388845733889

   -------------------------------------------------------
    Irrep   Nso     Nmo     Nalpha   Nbeta   Ndocc  Nsocc
   -------------------------------------------------------
     A1         4       4       3       3       3       0
     A2         0       0       0       0       0       0
     B1         1       1       1       1       1       0
     B2         2       2       1       1       1       0
   -------------------------------------------------------
    Total       7       7       5       5       5       0
   -------------------------------------------------------

  ==> Integral Setup <==

 MINTS: Wrapper to libmints.
   by Justin Turney

   Calculation information:
      Number of atoms:                   3
      Number of AO shells:               5
      Number of SO shells:               4
      Number of primitives:             15
      Number of atomic orbitals:         7
      Number of basis functions:         7

      Number of irreps:                  4
      Number of functions per irrep: [   4    0    1    2 ]

      Overlap, kinetic, potential, dipole, and quadrupole integrals
        stored in file 35.

      Computing two-electron integrals...done
      Computed 138 non-zero two-electron integrals.
        Stored in file 33.

  ==> Iterations <==

                        Total Energy        Delta E     Density RMS

   @RHF iter   1:   -73.23459797496719   -1.86907e+01   0.00000e+00 
   @RHF iter   2:   -74.93534425451833   -1.70075e+00   4.02870e-01 
   @RHF iter   3:   -74.96428526568087   -2.89410e-02   5.39211e-02 
   @RHF iter   4:   -74.96540110316093   -1.11584e-03   9.11067e-03 
   @RHF iter   5:   -74.96552273942723   -1.21636e-04   3.45382e-03 
   @RHF iter   6:   -74.96554338573330   -2.06463e-05   1.34268e-03 
   @RHF iter   7:   -74.96554722671627   -3.84098e-06   5.69026e-04 
   @RHF iter   8:   -74.96554795966890   -7.32953e-07   2.44386e-04 
   @RHF iter   9:   -74.96554810056577   -1.40897e-07   1.06203e-04 
   @RHF iter  10:   -74.96554812770964   -2.71439e-08   4.63704e-05 
   @RHF iter  11:   -74.96554813294230   -5.23266e-09   2.03009e-05 
   @RHF iter  12:   -74.96554813395122   -1.00891e-09   8.89990e-06 
   @RHF iter  13:   -74.96554813414573   -1.94518e-10   3.90464e-06 
   @RHF iter  14:   -74.96554813418325   -3.75167e-11   1.71376e-06 
   @RHF iter  15:   -74.96554813419050   -7.24754e-12   7.52346e-07 
   @RHF iter  16:   -74.96554813419189   -1.39266e-12   3.30321e-07 
   @RHF iter  17:   -74.96554813419218   -2.84217e-13   1.45039e-07 
   @RHF iter  18:   -74.96554813419220   -2.84217e-14   6.36865e-08 
   @RHF iter  19:   -74.96554813419226   -5.68434e-14   2.79653e-08 
   @RHF iter  20:   -74.96554813419218    8.52651e-14   1.22799e-08 
   @RHF iter  21:   -74.96554813419226   -8.52651e-14   5.39230e-09 
   @RHF iter  22:   -74.96554813419223    2.84217e-14   2.36785e-09 
   @RHF iter  23:   -74.96554813419223    0.00000e+00   1.03977e-09 
   @RHF iter  24:   -74.96554813419220    2.84217e-14   4.56580e-10 
   @RHF iter  25:   -74.96554813419220    0.00000e+00   2.00493e-10 

  ==> Post-Iterations <==

	Orbital Energies (a.u.)
	-----------------------

	Doubly Occupied:                                                      

	   1A1   -20.250578     2A1    -1.263924     1B2    -0.598999  
	   3A1    -0.462341     1B1    -0.393544  

	Virtual:                                                              

	   4A1     0.593960     2B2     0.705030  

	Final Occupation by Irrep:
	         A1    A2    B1    B2 
	DOCC [     3,    0,    1,    1 ]

  Energy converged.

  @RHF Final Energy:   -74.96554813419220

  ==> Properties <==
  Nuclear Dipole Moment: (a.u.)
     X:     0.0000      Y:     0.0000      Z:     1.0508

  Electronic Dipole Moment: (a.u.)
     X:     0.0000      Y:     0.0000      Z:    -0.3705

  Dipole Moment: (a.u.)
     X:     0.0000      Y:     0.0000      Z:     0.6802     Total:     0.6802

  Dipole Moment: (Debye)
     X:     0.0000      Y:     0.0000      Z:     1.7290     Total:     1.7290


  Saving occupied orbitals to File 180.

*** tstop() called on QuickSilver.local at Mon Jan 23 14:43:19 2012
Module time:
	user time   =       0.03 seconds =       0.00 minutes
	system time =       0.01 seconds =       0.00 minutes
	total time  =          0 seconds =       0.00 minutes
Total time:
	user time   =       0.24 seconds =       0.00 minutes
	system time =       0.05 seconds =       0.00 minutes
	total time  =          0 seconds =       0.00 minutes

  //>>>>>>>>>>>>>>>>>>>>>>>>>>>>>>>>>>>//
  //    Loading displacement 4 of 5    //
  //<<<<<<<<<<<<<<<<<<<<<<<<<<<<<<<<<<<//

*** tstart() called on QuickSilver.local
*** at Mon Jan 23 14:43:19 2012

	There are an even number of electrons - assuming singlet.
	Specify the multiplicity with the MULTP option in the
	input if this is incorrect


         ---------------------------------------------------------
                                   SCF
            by Justin Turney, Rob Parrish, and Andy Simmonett
                              RHF Reference
                        1 Threads,    250 MiB Core
         ---------------------------------------------------------

  ==> Geometry <==

    Molecular point group: c2v

    Geometry (in Angstrom), charge = 0, multiplicity = 1:

       Center              X                  Y                   Z       
    ------------   -----------------  -----------------  -----------------
           O          0.000000000000     0.000000000000    -0.070647719687
           H          0.000000000000    -0.742498287463     0.560615289607
           H         -0.000000000000     0.742498287463     0.560615289607

    Number of unique atoms: 2

    Atoms equivalency:
       unique atom 0: 0 
       unique atom 1: 1 2 

  Running in c2v symmetry.

  Nuclear repulsion =    9.044068541521685

  Charge       = 0
  Multiplicity = 1
  Electrons    = 10
  Nalpha       = 5
  Nbeta        = 5

  ==> Algorithm <==

  SCF Algorithm Type is PK.
  DIIS disabled.
  MOM disabled.
  Fractional occupation disabled.
  Guess Type is CORE.
  Energy threshold   = 1.00e-10
  Density threshold  = 1.00e-10
  Integral threshold = 0.00e+00

  ==> Primary Basis: STO-3G <==

  Basis Set
    Number of shells: 5
    Number of basis function: 7
    Number of Cartesian functions: 7
    Spherical Harmonics?: true
    Max angular momentum: 1

  ==> Pre-Iterations <==

  Minimum eigenvalue in the overlap matrix is 3.5347353542E-01.
  Using Symmetric Orthogonalization.
  SCF Guess: Core (One-Electron) Hamiltonian.

  Initial RHF energy:   -54.53312920175158

   -------------------------------------------------------
    Irrep   Nso     Nmo     Nalpha   Nbeta   Ndocc  Nsocc
   -------------------------------------------------------
     A1         4       4       3       3       3       0
     A2         0       0       0       0       0       0
     B1         1       1       1       1       1       0
     B2         2       2       1       1       1       0
   -------------------------------------------------------
    Total       7       7       5       5       5       0
   -------------------------------------------------------

  ==> Integral Setup <==

 MINTS: Wrapper to libmints.
   by Justin Turney

   Calculation information:
      Number of atoms:                   3
      Number of AO shells:               5
      Number of SO shells:               4
      Number of primitives:             15
      Number of atomic orbitals:         7
      Number of basis functions:         7

      Number of irreps:                  4
      Number of functions per irrep: [   4    0    1    2 ]

      Overlap, kinetic, potential, dipole, and quadrupole integrals
        stored in file 35.

      Computing two-electron integrals...done
      Computed 138 non-zero two-electron integrals.
        Stored in file 33.

  ==> Iterations <==

                        Total Energy        Delta E     Density RMS

   @RHF iter   1:   -73.23274545813734   -1.86996e+01   0.00000e+00 
   @RHF iter   2:   -74.93593081754877   -1.70319e+00   4.03305e-01 
   @RHF iter   3:   -74.96411368814469   -2.81829e-02   5.32687e-02 
   @RHF iter   4:   -74.96519828020479   -1.08459e-03   9.02154e-03 
   @RHF iter   5:   -74.96531653162053   -1.18251e-04   3.41119e-03 
   @RHF iter   6:   -74.96533650070083   -1.99691e-05   1.32390e-03 
   @RHF iter   7:   -74.96534019732360   -3.69662e-06   5.59399e-04 
   @RHF iter   8:   -74.96534089948362   -7.02160e-07   2.39677e-04 
   @RHF iter   9:   -74.96534103385980   -1.34376e-07   1.03910e-04 
   @RHF iter  10:   -74.96534105963345   -2.57736e-08   4.52664e-05 
   @RHF iter  11:   -74.96534106458014   -4.94670e-09   1.97732e-05 
   @RHF iter  12:   -74.96534106552973   -9.49584e-10   8.64930e-06 
   @RHF iter  13:   -74.96534106571202   -1.82297e-10   3.78631e-06 
   @RHF iter  14:   -74.96534106574704   -3.50155e-11   1.65817e-06 
   @RHF iter  15:   -74.96534106575375   -6.70752e-12   7.26342e-07 
   @RHF iter  16:   -74.96534106575507   -1.32161e-12   3.18204e-07 
   @RHF iter  17:   -74.96534106575527   -1.98952e-13   1.39412e-07 
   @RHF iter  18:   -74.96534106575535   -8.52651e-14   6.10813e-08 
   @RHF iter  19:   -74.96534106575534    1.42109e-14   2.67625e-08 
   @RHF iter  20:   -74.96534106575531    2.84217e-14   1.17260e-08 
   @RHF iter  21:   -74.96534106575538   -7.10543e-14   5.13777e-09 
   @RHF iter  22:   -74.96534106575537    1.42109e-14   2.25114e-09 
   @RHF iter  23:   -74.96534106575537    0.00000e+00   9.86348e-10 
   @RHF iter  24:   -74.96534106575537    0.00000e+00   4.32174e-10 
   @RHF iter  25:   -74.96534106575534    2.84217e-14   1.89360e-10 

  ==> Post-Iterations <==

	Orbital Energies (a.u.)
	-----------------------

	Doubly Occupied:                                                      

	   1A1   -20.250540     2A1    -1.265656     1B2    -0.599922  
	   3A1    -0.463350     1B1    -0.393883  

	Virtual:                                                              

	   4A1     0.597100     2B2     0.707559  

	Final Occupation by Irrep:
	         A1    A2    B1    B2 
	DOCC [     3,    0,    1,    1 ]

  Energy converged.

  @RHF Final Energy:   -74.96534106575534

  ==> Properties <==
  Nuclear Dipole Moment: (a.u.)
     X:     0.0000      Y:    -0.0000      Z:     1.0508

  Electronic Dipole Moment: (a.u.)
     X:     0.0000      Y:     0.0000      Z:    -0.3683

  Dipole Moment: (a.u.)
     X:     0.0000      Y:    -0.0000      Z:     0.6825     Total:     0.6825

  Dipole Moment: (Debye)
     X:     0.0000      Y:    -0.0000      Z:     1.7347     Total:     1.7347


  Saving occupied orbitals to File 180.

*** tstop() called on QuickSilver.local at Mon Jan 23 14:43:19 2012
Module time:
	user time   =       0.03 seconds =       0.00 minutes
	system time =       0.01 seconds =       0.00 minutes
	total time  =          0 seconds =       0.00 minutes
Total time:
	user time   =       0.27 seconds =       0.00 minutes
	system time =       0.06 seconds =       0.00 minutes
	total time  =          0 seconds =       0.00 minutes

  //>>>>>>>>>>>>>>>>>>>>>>>>>>>>>>>>>>>//
  //    Loading displacement 5 of 5    //
  //<<<<<<<<<<<<<<<<<<<<<<<<<<<<<<<<<<<//

*** tstart() called on QuickSilver.local
*** at Mon Jan 23 14:43:19 2012

	There are an even number of electrons - assuming singlet.
	Specify the multiplicity with the MULTP option in the
	input if this is incorrect


         ---------------------------------------------------------
                                   SCF
            by Justin Turney, Rob Parrish, and Andy Simmonett
                              RHF Reference
                        1 Threads,    250 MiB Core
         ---------------------------------------------------------

  ==> Geometry <==

    Molecular point group: c2v

    Geometry (in Angstrom), charge = 0, multiplicity = 1:

       Center              X                  Y                   Z       
    ------------   -----------------  -----------------  -----------------
           O          0.000000000000     0.000000000000    -0.070647719687
           H          0.000000000000    -0.744361934087     0.560615289607
           H         -0.000000000000     0.744361934087     0.560615289607

    Number of unique atoms: 2

    Atoms equivalency:
       unique atom 0: 0 
       unique atom 1: 1 2 

  Running in c2v symmetry.

  Nuclear repulsion =    9.030531035628281

  Charge       = 0
  Multiplicity = 1
  Electrons    = 10
  Nalpha       = 5
  Nbeta        = 5

  ==> Algorithm <==

  SCF Algorithm Type is PK.
  DIIS disabled.
  MOM disabled.
  Fractional occupation disabled.
  Guess Type is CORE.
  Energy threshold   = 1.00e-10
  Density threshold  = 1.00e-10
  Integral threshold = 0.00e+00

  ==> Primary Basis: STO-3G <==

  Basis Set
    Number of shells: 5
    Number of basis function: 7
    Number of Cartesian functions: 7
    Spherical Harmonics?: true
    Max angular momentum: 1

  ==> Pre-Iterations <==

  Minimum eigenvalue in the overlap matrix is 3.5440074455E-01.
  Using Symmetric Orthogonalization.
  SCF Guess: Core (One-Electron) Hamiltonian.

  Initial RHF energy:   -54.53851807487082

   -------------------------------------------------------
    Irrep   Nso     Nmo     Nalpha   Nbeta   Ndocc  Nsocc
   -------------------------------------------------------
     A1         4       4       3       3       3       0
     A2         0       0       0       0       0       0
     B1         1       1       1       1       1       0
     B2         2       2       1       1       1       0
   -------------------------------------------------------
    Total       7       7       5       5       5       0
   -------------------------------------------------------

  ==> Integral Setup <==

 MINTS: Wrapper to libmints.
   by Justin Turney

   Calculation information:
      Number of atoms:                   3
      Number of AO shells:               5
      Number of SO shells:               4
      Number of primitives:             15
      Number of atomic orbitals:         7
      Number of basis functions:         7

      Number of irreps:                  4
      Number of functions per irrep: [   4    0    1    2 ]

      Overlap, kinetic, potential, dipole, and quadrupole integrals
        stored in file 35.

      Computing two-electron integrals...done
      Computed 138 non-zero two-electron integrals.
        Stored in file 33.

  ==> Iterations <==

                        Total Energy        Delta E     Density RMS

   @RHF iter   1:   -73.23367425949854   -1.86952e+01   0.00000e+00 
   @RHF iter   2:   -74.93564711913510   -1.70197e+00   4.03086e-01 
   @RHF iter   3:   -74.96420596320277   -2.85588e-02   5.35930e-02 
   @RHF iter   4:   -74.96530600059900   -1.10004e-03   9.06571e-03 
   @RHF iter   5:   -74.96542592739560   -1.19927e-04   3.43236e-03 
   @RHF iter   6:   -74.96544623148935   -2.03041e-05   1.33323e-03 
   @RHF iter   7:   -74.96544999945101   -3.76796e-06   5.64180e-04 
   @RHF iter   8:   -74.96545071681166   -7.17361e-07   2.42015e-04 
   @RHF iter   9:   -74.96545085440333   -1.37592e-07   1.05048e-04 
   @RHF iter  10:   -74.96545088085198   -2.64486e-08   4.58139e-05 
   @RHF iter  11:   -74.96545088593939   -5.08741e-09   2.00348e-05 
   @RHF iter  12:   -74.96545088691815   -9.78758e-10   8.77346e-06 
   @RHF iter  13:   -74.96545088710644   -1.88294e-10   3.84491e-06 
   @RHF iter  14:   -74.96545088714268   -3.62377e-11   1.68569e-06 
   @RHF iter  15:   -74.96545088714966   -6.97753e-12   7.39206e-07 
   @RHF iter  16:   -74.96545088715101   -1.35003e-12   3.24195e-07 
   @RHF iter  17:   -74.96545088715126   -2.55795e-13   1.42192e-07 
   @RHF iter  18:   -74.96545088715123    2.84217e-14   6.23680e-08 
   @RHF iter  19:   -74.96545088715129   -5.68434e-14   2.73562e-08 
   @RHF iter  20:   -74.96545088715125    4.26326e-14   1.19993e-08 
   @RHF iter  21:   -74.96545088715129   -4.26326e-14   5.26329e-09 
   @RHF iter  22:   -74.96545088715135   -5.68434e-14   2.30866e-09 
   @RHF iter  23:   -74.96545088715132    2.84217e-14   1.01266e-09 
   @RHF iter  24:   -74.96545088715129    2.84217e-14   4.44191e-10 
   @RHF iter  25:   -74.96545088715136   -7.10543e-14   1.94836e-10 

  ==> Post-Iterations <==

	Orbital Energies (a.u.)
	-----------------------

	Doubly Occupied:                                                      

	   1A1   -20.250559     2A1    -1.264788     1B2    -0.599462  
	   3A1    -0.462845     1B1    -0.393713  

	Virtual:                                                              

	   4A1     0.595531     2B2     0.706293  

	Final Occupation by Irrep:
	         A1    A2    B1    B2 
	DOCC [     3,    0,    1,    1 ]

  Energy converged.

  @RHF Final Energy:   -74.96545088715136

  ==> Properties <==
  Nuclear Dipole Moment: (a.u.)
     X:     0.0000      Y:     0.0000      Z:     1.0508

  Electronic Dipole Moment: (a.u.)
     X:     0.0000      Y:     0.0000      Z:    -0.3694

  Dipole Moment: (a.u.)
     X:     0.0000      Y:     0.0000      Z:     0.6814     Total:     0.6814

  Dipole Moment: (Debye)
     X:     0.0000      Y:     0.0000      Z:     1.7318     Total:     1.7318


  Saving occupied orbitals to File 180.

*** tstop() called on QuickSilver.local at Mon Jan 23 14:43:19 2012
Module time:
	user time   =       0.03 seconds =       0.00 minutes
	system time =       0.01 seconds =       0.00 minutes
	total time  =          0 seconds =       0.00 minutes
Total time:
	user time   =       0.30 seconds =       0.01 minutes
	system time =       0.07 seconds =       0.00 minutes
	total time  =          0 seconds =       0.00 minutes

-------------------------------------------------------------

  Computing gradient from energies (fd_1_0).
	Using 3-point formula.
	Energy without displacement:  -74.9654508872
	Check energies below for precision!
	Forces are for mass-weighted, symmetry-adapted cartesians (in au).

	 Coord      Energy(-)        Energy(+)        Force
	    0    -74.9655114260   -74.9653810013     0.0130424672
	    1    -74.9655481342   -74.9653410658     0.0207068437

	Gradient written to file11.
	Gradent saved to wavefunction.

-------------------------------------------------------------

			----------------------------------
			 OPTKING: for geometry optimizations  
			  - R.A. King,  Bethel University   
			------------------------------------

	Previous internal coordinate definitions found.
	---Fragment 1 Geometry and Gradient---
	 O           0.0000000000        0.0000000000       -0.1335048421
	 H           0.0000000000       -1.4066401992        1.0594093633
	 H          -0.0000000000        1.4066401992        1.0594093633
	             0.0000000000        0.0000000000        0.0174499674
	             0.0000000000        0.0146991248       -0.0087249837
	             0.0000000000       -0.0146991248       -0.0087249837

	---Fragment 1 Intrafragment Coordinates---
	 * Coordinate *           * BOHR/RAD *       * ANG/DEG *
	 R(1,2)           =         1.844365	       0.975996
	 R(1,3)           =         1.844365	       0.975996
	 B(2,1,3)         =         1.734860	      99.400163

	Current energy   :       -74.9654508872

	Energy change for the previous step:
		Projected    :        -0.0017266304
		Actual       :        -0.0007883483

	Performing BFGS update with previous 1 gradient(s).
	Following RFO solution 0.
	Projected energy change by RFO approximation:        -0.0005054577

	Back-transformation to cartesian coordinates...
	Successfully converged to displaced geometry.

	---Internal Coordinate Step in ANG or DEG, aJ/ANG or AJ/DEG ---
	 ----------------------------------------------------------------------
	 Coordinate             Previous        Force       Change         New 
	 ----------             --------       ------       ------       ------
	 R(1,2)          =      0.975996     0.138854     0.015454     0.991449
	 R(1,3)          =      0.975996     0.138854     0.015454     0.991449
	 B(2,1,3)        =     99.400163     0.000400     0.289053    99.689216
	 ----------------------------------------------------------------------

	Convergence Check Cycle    2: (using internal coordinates in au)
	                    Actual        Tolerance     Converged?
	----------------------------------------------------------
	MAX Force           1.7e-02        3.0e-04          no
	Energy Change      -7.9e-04        1.0e-06          no
	MAX Displacement    2.9e-02        1.2e-03          no
	----------------------------------------------------------
	Writing optimization data to binary file.
	Structure for next step:
	Cartesian Geometry (au)
	    O    -0.0000000000   0.0000000000  -0.1352149091
	    H     0.0000000000  -1.4319647682   1.0729793649
	    H    -0.0000000000   1.4319647682   1.0729793649
			--------------------------
			 OPTKING Finished Execution 
			--------------------------

-------------------------------------------------------------

  Using finite-differences of energies to determine gradients (fd_geoms_1_0).
	Generating geometries for use with 3-point formula.
	Displacement size will be 5.00e-03.
	Number of atoms is 3.
	Number of symmetric SALC's is 2.
	Number of displacements (including reference) is 5.

-------------------------------------------------------------

  //>>>>>>>>>>>>>>>>>>>>>>>>>>>>>>>>>>>//
  //    Loading displacement 1 of 5    //
  //<<<<<<<<<<<<<<<<<<<<<<<<<<<<<<<<<<<//

*** tstart() called on QuickSilver.local
*** at Mon Jan 23 14:43:19 2012

	There are an even number of electrons - assuming singlet.
	Specify the multiplicity with the MULTP option in the
	input if this is incorrect


         ---------------------------------------------------------
                                   SCF
            by Justin Turney, Rob Parrish, and Andy Simmonett
                              RHF Reference
                        1 Threads,    250 MiB Core
         ---------------------------------------------------------

  ==> Geometry <==

    Molecular point group: c2v

    Geometry (in Angstrom), charge = 0, multiplicity = 1:

       Center              X                  Y                   Z       
    ------------   -----------------  -----------------  -----------------
           O         -0.000000000000     0.000000000000    -0.071773969876
           H          0.000000000000    -0.757763118851     0.569552493506
           H         -0.000000000000     0.757763118851     0.569552493506

    Number of unique atoms: 2

    Atoms equivalency:
       unique atom 0: 0 
       unique atom 1: 1 2 

  Running in c2v symmetry.

  Nuclear repulsion =    8.878046417412691

  Charge       = 0
  Multiplicity = 1
  Electrons    = 10
  Nalpha       = 5
  Nbeta        = 5

  ==> Algorithm <==

  SCF Algorithm Type is PK.
  DIIS disabled.
  MOM disabled.
  Fractional occupation disabled.
  Guess Type is CORE.
  Energy threshold   = 1.00e-10
  Density threshold  = 1.00e-10
  Integral threshold = 0.00e+00

  ==> Primary Basis: STO-3G <==

  Basis Set
    Number of shells: 5
    Number of basis function: 7
    Number of Cartesian functions: 7
    Spherical Harmonics?: true
    Max angular momentum: 1

  ==> Pre-Iterations <==

  Minimum eigenvalue in the overlap matrix is 3.6536872761E-01.
  Using Symmetric Orthogonalization.
  SCF Guess: Core (One-Electron) Hamiltonian.

  Initial RHF energy:   -54.59536449302386

   -------------------------------------------------------
    Irrep   Nso     Nmo     Nalpha   Nbeta   Ndocc  Nsocc
   -------------------------------------------------------
     A1         4       4       3       3       3       0
     A2         0       0       0       0       0       0
     B1         1       1       1       1       1       0
     B2         2       2       1       1       1       0
   -------------------------------------------------------
    Total       7       7       5       5       5       0
   -------------------------------------------------------

  ==> Integral Setup <==

 MINTS: Wrapper to libmints.
   by Justin Turney

   Calculation information:
      Number of atoms:                   3
      Number of AO shells:               5
      Number of SO shells:               4
      Number of primitives:             15
      Number of atomic orbitals:         7
      Number of basis functions:         7

      Number of irreps:                  4
      Number of functions per irrep: [   4    0    1    2 ]

      Overlap, kinetic, potential, dipole, and quadrupole integrals
        stored in file 35.

      Computing two-electron integrals...done
      Computed 138 non-zero two-electron integrals.
        Stored in file 33.

  ==> Iterations <==

                        Total Energy        Delta E     Density RMS

   @RHF iter   1:   -73.24158528189450   -1.86462e+01   0.00000e+00 
   @RHF iter   2:   -74.92850746047058   -1.68692e+00   4.01527e-01 
   @RHF iter   3:   -74.96432180911511   -3.58143e-02   5.98205e-02 
   @RHF iter   4:   -74.96569667387077   -1.37486e-03   9.79261e-03 
   @RHF iter   5:   -74.96583891440042   -1.42241e-04   3.70689e-03 
   @RHF iter   6:   -74.96586338300874   -2.44686e-05   1.43632e-03 
   @RHF iter   7:   -74.96586804370797   -4.66070e-06   6.17851e-04 
   @RHF iter   8:   -74.96586895477557   -9.11068e-07   2.68397e-04 
   @RHF iter   9:   -74.96586913413998   -1.79364e-07   1.18088e-04 
   @RHF iter  10:   -74.96586916952442   -3.53844e-08   5.21812e-05 
[...]
   @RHF iter  13:   -74.96589438395193   -2.63469e-10   4.49815e-06 
   @RHF iter  14:   -74.96589438400386   -5.19265e-11   1.99497e-06 
   @RHF iter  15:   -74.96589438401406   -1.02034e-11   8.84972e-07 
   @RHF iter  16:   -74.96589438401608   -2.01794e-12   3.92618e-07 
   @RHF iter  17:   -74.96589438401648   -3.97904e-13   1.74196e-07 
   @RHF iter  18:   -74.96589438401654   -5.68434e-14   7.72893e-08 
   @RHF iter  19:   -74.96589438401659   -5.68434e-14   3.42933e-08 
   @RHF iter  20:   -74.96589438401659    0.00000e+00   1.52161e-08 
   @RHF iter  21:   -74.96589438401656    2.84217e-14   6.75149e-09 
   @RHF iter  22:   -74.96589438401656    0.00000e+00   2.99569e-09 
   @RHF iter  23:   -74.96589438401659   -2.84217e-14   1.32922e-09 
   @RHF iter  24:   -74.96589438401656    2.84217e-14   5.89786e-10 
   @RHF iter  25:   -74.96589438401656    0.00000e+00   2.61693e-10 
   @RHF iter  26:   -74.96589438401659   -2.84217e-14   1.16116e-10 

  ==> Post-Iterations <==

	Orbital Energies (a.u.)
	-----------------------

	Doubly Occupied:                                                      

	   1A1   -20.251565     2A1    -1.256663     1B2    -0.593432  
	   3A1    -0.459139     1B1    -0.392432  

	Virtual:                                                              

	   4A1     0.580139     2B2     0.691488  

	Final Occupation by Irrep:
	         A1    A2    B1    B2 
	DOCC [     3,    0,    1,    1 ]

  Energy converged.

  @RHF Final Energy:   -74.96589438401659

  ==> Properties <==
  Nuclear Dipole Moment: (a.u.)
     X:     0.0000      Y:     0.0000      Z:     1.0580

  Electronic Dipole Moment: (a.u.)
     X:     0.0000      Y:     0.0000      Z:    -0.3867

  Dipole Moment: (a.u.)
     X:     0.0000      Y:     0.0000      Z:     0.6712     Total:     0.6712

  Dipole Moment: (Debye)
     X:     0.0000      Y:     0.0000      Z:     1.7061     Total:     1.7061


  Saving occupied orbitals to File 180.

*** tstop() called on QuickSilver.local at Mon Jan 23 14:43:20 2012
Module time:
	user time   =       0.03 seconds =       0.00 minutes
	system time =       0.00 seconds =       0.00 minutes
	total time  =          1 seconds =       0.02 minutes
Total time:
	user time   =       0.56 seconds =       0.01 minutes
	system time =       0.12 seconds =       0.00 minutes
	total time  =          1 seconds =       0.02 minutes

  //>>>>>>>>>>>>>>>>>>>>>>>>>>>>>>>>>>>//
  //    Loading displacement 4 of 5    //
  //<<<<<<<<<<<<<<<<<<<<<<<<<<<<<<<<<<<//

*** tstart() called on QuickSilver.local
*** at Mon Jan 23 14:43:20 2012

	There are an even number of electrons - assuming singlet.
	Specify the multiplicity with the MULTP option in the
	input if this is incorrect


         ---------------------------------------------------------
                                   SCF
            by Justin Turney, Rob Parrish, and Andy Simmonett
                              RHF Reference
                        1 Threads,    250 MiB Core
         ---------------------------------------------------------

  ==> Geometry <==

    Molecular point group: c2v

    Geometry (in Angstrom), charge = 0, multiplicity = 1:

       Center              X                  Y                   Z       
    ------------   -----------------  -----------------  -----------------
           O          0.000000000000     0.000000000000    -0.071130279260
           H          0.000000000000    -0.756454583796     0.564444574917
           H         -0.000000000000     0.756454583796     0.564444574917

    Number of unique atoms: 2

    Atoms equivalency:
       unique atom 0: 0 
       unique atom 1: 1 2 

  Running in c2v symmetry.

  Nuclear repulsion =    8.919292666137219

  Charge       = 0
  Multiplicity = 1
  Electrons    = 10
  Nalpha       = 5
  Nbeta        = 5

  ==> Algorithm <==

  SCF Algorithm Type is PK.
  DIIS disabled.
  MOM disabled.
  Fractional occupation disabled.
  Guess Type is CORE.
  Energy threshold   = 1.00e-10
  Density threshold  = 1.00e-10
  Integral threshold = 0.00e+00

  ==> Primary Basis: STO-3G <==

  Basis Set
    Number of shells: 5
    Number of basis function: 7
    Number of Cartesian functions: 7
    Spherical Harmonics?: true
    Max angular momentum: 1

  ==> Pre-Iterations <==

  Minimum eigenvalue in the overlap matrix is 3.6227104636E-01.
  Using Symmetric Orthogonalization.
  SCF Guess: Core (One-Electron) Hamiltonian.

  Initial RHF energy:   -54.58107128274344

   -------------------------------------------------------
    Irrep   Nso     Nmo     Nalpha   Nbeta   Ndocc  Nsocc
   -------------------------------------------------------
     A1         4       4       3       3       3       0
     A2         0       0       0       0       0       0
     B1         1       1       1       1       1       0
     B2         2       2       1       1       1       0
   -------------------------------------------------------
    Total       7       7       5       5       5       0
   -------------------------------------------------------

  ==> Integral Setup <==

 MINTS: Wrapper to libmints.
   by Justin Turney

   Calculation information:
      Number of atoms:                   3
      Number of AO shells:               5
      Number of SO shells:               4
      Number of primitives:             15
      Number of atomic orbitals:         7
      Number of basis functions:         7

      Number of irreps:                  4
      Number of functions per irrep: [   4    0    1    2 ]

      Overlap, kinetic, potential, dipole, and quadrupole integrals
        stored in file 35.

      Computing two-electron integrals...done
      Computed 138 non-zero two-electron integrals.
        Stored in file 33.

  ==> Iterations <==

                        Total Energy        Delta E     Density RMS

   @RHF iter   1:   -73.24018642814835   -1.86591e+01   0.00000e+00 
   @RHF iter   2:   -74.93149678260558   -1.69131e+00   4.01691e-01 
   @RHF iter   3:   -74.96446035150674   -3.29636e-02   5.73940e-02 
   @RHF iter   4:   -74.96573176207345   -1.27141e-03   9.53112e-03 
   @RHF iter   5:   -74.96586727466232   -1.35513e-04   3.62502e-03 
   @RHF iter   6:   -74.96589058181398   -2.33072e-05   1.41077e-03 
   @RHF iter   7:   -74.96589499287759   -4.41106e-06   6.04247e-04 
   @RHF iter   8:   -74.96589584894272   -8.56065e-07   2.61673e-04 
   @RHF iter   9:   -74.96589601625485   -1.67312e-07   1.14704e-04 
   @RHF iter  10:   -74.96589604902208   -3.27672e-08   5.05026e-05 
   @RHF iter  11:   -74.96589605544315   -6.42108e-09   2.22947e-05 
   @RHF iter  12:   -74.96589605670172   -1.25857e-09   9.85506e-06 
   @RHF iter  13:   -74.96589605694837   -2.46644e-10   4.35943e-06 
   @RHF iter  14:   -74.96589605699673   -4.83595e-11   1.92916e-06 
   @RHF iter  15:   -74.96589605700620   -9.47864e-12   8.53879e-07 
   @RHF iter  16:   -74.96589605700809   -1.89004e-12   3.77985e-07 
   @RHF iter  17:   -74.96589605700844   -3.41061e-13   1.67333e-07 
   @RHF iter  18:   -74.96589605700849   -5.68434e-14   7.40799e-08 
   @RHF iter  19:   -74.96589605700851   -1.42109e-14   3.27966e-08 
   @RHF iter  20:   -74.96589605700852   -1.42109e-14   1.45198e-08 
   @RHF iter  21:   -74.96589605700855   -2.84217e-14   6.42830e-09 
   @RHF iter  22:   -74.96589605700856   -1.42109e-14   2.84598e-09 
   @RHF iter  23:   -74.96589605700852    4.26326e-14   1.26000e-09 
   @RHF iter  24:   -74.96589605700852    0.00000e+00   5.57835e-10 
   @RHF iter  25:   -74.96589605700861   -8.52651e-14   2.46969e-10 
   @RHF iter  26:   -74.96589605700852    8.52651e-14   1.09341e-10 

  ==> Post-Iterations <==

	Orbital Energies (a.u.)
	-----------------------

	Doubly Occupied:                                                      

	   1A1   -20.251511     2A1    -1.258324     1B2    -0.594372  
	   3A1    -0.460137     1B1    -0.392750  

	Virtual:                                                              

	   4A1     0.583266     2B2     0.693979  

	Final Occupation by Irrep:
	         A1    A2    B1    B2 
	DOCC [     3,    0,    1,    1 ]

  Energy converged.

  @RHF Final Energy:   -74.96589605700852

  ==> Properties <==
  Nuclear Dipole Moment: (a.u.)
     X:    -0.0000      Y:     0.0000      Z:     1.0580

  Electronic Dipole Moment: (a.u.)
     X:     0.0000      Y:     0.0000      Z:    -0.3845

  Dipole Moment: (a.u.)
     X:    -0.0000      Y:     0.0000      Z:     0.6735     Total:     0.6735

  Dipole Moment: (Debye)
     X:    -0.0000      Y:     0.0000      Z:     1.7118     Total:     1.7118


  Saving occupied orbitals to File 180.

*** tstop() called on QuickSilver.local at Mon Jan 23 14:43:20 2012
Module time:
	user time   =       0.03 seconds =       0.00 minutes
	system time =       0.01 seconds =       0.00 minutes
	total time  =          0 seconds =       0.00 minutes
Total time:
	user time   =       0.59 seconds =       0.01 minutes
	system time =       0.13 seconds =       0.00 minutes
	total time  =          1 seconds =       0.02 minutes

  //>>>>>>>>>>>>>>>>>>>>>>>>>>>>>>>>>>>//
  //    Loading displacement 5 of 5    //
  //<<<<<<<<<<<<<<<<<<<<<<<<<<<<<<<<<<<//

*** tstart() called on QuickSilver.local
*** at Mon Jan 23 14:43:20 2012

	There are an even number of electrons - assuming singlet.
	Specify the multiplicity with the MULTP option in the
	input if this is incorrect


         ---------------------------------------------------------
                                   SCF
            by Justin Turney, Rob Parrish, and Andy Simmonett
                              RHF Reference
                        1 Threads,    250 MiB Core
         ---------------------------------------------------------

  ==> Geometry <==

    Molecular point group: c2v

    Geometry (in Angstrom), charge = 0, multiplicity = 1:

       Center              X                  Y                   Z       
    ------------   -----------------  -----------------  -----------------
           O          0.000000000000     0.000000000000    -0.071130279260
           H          0.000000000000    -0.758318230420     0.564444574917
           H         -0.000000000000     0.758318230420     0.564444574917

    Number of unique atoms: 2

    Atoms equivalency:
       unique atom 0: 0 
       unique atom 1: 1 2 

  Running in c2v symmetry.

  Nuclear repulsion =    8.906068820834168

  Charge       = 0
  Multiplicity = 1
  Electrons    = 10
  Nalpha       = 5
  Nbeta        = 5

  ==> Algorithm <==

  SCF Algorithm Type is PK.
  DIIS disabled.
  MOM disabled.
  Fractional occupation disabled.
  Guess Type is CORE.
  Energy threshold   = 1.00e-10
  Density threshold  = 1.00e-10
  Integral threshold = 0.00e+00

  ==> Primary Basis: STO-3G <==

  Basis Set
    Number of shells: 5
    Number of basis function: 7
    Number of Cartesian functions: 7
    Spherical Harmonics?: true
    Max angular momentum: 1

  ==> Pre-Iterations <==

  Minimum eigenvalue in the overlap matrix is 3.6320283957E-01.
  Using Symmetric Orthogonalization.
  SCF Guess: Core (One-Electron) Hamiltonian.

  Initial RHF energy:   -54.58628174121780

   -------------------------------------------------------
    Irrep   Nso     Nmo     Nalpha   Nbeta   Ndocc  Nsocc
   -------------------------------------------------------
     A1         4       4       3       3       3       0
     A2         0       0       0       0       0       0
     B1         1       1       1       1       1       0
     B2         2       2       1       1       1       0
   -------------------------------------------------------
    Total       7       7       5       5       5       0
   -------------------------------------------------------

  ==> Integral Setup <==

 MINTS: Wrapper to libmints.
   by Justin Turney

   Calculation information:
      Number of atoms:                   3
      Number of AO shells:               5
      Number of SO shells:               4
      Number of primitives:             15
      Number of atomic orbitals:         7
      Number of basis functions:         7

      Number of irreps:                  4
      Number of functions per irrep: [   4    0    1    2 ]

      Overlap, kinetic, potential, dipole, and quadrupole integrals
        stored in file 35.

      Computing two-electron integrals...done
      Computed 138 non-zero two-electron integrals.
        Stored in file 33.

  ==> Iterations <==

                        Total Energy        Delta E     Density RMS

   @RHF iter   1:   -73.24106865597020   -1.86548e+01   0.00000e+00 
   @RHF iter   2:   -74.93104003529767   -1.68997e+00   4.01499e-01 
   @RHF iter   3:   -74.96444359814360   -3.34036e-02   5.77508e-02 
   @RHF iter   4:   -74.96573431590241   -1.29072e-03   9.58316e-03 
   @RHF iter   5:   -74.96587182688447   -1.37511e-04   3.64881e-03 
   @RHF iter   6:   -74.96589553498400   -2.37081e-05   1.42100e-03 
   @RHF iter   7:   -74.96590003302167   -4.49804e-06   6.09557e-04 
   @RHF iter   8:   -74.96590090799113   -8.74969e-07   2.64287e-04 
   @RHF iter   9:   -74.96590107938255   -1.71391e-07   1.15988e-04 
   @RHF iter  10:   -74.96590111302343   -3.36409e-08   5.11264e-05 
   @RHF iter  11:   -74.96590111963040   -6.60697e-09   2.25956e-05 
   @RHF iter  12:   -74.96590112092818   -1.29778e-09   9.99923e-06 
   @RHF iter  13:   -74.96590112118315   -2.54971e-10   4.42813e-06 
   @RHF iter  14:   -74.96590112123323   -5.00791e-11   1.96174e-06 
   @RHF iter  15:   -74.96590112124301   -9.77707e-12   8.69261e-07 
   @RHF iter  16:   -74.96590112124497   -1.96110e-12   3.85221e-07 
   @RHF iter  17:   -74.96590112124534   -3.69482e-13   1.70724e-07 
   @RHF iter  18:   -74.96590112124545   -1.13687e-13   7.56651e-08 
   @RHF iter  19:   -74.96590112124542    2.84217e-14   3.35354e-08 
   @RHF iter  20:   -74.96590112124545   -2.84217e-14   1.48634e-08 
   @RHF iter  21:   -74.96590112124542    2.84217e-14   6.58767e-09 
   @RHF iter  22:   -74.96590112124544   -1.42109e-14   2.91977e-09 
   @RHF iter  23:   -74.96590112124549   -5.68434e-14   1.29409e-09 
   @RHF iter  24:   -74.96590112124545    4.26326e-14   5.73565e-10 
   @RHF iter  25:   -74.96590112124548   -2.84217e-14   2.54213e-10 
   @RHF iter  26:   -74.96590112124548    0.00000e+00   1.12672e-10 

  ==> Post-Iterations <==

	Orbital Energies (a.u.)
	-----------------------

	Doubly Occupied:                                                      

	   1A1   -20.251537     2A1    -1.257492     1B2    -0.593903  
	   3A1    -0.459637     1B1    -0.392590  

	Virtual:                                                              

	   4A1     0.581703     2B2     0.692733  

	Final Occupation by Irrep:
	         A1    A2    B1    B2 
	DOCC [     3,    0,    1,    1 ]

  Energy converged.

  @RHF Final Energy:   -74.96590112124548

  ==> Properties <==
  Nuclear Dipole Moment: (a.u.)
     X:     0.0000      Y:     0.0000      Z:     1.0580

  Electronic Dipole Moment: (a.u.)
     X:     0.0000      Y:     0.0000      Z:    -0.3856

  Dipole Moment: (a.u.)
     X:     0.0000      Y:     0.0000      Z:     0.6723     Total:     0.6723

  Dipole Moment: (Debye)
     X:     0.0000      Y:     0.0000      Z:     1.7089     Total:     1.7089


  Saving occupied orbitals to File 180.

*** tstop() called on QuickSilver.local at Mon Jan 23 14:43:20 2012
Module time:
	user time   =       0.03 seconds =       0.00 minutes
	system time =       0.01 seconds =       0.00 minutes
	total time  =          0 seconds =       0.00 minutes
Total time:
	user time   =       0.62 seconds =       0.01 minutes
	system time =       0.14 seconds =       0.00 minutes
	total time  =          1 seconds =       0.02 minutes

-------------------------------------------------------------

  Computing gradient from energies (fd_1_0).
	Using 3-point formula.
	Energy without displacement:  -74.9659011212
	Check energies below for precision!
	Forces are for mass-weighted, symmetry-adapted cartesians (in au).

	 Coord      Energy(-)        Energy(+)        Force
	    0    -74.9658969872   -74.9658963931     0.0000594114
	    1    -74.9658943840   -74.9658960570    -0.0001672992

	Gradient written to file11.
	Gradent saved to wavefunction.

-------------------------------------------------------------

			----------------------------------
			 OPTKING: for geometry optimizations  
			  - R.A. King,  Bethel University   
			------------------------------------

	Previous internal coordinate definitions found.
	---Fragment 1 Geometry and Gradient---
	 O           0.0000000000        0.0000000000       -0.1344167476
	 H           0.0000000000       -1.4330137771        1.0666456638
	 H          -0.0000000000        1.4330137771        1.0666456638
	             0.0000000000        0.0000000000        0.0000794885
	             0.0000000000       -0.0001187603       -0.0000397443
	             0.0000000000        0.0001187603       -0.0000397443

	---Fragment 1 Intrafragment Coordinates---
	 * Coordinate *           * BOHR/RAD *       * ANG/DEG *
	 R(1,2)           =         1.869781	       0.989445
	 R(1,3)           =         1.869781	       0.989445
	 B(2,1,3)         =         1.746459	     100.064737

	Current energy   :       -74.9659011212

	Energy change for the previous step:
		Projected    :        -0.0000130067
		Actual       :        -0.0000126133
	Energy ratio indicates good step: Trust radius increased to 1.000e+00.


	Performing BFGS update with previous 3 gradient(s).
	Following RFO solution 0.
	Projected energy change by RFO approximation:        -0.0000000690

	Back-transformation to cartesian coordinates...
	Successfully converged to displaced geometry.

	---Internal Coordinate Step in ANG or DEG, aJ/ANG or AJ/DEG ---
	 ----------------------------------------------------------------------
	 Coordinate             Previous        Force       Change         New 
	 ----------             --------       ------       ------       ------
	 R(1,2)          =      0.989445    -0.000540    -0.000034     0.989411
	 R(1,3)          =      0.989445    -0.000540    -0.000034     0.989411
	 B(2,1,3)        =    100.064737    -0.000015    -0.037220   100.027517
	 ----------------------------------------------------------------------

	Convergence Check Cycle    4: (using internal coordinates in au)
	                    Actual        Tolerance     Converged?
	----------------------------------------------------------
	MAX Force           2.0e-04        3.0e-04         yes
	Energy Change      -1.3e-05        1.0e-06          no
	MAX Displacement    6.5e-04        1.2e-03         yes
	----------------------------------------------------------

	 **** Optimization is complete! ****

	            ****  Optimization Summary  ****
	----------------------------------------------------------------------------
	 Step         Energy             Delta(E)      MAX force    MAX Delta(q)  
	----------------------------------------------------------------------------
	   1    -74.964662538885    -74.964662538885    2.37e-02     2.37e-02
	   2    -74.965450887151     -0.000788348266    1.69e-02     1.69e-02
	   3    -74.965888507951     -0.000437620799    2.17e-03     2.17e-03
	   4    -74.965901121245     -0.000012613295    2.00e-04     2.00e-04
	----------------------------------------------------------------------

	Writing optimization data to binary file.
	Final energy is    -74.9659011212455
	Final (previous) structure:
	Cartesian Geometry (au)
	    O     0.0000000000   0.0000000000  -0.1344167476
	    H     0.0000000000  -1.4330137771   1.0666456638
	    H    -0.0000000000   1.4330137771   1.0666456638
	Saving final (previous) structure.
			--------------------------
			 OPTKING Finished Execution 
			--------------------------

	Final optimized geometry and variables (in Angstrom):

	O
	H     1    0.989445
	H     1    0.989445     2  100.064737


*** PSI4 exiting successfully. Buy a developer a beer!
