
    -----------------------------------------------------------------------
          Psi4: An Open-Source Ab Initio Electronic Structure Package
                               Psi4 1.1rc3.dev5 

                         Git: Rev {master} 3fbd859 


    R. M. Parrish, L. A. Burns, D. G. A. Smith, A. C. Simmonett,
    A. E. DePrince III, E. G. Hohenstein, U. Bozkaya, A. Yu. Sokolov,
    R. Di Remigio, R. M. Richard, J. F. Gonthier, A. M. James,
    H. R. McAlexander, A. Kumar, M. Saitow, X. Wang, B. P. Pritchard,
    P. Verma, H. F. Schaefer III, K. Patkowski, R. A. King, E. F. Valeev,
    F. A. Evangelista, J. M. Turney, T. D. Crawford, and C. D. Sherrill,
    J. Chem. Theory Comput. in press (2017).
    (doi: 10.1021/acs.jctc.7b00174)

    -----------------------------------------------------------------------


    Psi4 started on: Monday, 15 May 2017 03:41PM

    Process ID:  21766
    PSIDATADIR: /home/psilocaluser/gits/hrw-direct/objdir4/stage/usr/local/psi4/share/psi4
    Memory:     500.0 MiB
    Threads:    1
    
  ==> Input File <==

--------------------------------------------------------------------------
#! dipole moment for HF and B3LYP in presence of perturbation

ref_energies = { 'HF'    : [-76.0203919443, -76.0223213132,  # TEST
                            -76.0194350648, -76.0232937811], # TEST
                 'B3LYP' : [-76.4174428941, -76.4192585316,  # TEST
                            -76.4165433643, -76.4201746101]  # TEST
               }
# Reference values, in atomic units, for finite difference formulas
ref_3pt = { 'HF'    : 0.9646844572, # TEST
            'B3LYP' : 0.9078187054  # TEST
          }
ref_5pt = { 'HF'    : 0.9646862512, # TEST
            'B3LYP' : 0.9078211247  # TEST
          }

molecule h2o {
symmetry c1
0 1
O
H 1 r
H 1 r 2 a
a         =  106.0916395530
r         =    0.9584490557
}
pert = 0.001
lambdas = [pert, -pert, 2.0*pert, -2.0*pert]
set {
    basis        6-31G*
    e_convergence   10
    scf_type pk
    pcm true
    pcm_scf_type total
}
pcm = {
   Units = Angstrom
   Medium {
   SolverType = CPCM
   Solvent = water
   }
   Cavity {
   RadiiSet = UFF
   Type = GePol
   Scaling = False
   Area = 0.3
   }
}

for m in ['HF', 'B3LYP']:
    energies = []
    for l in lambdas:
        set perturb_h true
        set perturb_with dipole
        set perturb_dipole [0, 0, $l]
        energies.append(energy(m))

    # Now use 3- and 5-point finite difference formulae to compute the dipole
    dm_z_3point = (energies[0] - energies[1]) / (2.0*pert)
    dm_z_5point = (8.0*energies[0] - 8.0*energies[1] - energies[2] + energies[3]) / (12.0*pert)
    # The a.u. to Debye conversion factor is automatically available in Psithon as psi_dipmom_au2debye
    # Tabulate the results of the energy computation
    for val in range(len(lambdas)):
        print_out("Perturbation strength = %7.4f, %s computed energy = %16.10f\n" % (lambdas[val], m, energies[val]))
        compare_values(ref_energies[m][val], energies[val], 8, 'Energy for displacement %d' % val) # TEST
    print_out("Total dipoles\n")
    print_out("%s 3-point stencil: mu(z) = %10.10f ea0, %10.10f Debye\n" % (m, dm_z_3point, dm_z_3point*psi_dipmom_au2debye))
    print_out("%s 5-point stencil: mu(z) = %10.10f ea0, %10.10f Debye\n" % (m, dm_z_5point, dm_z_5point*psi_dipmom_au2debye))

    # So we can get the analytic result to compare to
    set perturb_h false
    e, wfn = energy(m, return_wfn=True)
    oeprop(wfn, 'MULTIPOLES(1)')
    analytic = get_variable('SCF DIPOLE Z')

    compare_values(ref_3pt[m], dm_z_3point, 8, 'Z dipole moment, using 3-point stencil %s' % m) # TEST
    compare_values(ref_5pt[m], dm_z_5point, 8, 'Z dipole moment, using 5-point stencil %s' % m) # TEST
    compare_values(ref_5pt[m]*psi_dipmom_au2debye, analytic, 5, 'Z dipole moment, analytic result %s' % m) # TEST
--------------------------------------------------------------------------

*** tstart() called on psinet
*** at Mon May 15 15:41:10 2017

   => Loading Basis Set <=

    Name: 6-31G*
    Role: ORBITAL
    Keyword: BASIS
    atoms 1   entry O          line   136 file /home/psilocaluser/gits/hrw-direct/objdir4/stage/usr/local/psi4/share/psi4/basis/6-31gs.gbs 
    atoms 2-3 entry H          line    35 file /home/psilocaluser/gits/hrw-direct/objdir4/stage/usr/local/psi4/share/psi4/basis/6-31gs.gbs 


         ---------------------------------------------------------
                                   SCF
            by Justin Turney, Rob Parrish, and Andy Simmonett
                              RHF Reference
                        1 Threads,    500 MiB Core
         ---------------------------------------------------------

  ==> Geometry <==

    Molecular point group: c1
    Full point group: C2v

    Geometry (in Angstrom), charge = 0, multiplicity = 1:

       Center              X                  Y                   Z               Mass       
    ------------   -----------------  -----------------  -----------------  -----------------
           O          0.000000000000     0.000000000000    -0.064484982919    15.994914619560
           H          0.000000000000    -0.765912483269     0.511711737260     1.007825032070
           H          0.000000000000     0.765912483269     0.511711737260     1.007825032070

  Running in c1 symmetry.

  Rotational constants: A =     28.36516  B =     14.25683  C =      9.48800 [cm^-1]
  Rotational constants: A = 850366.02211  B = 427409.09891  C = 284442.98944 [MHz]
  Nuclear repulsion =    9.180306406957651

  Charge       = 0
  Multiplicity = 1
  Electrons    = 10
  Nalpha       = 5
  Nbeta        = 5

  ==> Algorithm <==

  SCF Algorithm Type is PK.
  DIIS enabled.
  MOM disabled.
  Fractional occupation disabled.
  Guess Type is SAD.
  Energy threshold   = 1.00e-10
  Density threshold  = 1.00e-06
  Integral threshold = 0.00e+00

  ==> Primary Basis <==

  Basis Set: 6-31G*
    Blend: 6-31G*
    Number of shells: 10
    Number of basis function: 19
    Number of Cartesian functions: 19
    Spherical Harmonics?: false
    Max angular momentum: 2

  **PSI4:PCMSOLVER Interface Active**


 * PCMSolver, an API for the Polarizable Continuum Model electrostatic problem. Version 1.1.10
   Main authors: R. Di Remigio, L. Frediani, K. Mozgawa
    With contributions from:
     R. Bast            (CMake framework)
     U. Ekstroem        (automatic differentiation library)
     J. Juselius        (input parsing library and CMake framework)
   Theory: - J. Tomasi, B. Mennucci and R. Cammi:
            "Quantum Mechanical Continuum Solvation Models", Chem. Rev., 105 (2005) 2999
   PCMSolver is distributed under the terms of the GNU Lesser General Public License.

 * Git last commit hash   : 5a5f9c3
 * Git last commit date   : Mon Mar 27 11:18:34 2017 +0200
 * Git last commit author : Roberto Di Remigio


~~~~~~~~~~ PCMSolver ~~~~~~~~~~
Using CODATA 2010 set of constants.
Input parsing done API-side
========== Cavity 
Atomic radii set: 
Cavity type: GePol
Average tesserae area = 0.3 Ang^2
Solvent probe radius = 1.385 Ang
Number of spheres = 3 [initial = 3; added = 0]
Number of finite elements = 184
Number of irreducible finite elements = 184
============ Spheres list (in Angstrom)
 Sphere   on   Radius   Alpha       X            Y            Z     
-------- ---- -------- ------- -----------  -----------  -----------
   1      O    1.7500   1.00     0.000000     0.000000    -0.064485  
   2      H    1.4430   1.00     0.000000    -0.765912     0.511712  
   3      H    1.4430   1.00     0.000000     0.765912     0.511712  
========== Static solver 
Solver Type: C-PCM
PCM matrix hermitivitized
Correction = 0
============ Medium 
Medium initialized from solvent built-in data.
Solvent name:          Water
Static  permittivity = 78.39
Optical permittivity = 1.776
Solvent radius =       1.385 Ang
.... Inside 
Green's function type: vacuum
.... Outside 
Green's function type: uniform dielectric
Permittivity = 78.39

  There are 184 tesserae, 184 of which irreducible.

  ==> Pre-Iterations <==

   -------------------------------------------------------
    Irrep   Nso     Nmo     Nalpha   Nbeta   Ndocc  Nsocc
   -------------------------------------------------------
     A         19      19       0       0       0       0
   -------------------------------------------------------
    Total      19      19       5       5       5       0
   -------------------------------------------------------

  Perturbing V by 0.001000 mu(z).
  ==> Integral Setup <==

  Using in-core PK algorithm.
   Calculation information:
      Number of atoms:                   3
      Number of AO shells:              10
      Number of primitives:             23
      Number of atomic orbitals:        19
      Number of basis functions:        19

      Integral cutoff                 1.00e-12
      Number of threads:                 1

  Performing in-core PK
  Using 36290 doubles for integral storage.
  We computed 1540 shell quartets total.
  Whereas there are 1540 unique shell quartets.
  ==> DiskJK: Disk-Based J/K Matrices <==

    J tasked:                  Yes
    K tasked:                  Yes
    wK tasked:                  No
    Memory (MB):               375
    Schwarz Cutoff:          1E-12

    OpenMP threads:              1
  Minimum eigenvalue in the overlap matrix is 2.2344839529E-02.
  Using Symmetric Orthogonalization.

  SCF Guess: Superposition of Atomic Densities via on-the-fly atomic UHF.

  ==> Iterations <==

                        Total Energy        Delta E     RMS |[F,P]|

   PCM polarization energy = -0.00076902191869
   @RHF iter   0:   -76.00722104006203   -7.60072e+01   8.85275e-02 
   PCM polarization energy = -0.01574233362252
   @RHF iter   1:   -75.98676455630724    2.04565e-02   1.39443e-02 
   PCM polarization energy = -0.01072052023248
   @RHF iter   2:   -76.01335743506699   -2.65929e-02   6.78241e-03 DIIS
   PCM polarization energy = -0.01186602041937
   @RHF iter   3:   -76.01958893279215   -6.23150e-03   1.43913e-03 DIIS
   PCM polarization energy = -0.01180903744429
   @RHF iter   4:   -76.02029992835870   -7.10996e-04   3.97520e-04 DIIS
   PCM polarization energy = -0.01183093784988
   @RHF iter   5:   -76.02038695108449   -8.70227e-05   9.19001e-05 DIIS
   PCM polarization energy = -0.01184413045128
   @RHF iter   6:   -76.02039187563720   -4.92455e-06   1.17836e-05 DIIS
   PCM polarization energy = -0.01184609508175
   @RHF iter   7:   -76.02039194090645   -6.52692e-08   2.51795e-06 DIIS
   PCM polarization energy = -0.01184656150664
   @RHF iter   8:   -76.02039194424613   -3.33968e-09   3.71558e-07 DIIS
   PCM polarization energy = -0.01184652295669
   @RHF iter   9:   -76.02039194430901   -6.28830e-11   6.63406e-08 DIIS

  ==> Post-Iterations <==

    Orbital Energies (a.u.)
    -----------------------

    Doubly Occupied:                                                      

       1A    -20.561782     2A     -1.341992     3A     -0.710187  
       4A     -0.576027     5A     -0.503499  

    Virtual:                                                              

       6A      0.226616     7A      0.321575     8A      1.027268  
       9A      1.119151    10A      1.158774    11A      1.162570  
      12A      1.378462    13A      1.431552    14A      2.016697  
      15A      2.025454    16A      2.060704    17A      2.618280  
      18A      2.941862    19A      3.966554  

    Final Occupation by Irrep:
              A 
    DOCC [     5 ]

  Energy converged.

  @RHF Final Energy:   -76.02039194430901 with 0.000000 0.000000 0.001000 perturbation

   => Energetics <=

    Nuclear Repulsion Energy =              9.1803064069576514
    One-Electron Energy =                -123.0883395490688201
    Two-Electron Energy =                  37.8994877207588488
    DFT Exchange-Correlation Energy =       0.0000000000000000
    Empirical Dispersion Energy =           0.0000000000000000
    PCM Polarization Energy =              -0.0118465229566942
    EFP Energy =                            0.0000000000000000
    Total Energy =                        -76.0203919443090115

    Alert: EFP and PCM quantities not currently incorporated into SCF psivars.

Properties will be evaluated at   0.000000,   0.000000,   0.000000 Bohr

Properties computed using the SCF density matrix

  Nuclear Dipole Moment: (a.u.)
     X:     0.0000      Y:     0.0000      Z:     0.9591

  Electronic Dipole Moment: (a.u.)
     X:    -0.0000      Y:    -0.0000      Z:     0.0004

  Dipole Moment: (a.u.)
     X:    -0.0000      Y:    -0.0000      Z:     0.9595     Total:     0.9595

  Dipole Moment: (Debye)
     X:    -0.0000      Y:    -0.0000      Z:     2.4388     Total:     2.4388


*** tstop() called on psinet at Mon May 15 15:41:12 2017
Module time:
	user time   =       1.08 seconds =       0.02 minutes
	system time =       0.04 seconds =       0.00 minutes
	total time  =          2 seconds =       0.03 minutes
Total time:
	user time   =       1.08 seconds =       0.02 minutes
	system time =       0.04 seconds =       0.00 minutes
	total time  =          2 seconds =       0.03 minutes

*** tstart() called on psinet
*** at Mon May 15 15:41:12 2017

   => Loading Basis Set <=

    Name: 6-31G*
    Role: ORBITAL
    Keyword: BASIS
    atoms 1   entry O          line   136 file /home/psilocaluser/gits/hrw-direct/objdir4/stage/usr/local/psi4/share/psi4/basis/6-31gs.gbs 
    atoms 2-3 entry H          line    35 file /home/psilocaluser/gits/hrw-direct/objdir4/stage/usr/local/psi4/share/psi4/basis/6-31gs.gbs 


         ---------------------------------------------------------
                                   SCF
            by Justin Turney, Rob Parrish, and Andy Simmonett
                              RHF Reference
                        1 Threads,    500 MiB Core
         ---------------------------------------------------------

  ==> Geometry <==

    Molecular point group: c1
    Full point group: C2v

    Geometry (in Angstrom), charge = 0, multiplicity = 1:

       Center              X                  Y                   Z               Mass       
    ------------   -----------------  -----------------  -----------------  -----------------
           O          0.000000000000     0.000000000000    -0.064484982919    15.994914619560
           H          0.000000000000    -0.765912483269     0.511711737260     1.007825032070
           H          0.000000000000     0.765912483269     0.511711737260     1.007825032070

  Running in c1 symmetry.

  Rotational constants: A =     28.36516  B =     14.25683  C =      9.48800 [cm^-1]
  Rotational constants: A = 850366.02211  B = 427409.09891  C = 284442.98944 [MHz]
  Nuclear repulsion =    9.178388170106436

  Charge       = 0
  Multiplicity = 1
  Electrons    = 10
  Nalpha       = 5
  Nbeta        = 5

  ==> Algorithm <==

  SCF Algorithm Type is PK.
  DIIS enabled.
  MOM disabled.
  Fractional occupation disabled.
  Guess Type is SAD.
  Energy threshold   = 1.00e-10
  Density threshold  = 1.00e-06
  Integral threshold = 0.00e+00

  ==> Primary Basis <==

  Basis Set: 6-31G*
    Blend: 6-31G*
    Number of shells: 10
    Number of basis function: 19
    Number of Cartesian functions: 19
    Spherical Harmonics?: false
    Max angular momentum: 2

  **PSI4:PCMSOLVER Interface Active**


 * PCMSolver, an API for the Polarizable Continuum Model electrostatic problem. Version 1.1.10
   Main authors: R. Di Remigio, L. Frediani, K. Mozgawa
    With contributions from:
     R. Bast            (CMake framework)
     U. Ekstroem        (automatic differentiation library)
     J. Juselius        (input parsing library and CMake framework)
   Theory: - J. Tomasi, B. Mennucci and R. Cammi:
            "Quantum Mechanical Continuum Solvation Models", Chem. Rev., 105 (2005) 2999
   PCMSolver is distributed under the terms of the GNU Lesser General Public License.

 * Git last commit hash   : 5a5f9c3
 * Git last commit date   : Mon Mar 27 11:18:34 2017 +0200
 * Git last commit author : Roberto Di Remigio


~~~~~~~~~~ PCMSolver ~~~~~~~~~~
Using CODATA 2010 set of constants.
Input parsing done API-side
========== Cavity 
Atomic radii set: 
Cavity type: GePol
Average tesserae area = 0.3 Ang^2
Solvent probe radius = 1.385 Ang
Number of spheres = 3 [initial = 3; added = 0]
Number of finite elements = 184
Number of irreducible finite elements = 184
============ Spheres list (in Angstrom)
 Sphere   on   Radius   Alpha       X            Y            Z     
-------- ---- -------- ------- -----------  -----------  -----------
   1      O    1.7500   1.00     0.000000     0.000000    -0.064485  
   2      H    1.4430   1.00     0.000000    -0.765912     0.511712  
   3      H    1.4430   1.00     0.000000     0.765912     0.511712  
========== Static solver 
Solver Type: C-PCM
PCM matrix hermitivitized
Correction = 0
============ Medium 
Medium initialized from solvent built-in data.
Solvent name:          Water
Static  permittivity = 78.39
Optical permittivity = 1.776
Solvent radius =       1.385 Ang
.... Inside 
Green's function type: vacuum
.... Outside 
Green's function type: uniform dielectric
Permittivity = 78.39

  There are 184 tesserae, 184 of which irreducible.

  ==> Pre-Iterations <==

   -------------------------------------------------------
    Irrep   Nso     Nmo     Nalpha   Nbeta   Ndocc  Nsocc
   -------------------------------------------------------
     A         19      19       0       0       0       0
   -------------------------------------------------------
    Total      19      19       5       5       5       0
   -------------------------------------------------------

  Perturbing V by -0.001000 mu(z).
  ==> Integral Setup <==

  Using in-core PK algorithm.
   Calculation information:
      Number of atoms:                   3
      Number of AO shells:              10
      Number of primitives:             23
      Number of atomic orbitals:        19
      Number of basis functions:        19

      Integral cutoff                 1.00e-12
      Number of threads:                 1

  Performing in-core PK
  Using 36290 doubles for integral storage.
  We computed 1540 shell quartets total.
  Whereas there are 1540 unique shell quartets.
  ==> DiskJK: Disk-Based J/K Matrices <==

    J tasked:                  Yes
    K tasked:                  Yes
    wK tasked:                  No
    Memory (MB):               375
    Schwarz Cutoff:          1E-12

    OpenMP threads:              1
  Minimum eigenvalue in the overlap matrix is 2.2344839529E-02.
  Using Symmetric Orthogonalization.

  SCF Guess: Superposition of Atomic Densities via on-the-fly atomic UHF.

  ==> Iterations <==

                        Total Energy        Delta E     RMS |[F,P]|

   PCM polarization energy = -0.00076902191869
   @RHF iter   0:   -76.00722104006203   -7.60072e+01   8.85399e-02 
   PCM polarization energy = -0.01596081294680
   @RHF iter   1:   -75.98855580304196    1.86652e-02   1.39951e-02 
   PCM polarization energy = -0.01091955782271
   @RHF iter   2:   -76.01525611729645   -2.67003e-02   6.80766e-03 DIIS
   PCM polarization energy = -0.01207619719915
   @RHF iter   3:   -76.02152469587749   -6.26858e-03   1.43655e-03 DIIS
   PCM polarization energy = -0.01202474229613
   @RHF iter   4:   -76.02223055902270   -7.05863e-04   3.95716e-04 DIIS
   PCM polarization energy = -0.01204785281115
   @RHF iter   5:   -76.02231642631597   -8.58673e-05   9.11647e-05 DIIS
   PCM polarization energy = -0.01206100709798
   @RHF iter   6:   -76.02232124658154   -4.82027e-06   1.16344e-05 DIIS
   PCM polarization energy = -0.01206286227178
   @RHF iter   7:   -76.02232130992688   -6.33453e-08   2.48242e-06 DIIS
   PCM polarization energy = -0.01206329736601
   @RHF iter   8:   -76.02232131316288   -3.23600e-09   3.66776e-07 DIIS
   PCM polarization energy = -0.01206325923289
   @RHF iter   9:   -76.02232131322369   -6.08082e-11   6.39829e-08 DIIS

  ==> Post-Iterations <==

    Orbital Energies (a.u.)
    -----------------------

    Doubly Occupied:                                                      

       1A    -20.561132     2A     -1.341317     3A     -0.709575  
       4A     -0.576083     5A     -0.503121  

    Virtual:                                                              

       6A      0.229162     7A      0.324098     8A      1.027550  
       9A      1.118444    10A      1.158986    11A      1.163551  
      12A      1.378824    13A      1.433226    14A      2.016671  
      15A      2.025567    16A      2.060782    17A      2.618720  
      18A      2.942090    19A      3.966838  

    Final Occupation by Irrep:
              A 
    DOCC [     5 ]

  Energy converged.

  @RHF Final Energy:   -76.02232131322369 with 0.000000 0.000000 -0.001000 perturbation

   => Energetics <=

    Nuclear Repulsion Energy =              9.1783881701064356
    One-Electron Energy =                -123.0935083523768583
    Two-Electron Energy =                  37.9048621282796319
    DFT Exchange-Correlation Energy =       0.0000000000000000
    Empirical Dispersion Energy =           0.0000000000000000
    PCM Polarization Energy =              -0.0120632592328935
    EFP Energy =                            0.0000000000000000
    Total Energy =                        -76.0223213132236850

    Alert: EFP and PCM quantities not currently incorporated into SCF psivars.

Properties will be evaluated at   0.000000,   0.000000,   0.000000 Bohr

Properties computed using the SCF density matrix

  Nuclear Dipole Moment: (a.u.)
     X:     0.0000      Y:     0.0000      Z:     0.9591

  Electronic Dipole Moment: (a.u.)
     X:    -0.0000      Y:    -0.0000      Z:     0.0108

  Dipole Moment: (a.u.)
     X:    -0.0000      Y:    -0.0000      Z:     0.9699     Total:     0.9699

  Dipole Moment: (Debye)
     X:    -0.0000      Y:    -0.0000      Z:     2.4652     Total:     2.4652


*** tstop() called on psinet at Mon May 15 15:41:13 2017
Module time:
	user time   =       0.96 seconds =       0.02 minutes
	system time =       0.03 seconds =       0.00 minutes
	total time  =          1 seconds =       0.02 minutes
Total time:
	user time   =       2.06 seconds =       0.03 minutes
	system time =       0.07 seconds =       0.00 minutes
	total time  =          3 seconds =       0.05 minutes

*** tstart() called on psinet
*** at Mon May 15 15:41:13 2017

   => Loading Basis Set <=

    Name: 6-31G*
    Role: ORBITAL
    Keyword: BASIS
    atoms 1   entry O          line   136 file /home/psilocaluser/gits/hrw-direct/objdir4/stage/usr/local/psi4/share/psi4/basis/6-31gs.gbs 
    atoms 2-3 entry H          line    35 file /home/psilocaluser/gits/hrw-direct/objdir4/stage/usr/local/psi4/share/psi4/basis/6-31gs.gbs 


         ---------------------------------------------------------
                                   SCF
            by Justin Turney, Rob Parrish, and Andy Simmonett
                              RHF Reference
                        1 Threads,    500 MiB Core
         ---------------------------------------------------------

  ==> Geometry <==

    Molecular point group: c1
    Full point group: C2v

    Geometry (in Angstrom), charge = 0, multiplicity = 1:

       Center              X                  Y                   Z               Mass       
    ------------   -----------------  -----------------  -----------------  -----------------
           O          0.000000000000     0.000000000000    -0.064484982919    15.994914619560
           H          0.000000000000    -0.765912483269     0.511711737260     1.007825032070
           H          0.000000000000     0.765912483269     0.511711737260     1.007825032070

  Running in c1 symmetry.

  Rotational constants: A =     28.36516  B =     14.25683  C =      9.48800 [cm^-1]
  Rotational constants: A = 850366.02211  B = 427409.09891  C = 284442.98944 [MHz]
  Nuclear repulsion =    9.181265525383258

  Charge       = 0
  Multiplicity = 1
  Electrons    = 10
  Nalpha       = 5
  Nbeta        = 5

  ==> Algorithm <==

  SCF Algorithm Type is PK.
  DIIS enabled.
  MOM disabled.
  Fractional occupation disabled.
  Guess Type is SAD.
  Energy threshold   = 1.00e-10
  Density threshold  = 1.00e-06
  Integral threshold = 0.00e+00

  ==> Primary Basis <==

  Basis Set: 6-31G*
    Blend: 6-31G*
    Number of shells: 10
    Number of basis function: 19
    Number of Cartesian functions: 19
    Spherical Harmonics?: false
    Max angular momentum: 2

  **PSI4:PCMSOLVER Interface Active**


 * PCMSolver, an API for the Polarizable Continuum Model electrostatic problem. Version 1.1.10
   Main authors: R. Di Remigio, L. Frediani, K. Mozgawa
    With contributions from:
     R. Bast            (CMake framework)
     U. Ekstroem        (automatic differentiation library)
     J. Juselius        (input parsing library and CMake framework)
   Theory: - J. Tomasi, B. Mennucci and R. Cammi:
            "Quantum Mechanical Continuum Solvation Models", Chem. Rev., 105 (2005) 2999
   PCMSolver is distributed under the terms of the GNU Lesser General Public License.

 * Git last commit hash   : 5a5f9c3
 * Git last commit date   : Mon Mar 27 11:18:34 2017 +0200
 * Git last commit author : Roberto Di Remigio


~~~~~~~~~~ PCMSolver ~~~~~~~~~~
Using CODATA 2010 set of constants.
Input parsing done API-side
========== Cavity 
Atomic radii set: 
Cavity type: GePol
Average tesserae area = 0.3 Ang^2
Solvent probe radius = 1.385 Ang
Number of spheres = 3 [initial = 3; added = 0]
Number of finite elements = 184
Number of irreducible finite elements = 184
============ Spheres list (in Angstrom)
 Sphere   on   Radius   Alpha       X            Y            Z     
-------- ---- -------- ------- -----------  -----------  -----------
   1      O    1.7500   1.00     0.000000     0.000000    -0.064485  
   2      H    1.4430   1.00     0.000000    -0.765912     0.511712  
   3      H    1.4430   1.00     0.000000     0.765912     0.511712  
========== Static solver 
Solver Type: C-PCM
PCM matrix hermitivitized
Correction = 0
============ Medium 
Medium initialized from solvent built-in data.
Solvent name:          Water
Static  permittivity = 78.39
Optical permittivity = 1.776
Solvent radius =       1.385 Ang
.... Inside 
Green's function type: vacuum
.... Outside 
Green's function type: uniform dielectric
Permittivity = 78.39

  There are 184 tesserae, 184 of which irreducible.

  ==> Pre-Iterations <==

   -------------------------------------------------------
    Irrep   Nso     Nmo     Nalpha   Nbeta   Ndocc  Nsocc
   -------------------------------------------------------
     A         19      19       0       0       0       0
   -------------------------------------------------------
    Total      19      19       5       5       5       0
   -------------------------------------------------------

  Perturbing V by 0.002000 mu(z).
  ==> Integral Setup <==

  Using in-core PK algorithm.
   Calculation information:
      Number of atoms:                   3
      Number of AO shells:              10
      Number of primitives:             23
      Number of atomic orbitals:        19
      Number of basis functions:        19

      Integral cutoff                 1.00e-12
      Number of threads:                 1

  Performing in-core PK
  Using 36290 doubles for integral storage.
  We computed 1540 shell quartets total.
  Whereas there are 1540 unique shell quartets.
  ==> DiskJK: Disk-Based J/K Matrices <==

    J tasked:                  Yes
    K tasked:                  Yes
    wK tasked:                  No
    Memory (MB):               375
    Schwarz Cutoff:          1E-12

    OpenMP threads:              1
  Minimum eigenvalue in the overlap matrix is 2.2344839529E-02.
  Using Symmetric Orthogonalization.

  SCF Guess: Superposition of Atomic Densities via on-the-fly atomic UHF.

  ==> Iterations <==

                        Total Energy        Delta E     RMS |[F,P]|

   PCM polarization energy = -0.00076902191869
   @RHF iter   0:   -76.00722104006201   -7.60072e+01   8.85214e-02 
   PCM polarization energy = -0.01563335320758
   @RHF iter   1:   -75.98587675955278    2.13443e-02   1.39188e-02 
   PCM polarization energy = -0.01062151898959
   @RHF iter   2:   -76.01241594030770   -2.65392e-02   6.76970e-03 DIIS
   PCM polarization energy = -0.01176139895062
   @RHF iter   3:   -76.01862882135823   -6.21288e-03   1.44043e-03 DIIS
   PCM polarization energy = -0.01170166971971
   @RHF iter   4:   -76.01934240907183   -7.13588e-04   3.98428e-04 DIIS
   PCM polarization energy = -0.01172296785851
   @RHF iter   5:   -76.01943001725917   -8.76082e-05   9.22716e-05 DIIS
   PCM polarization energy = -0.01173617920651
   @RHF iter   6:   -76.01943499504519   -4.97779e-06   1.18600e-05 DIIS
   PCM polarization energy = -0.01173819891999
   @RHF iter   7:   -76.01943506131217   -6.62670e-08   2.53606e-06 DIIS
   PCM polarization energy = -0.01173868108638
   @RHF iter   8:   -76.01943506470559   -3.39342e-09   3.74030e-07 DIIS
   PCM polarization energy = -0.01173864229950
   @RHF iter   9:   -76.01943506476941   -6.38209e-11   6.75666e-08 DIIS

  ==> Post-Iterations <==

    Orbital Energies (a.u.)
    -----------------------

    Doubly Occupied:                                                      

       1A    -20.562112     2A     -1.342333     3A     -0.710497  
       4A     -0.576002     5A     -0.503692  

    Virtual:                                                              

       6A      0.225341     7A      0.320312     8A      1.027123  
       9A      1.119475    10A      1.158665    11A      1.162107  
      12A      1.378282    13A      1.430714    14A      2.016707  
      15A      2.025395    16A      2.060664    17A      2.618058  
      18A      2.941746    19A      3.966410  

    Final Occupation by Irrep:
              A 
    DOCC [     5 ]

  Energy converged.

  @RHF Final Energy:   -76.01943506476941 with 0.000000 0.000000 0.002000 perturbation

   => Energetics <=

    Nuclear Repulsion Energy =              9.1812655253832585
    One-Electron Energy =                -123.0857338051245478
    Two-Electron Energy =                  37.8967718572713892
    DFT Exchange-Correlation Energy =       0.0000000000000000
    Empirical Dispersion Energy =           0.0000000000000000
    PCM Polarization Energy =              -0.0117386422995037
    EFP Energy =                            0.0000000000000000
    Total Energy =                        -76.0194350647694108

    Alert: EFP and PCM quantities not currently incorporated into SCF psivars.

Properties will be evaluated at   0.000000,   0.000000,   0.000000 Bohr

Properties computed using the SCF density matrix

  Nuclear Dipole Moment: (a.u.)
     X:     0.0000      Y:     0.0000      Z:     0.9591

  Electronic Dipole Moment: (a.u.)
     X:    -0.0000      Y:    -0.0000      Z:    -0.0048

  Dipole Moment: (a.u.)
     X:    -0.0000      Y:    -0.0000      Z:     0.9543     Total:     0.9543

  Dipole Moment: (Debye)
     X:    -0.0000      Y:    -0.0000      Z:     2.4255     Total:     2.4255


*** tstop() called on psinet at Mon May 15 15:41:14 2017
Module time:
	user time   =       1.03 seconds =       0.02 minutes
	system time =       0.05 seconds =       0.00 minutes
	total time  =          1 seconds =       0.02 minutes
Total time:
	user time   =       3.11 seconds =       0.05 minutes
	system time =       0.12 seconds =       0.00 minutes
	total time  =          4 seconds =       0.07 minutes

*** tstart() called on psinet
*** at Mon May 15 15:41:14 2017

   => Loading Basis Set <=

    Name: 6-31G*
    Role: ORBITAL
    Keyword: BASIS
    atoms 1   entry O          line   136 file /home/psilocaluser/gits/hrw-direct/objdir4/stage/usr/local/psi4/share/psi4/basis/6-31gs.gbs 
    atoms 2-3 entry H          line    35 file /home/psilocaluser/gits/hrw-direct/objdir4/stage/usr/local/psi4/share/psi4/basis/6-31gs.gbs 


         ---------------------------------------------------------
                                   SCF
            by Justin Turney, Rob Parrish, and Andy Simmonett
                              RHF Reference
                        1 Threads,    500 MiB Core
         ---------------------------------------------------------

  ==> Geometry <==

    Molecular point group: c1
    Full point group: C2v

    Geometry (in Angstrom), charge = 0, multiplicity = 1:

       Center              X                  Y                   Z               Mass       
    ------------   -----------------  -----------------  -----------------  -----------------
           O          0.000000000000     0.000000000000    -0.064484982919    15.994914619560
           H          0.000000000000    -0.765912483269     0.511711737260     1.007825032070
           H          0.000000000000     0.765912483269     0.511711737260     1.007825032070

  Running in c1 symmetry.

  Rotational constants: A =     28.36516  B =     14.25683  C =      9.48800 [cm^-1]
  Rotational constants: A = 850366.02211  B = 427409.09891  C = 284442.98944 [MHz]
  Nuclear repulsion =    9.177429051680827

  Charge       = 0
  Multiplicity = 1
  Electrons    = 10
  Nalpha       = 5
  Nbeta        = 5

  ==> Algorithm <==

  SCF Algorithm Type is PK.
  DIIS enabled.
  MOM disabled.
  Fractional occupation disabled.
  Guess Type is SAD.
  Energy threshold   = 1.00e-10
  Density threshold  = 1.00e-06
  Integral threshold = 0.00e+00

  ==> Primary Basis <==

  Basis Set: 6-31G*
    Blend: 6-31G*
    Number of shells: 10
    Number of basis function: 19
    Number of Cartesian functions: 19
    Spherical Harmonics?: false
    Max angular momentum: 2

  **PSI4:PCMSOLVER Interface Active**


 * PCMSolver, an API for the Polarizable Continuum Model electrostatic problem. Version 1.1.10
   Main authors: R. Di Remigio, L. Frediani, K. Mozgawa
    With contributions from:
     R. Bast            (CMake framework)
     U. Ekstroem        (automatic differentiation library)
     J. Juselius        (input parsing library and CMake framework)
   Theory: - J. Tomasi, B. Mennucci and R. Cammi:
            "Quantum Mechanical Continuum Solvation Models", Chem. Rev., 105 (2005) 2999
   PCMSolver is distributed under the terms of the GNU Lesser General Public License.

 * Git last commit hash   : 5a5f9c3
 * Git last commit date   : Mon Mar 27 11:18:34 2017 +0200
 * Git last commit author : Roberto Di Remigio


~~~~~~~~~~ PCMSolver ~~~~~~~~~~
Using CODATA 2010 set of constants.
Input parsing done API-side
========== Cavity 
Atomic radii set: 
Cavity type: GePol
Average tesserae area = 0.3 Ang^2
Solvent probe radius = 1.385 Ang
Number of spheres = 3 [initial = 3; added = 0]
Number of finite elements = 184
Number of irreducible finite elements = 184
============ Spheres list (in Angstrom)
 Sphere   on   Radius   Alpha       X            Y            Z     
-------- ---- -------- ------- -----------  -----------  -----------
   1      O    1.7500   1.00     0.000000     0.000000    -0.064485  
   2      H    1.4430   1.00     0.000000    -0.765912     0.511712  
   3      H    1.4430   1.00     0.000000     0.765912     0.511712  
========== Static solver 
Solver Type: C-PCM
PCM matrix hermitivitized
Correction = 0
============ Medium 
Medium initialized from solvent built-in data.
Solvent name:          Water
Static  permittivity = 78.39
Optical permittivity = 1.776
Solvent radius =       1.385 Ang
.... Inside 
Green's function type: vacuum
.... Outside 
Green's function type: uniform dielectric
Permittivity = 78.39

  There are 184 tesserae, 184 of which irreducible.

  ==> Pre-Iterations <==

   -------------------------------------------------------
    Irrep   Nso     Nmo     Nalpha   Nbeta   Ndocc  Nsocc
   -------------------------------------------------------
     A         19      19       0       0       0       0
   -------------------------------------------------------
    Total      19      19       5       5       5       0
   -------------------------------------------------------

  Perturbing V by -0.002000 mu(z).
  ==> Integral Setup <==

  Using in-core PK algorithm.
   Calculation information:
      Number of atoms:                   3
      Number of AO shells:              10
      Number of primitives:             23
      Number of atomic orbitals:        19
      Number of basis functions:        19

      Integral cutoff                 1.00e-12
      Number of threads:                 1

  Performing in-core PK
  Using 36290 doubles for integral storage.
  We computed 1540 shell quartets total.
  Whereas there are 1540 unique shell quartets.
  ==> DiskJK: Disk-Based J/K Matrices <==

    J tasked:                  Yes
    K tasked:                  Yes
    wK tasked:                  No
    Memory (MB):               375
    Schwarz Cutoff:          1E-12

    OpenMP threads:              1
  Minimum eigenvalue in the overlap matrix is 2.2344839529E-02.
  Using Symmetric Orthogonalization.

  SCF Guess: Superposition of Atomic Densities via on-the-fly atomic UHF.

  ==> Iterations <==

                        Total Energy        Delta E     RMS |[F,P]|

   PCM polarization energy = -0.00076902191869
   @RHF iter   0:   -76.00722104006203   -7.60072e+01   8.85463e-02 
   PCM polarization energy = -0.01607031064552
   @RHF iter   1:   -75.98945923364199    1.77618e-02   1.40204e-02 
   PCM polarization energy = -0.01101959144864
   @RHF iter   2:   -76.01621328382458   -2.67541e-02   6.82020e-03 DIIS
   PCM polarization energy = -0.01218174996458
   @RHF iter   3:   -76.02250032623758   -6.28704e-03   1.43528e-03 DIIS
   PCM polarization energy = -0.01213307665853
   @RHF iter   4:   -76.02320364899714   -7.03323e-04   3.94821e-04 DIIS
   PCM polarization energy = -0.01215679503029
   @RHF iter   5:   -76.02328894621887   -8.52972e-05   9.08008e-05 DIIS
   PCM polarization energy = -0.01216992980564
   @RHF iter   6:   -76.02329371540699   -4.76919e-06   1.15616e-05 DIIS
   PCM polarization energy = -0.01217173061629
   @RHF iter   7:   -76.02329377782489   -6.24179e-08   2.46498e-06 DIIS
   PCM polarization energy = -0.01217215012719
   @RHF iter   8:   -76.02329378101058   -3.18569e-09   3.64459e-07 DIIS
   PCM polarization energy = -0.01217211217430
   @RHF iter   9:   -76.02329378107048   -5.98988e-11   6.28497e-08 DIIS

  ==> Post-Iterations <==

    Orbital Energies (a.u.)
    -----------------------

    Doubly Occupied:                                                      

       1A    -20.560812     2A     -1.340984     3A     -0.709272  
       4A     -0.576113     5A     -0.502936  

    Virtual:                                                              

       6A      0.230433     7A      0.325358     8A      1.027688  
       9A      1.118064    10A      1.159090    11A      1.164067  
      12A      1.379006    13A      1.434061    14A      2.016657  
      15A      2.025622    16A      2.060819    17A      2.618938  
      18A      2.942202    19A      3.966977  

    Final Occupation by Irrep:
              A 
    DOCC [     5 ]

  Energy converged.

  @RHF Final Energy:   -76.02329378107048 with 0.000000 0.000000 -0.002000 perturbation

   => Energetics <=

    Nuclear Repulsion Energy =              9.1774290516808268
    One-Electron Energy =                -123.0960716218634445
    Two-Electron Energy =                  37.9075209012864249
    DFT Exchange-Correlation Energy =       0.0000000000000000
    Empirical Dispersion Energy =           0.0000000000000000
    PCM Polarization Energy =              -0.0121721121743010
    EFP Energy =                            0.0000000000000000
    Total Energy =                        -76.0232937810704783

    Alert: EFP and PCM quantities not currently incorporated into SCF psivars.

Properties will be evaluated at   0.000000,   0.000000,   0.000000 Bohr

Properties computed using the SCF density matrix

  Nuclear Dipole Moment: (a.u.)
     X:     0.0000      Y:     0.0000      Z:     0.9591

  Electronic Dipole Moment: (a.u.)
     X:    -0.0000      Y:    -0.0000      Z:     0.0159

  Dipole Moment: (a.u.)
     X:    -0.0000      Y:    -0.0000      Z:     0.9751     Total:     0.9751

  Dipole Moment: (Debye)
     X:    -0.0000      Y:    -0.0000      Z:     2.4783     Total:     2.4783


*** tstop() called on psinet at Mon May 15 15:41:15 2017
Module time:
	user time   =       0.96 seconds =       0.02 minutes
	system time =       0.02 seconds =       0.00 minutes
	total time  =          1 seconds =       0.02 minutes
Total time:
	user time   =       4.09 seconds =       0.07 minutes
	system time =       0.14 seconds =       0.00 minutes
	total time  =          5 seconds =       0.08 minutes
Perturbation strength =  0.0010, HF computed energy =   -76.0203919443
	Energy for displacement 0.........................................PASSED
Perturbation strength = -0.0010, HF computed energy =   -76.0223213132
	Energy for displacement 1.........................................PASSED
Perturbation strength =  0.0020, HF computed energy =   -76.0194350648
	Energy for displacement 2.........................................PASSED
Perturbation strength = -0.0020, HF computed energy =   -76.0232937811
	Energy for displacement 3.........................................PASSED
Total dipoles
HF 3-point stencil: mu(z) = 0.9646844573 ea0, 2.4519830826 Debye
HF 5-point stencil: mu(z) = 0.9646862514 ea0, 2.4519876425 Debye

*** tstart() called on psinet
*** at Mon May 15 15:41:15 2017

   => Loading Basis Set <=

    Name: 6-31G*
    Role: ORBITAL
    Keyword: BASIS
    atoms 1   entry O          line   136 file /home/psilocaluser/gits/hrw-direct/objdir4/stage/usr/local/psi4/share/psi4/basis/6-31gs.gbs 
    atoms 2-3 entry H          line    35 file /home/psilocaluser/gits/hrw-direct/objdir4/stage/usr/local/psi4/share/psi4/basis/6-31gs.gbs 


         ---------------------------------------------------------
                                   SCF
            by Justin Turney, Rob Parrish, and Andy Simmonett
                              RHF Reference
                        1 Threads,    500 MiB Core
         ---------------------------------------------------------

  ==> Geometry <==

    Molecular point group: c1
    Full point group: C2v

    Geometry (in Angstrom), charge = 0, multiplicity = 1:

       Center              X                  Y                   Z               Mass       
    ------------   -----------------  -----------------  -----------------  -----------------
           O          0.000000000000     0.000000000000    -0.064484982919    15.994914619560
           H          0.000000000000    -0.765912483269     0.511711737260     1.007825032070
           H          0.000000000000     0.765912483269     0.511711737260     1.007825032070

  Running in c1 symmetry.

  Rotational constants: A =     28.36516  B =     14.25683  C =      9.48800 [cm^-1]
  Rotational constants: A = 850366.02211  B = 427409.09891  C = 284442.98944 [MHz]
  Nuclear repulsion =    9.179347288532043

  Charge       = 0
  Multiplicity = 1
  Electrons    = 10
  Nalpha       = 5
  Nbeta        = 5

  ==> Algorithm <==

  SCF Algorithm Type is PK.
  DIIS enabled.
  MOM disabled.
  Fractional occupation disabled.
  Guess Type is SAD.
  Energy threshold   = 1.00e-10
  Density threshold  = 1.00e-06
  Integral threshold = 0.00e+00

  ==> Primary Basis <==

  Basis Set: 6-31G*
    Blend: 6-31G*
    Number of shells: 10
    Number of basis function: 19
    Number of Cartesian functions: 19
    Spherical Harmonics?: false
    Max angular momentum: 2

  **PSI4:PCMSOLVER Interface Active**


 * PCMSolver, an API for the Polarizable Continuum Model electrostatic problem. Version 1.1.10
   Main authors: R. Di Remigio, L. Frediani, K. Mozgawa
    With contributions from:
     R. Bast            (CMake framework)
     U. Ekstroem        (automatic differentiation library)
     J. Juselius        (input parsing library and CMake framework)
   Theory: - J. Tomasi, B. Mennucci and R. Cammi:
            "Quantum Mechanical Continuum Solvation Models", Chem. Rev., 105 (2005) 2999
   PCMSolver is distributed under the terms of the GNU Lesser General Public License.

 * Git last commit hash   : 5a5f9c3
 * Git last commit date   : Mon Mar 27 11:18:34 2017 +0200
 * Git last commit author : Roberto Di Remigio


~~~~~~~~~~ PCMSolver ~~~~~~~~~~
Using CODATA 2010 set of constants.
Input parsing done API-side
========== Cavity 
Atomic radii set: 
Cavity type: GePol
Average tesserae area = 0.3 Ang^2
Solvent probe radius = 1.385 Ang
Number of spheres = 3 [initial = 3; added = 0]
Number of finite elements = 184
Number of irreducible finite elements = 184
============ Spheres list (in Angstrom)
 Sphere   on   Radius   Alpha       X            Y            Z     
-------- ---- -------- ------- -----------  -----------  -----------
   1      O    1.7500   1.00     0.000000     0.000000    -0.064485  
   2      H    1.4430   1.00     0.000000    -0.765912     0.511712  
   3      H    1.4430   1.00     0.000000     0.765912     0.511712  
========== Static solver 
Solver Type: C-PCM
PCM matrix hermitivitized
Correction = 0
============ Medium 
Medium initialized from solvent built-in data.
Solvent name:          Water
Static  permittivity = 78.39
Optical permittivity = 1.776
Solvent radius =       1.385 Ang
.... Inside 
Green's function type: vacuum
.... Outside 
Green's function type: uniform dielectric
Permittivity = 78.39

  There are 184 tesserae, 184 of which irreducible.

  ==> Pre-Iterations <==

   -------------------------------------------------------
    Irrep   Nso     Nmo     Nalpha   Nbeta   Ndocc  Nsocc
   -------------------------------------------------------
     A         19      19       0       0       0       0
   -------------------------------------------------------
    Total      19      19       5       5       5       0
   -------------------------------------------------------

  ==> Integral Setup <==

  Using in-core PK algorithm.
   Calculation information:
      Number of atoms:                   3
      Number of AO shells:              10
      Number of primitives:             23
      Number of atomic orbitals:        19
      Number of basis functions:        19

      Integral cutoff                 1.00e-12
      Number of threads:                 1

  Performing in-core PK
  Using 36290 doubles for integral storage.
  We computed 1540 shell quartets total.
  Whereas there are 1540 unique shell quartets.
  ==> DiskJK: Disk-Based J/K Matrices <==

    J tasked:                  Yes
    K tasked:                  Yes
    wK tasked:                  No
    Memory (MB):               375
    Schwarz Cutoff:          1E-12

    OpenMP threads:              1
  Minimum eigenvalue in the overlap matrix is 2.2344839529E-02.
  Using Symmetric Orthogonalization.

  SCF Guess: Superposition of Atomic Densities via on-the-fly atomic UHF.

  ==> Iterations <==

                        Total Energy        Delta E     RMS |[F,P]|

   PCM polarization energy = -0.00076902191869
   @RHF iter   0:   -76.00722104006203   -7.60072e+01   8.85336e-02 
   PCM polarization energy = -0.01585148707323
   @RHF iter   1:   -75.98765757404657    1.95635e-02   1.39698e-02 
   PCM polarization energy = -0.01081986696744
   @RHF iter   2:   -76.01430416423531   -2.66466e-02   6.79507e-03 DIIS
   PCM polarization energy = -0.01197095359692
   @RHF iter   3:   -76.02055422786256   -6.25006e-03   1.43784e-03 DIIS
   PCM polarization energy = -0.01191672876819
   @RHF iter   4:   -76.02126264859163   -7.08421e-04   3.96616e-04 DIIS
   PCM polarization energy = -0.01193923329685
   @RHF iter   5:   -76.02134909103621   -8.64424e-05   9.15311e-05 DIIS
   PCM polarization energy = -0.01195240686837
   @RHF iter   6:   -76.02135396308610   -4.87205e-06   1.17084e-05 DIIS
   PCM polarization energy = -0.01195431665050
   @RHF iter   7:   -76.02135402738168   -6.42956e-08   2.50008e-06 DIIS
   PCM polarization energy = -0.01195476738369
   @RHF iter   8:   -76.02135403066893   -3.28725e-09   3.69141e-07 DIIS
   PCM polarization energy = -0.01195472905161
   @RHF iter   9:   -76.02135403073069   -6.17604e-11   6.51463e-08 DIIS

  ==> Post-Iterations <==

    Orbital Energies (a.u.)
    -----------------------

    Doubly Occupied:                                                      

       1A    -20.561455     2A     -1.341654     3A     -0.709880  
       4A     -0.576054     5A     -0.503309  

    Virtual:                                                              

       6A      0.227889     7A      0.322837     8A      1.027410  
       9A      1.118807    10A      1.158881    11A      1.163052  
      12A      1.378643    13A      1.432390    14A      2.016685  
      15A      2.025511    16A      2.060744    17A      2.618501  
      18A      2.941977    19A      3.966697  

    Final Occupation by Irrep:
              A 
    DOCC [     5 ]

  Energy converged.

  @RHF Final Energy:   -76.02135403073069

   => Energetics <=

    Nuclear Repulsion Energy =              9.1793472885320426
    One-Electron Energy =                -123.0909310296310082
    Two-Electron Energy =                  37.9021844394198837
    DFT Exchange-Correlation Energy =       0.0000000000000000
    Empirical Dispersion Energy =           0.0000000000000000
    PCM Polarization Energy =              -0.0119547290516088
    EFP Energy =                            0.0000000000000000
    Total Energy =                        -76.0213540307306914

    Alert: EFP and PCM quantities not currently incorporated into SCF psivars.

Properties will be evaluated at   0.000000,   0.000000,   0.000000 Bohr

Properties computed using the SCF density matrix

  Nuclear Dipole Moment: (a.u.)
     X:     0.0000      Y:     0.0000      Z:     0.9591

  Electronic Dipole Moment: (a.u.)
     X:    -0.0000      Y:    -0.0000      Z:     0.0056

  Dipole Moment: (a.u.)
     X:    -0.0000      Y:    -0.0000      Z:     0.9647     Total:     0.9647

  Dipole Moment: (Debye)
     X:    -0.0000      Y:    -0.0000      Z:     2.4520     Total:     2.4520


*** tstop() called on psinet at Mon May 15 15:41:16 2017
Module time:
	user time   =       0.97 seconds =       0.02 minutes
	system time =       0.04 seconds =       0.00 minutes
	total time  =          1 seconds =       0.02 minutes
Total time:
	user time   =       5.07 seconds =       0.08 minutes
	system time =       0.18 seconds =       0.00 minutes
	total time  =          6 seconds =       0.10 minutes


Properties will be evaluated at   0.000000,   0.000000,   0.000000 Bohr

Properties computed using the  density matrix


 Multipole Moments:

 ------------------------------------------------------------------------------------
     Multipole             Electric (a.u.)       Nuclear  (a.u.)        Total (a.u.)
 ------------------------------------------------------------------------------------

 L = 1.  Multiply by 2.5417462300 to convert to Debye
 Dipole X            :         -0.0000002            0.0000000           -0.0000002
 Dipole Y            :         -0.0000001            0.0000000           -0.0000001
 Dipole Z            :          0.0055684            0.9591184            0.9646868

 --------------------------------------------------------------------------------
	Z dipole moment, using 3-point stencil HF.........................PASSED
	Z dipole moment, using 5-point stencil HF.........................PASSED
	Z dipole moment, analytic result HF...............................PASSED

*** tstart() called on psinet
*** at Mon May 15 15:41:16 2017

   => Loading Basis Set <=

    Name: 6-31G*
    Role: ORBITAL
    Keyword: BASIS
    atoms 1   entry O          line   136 file /home/psilocaluser/gits/hrw-direct/objdir4/stage/usr/local/psi4/share/psi4/basis/6-31gs.gbs 
    atoms 2-3 entry H          line    35 file /home/psilocaluser/gits/hrw-direct/objdir4/stage/usr/local/psi4/share/psi4/basis/6-31gs.gbs 


         ---------------------------------------------------------
                                   SCF
            by Justin Turney, Rob Parrish, and Andy Simmonett
                              RKS Reference
                        1 Threads,    500 MiB Core
         ---------------------------------------------------------

  ==> Geometry <==

    Molecular point group: c1
    Full point group: C2v

    Geometry (in Angstrom), charge = 0, multiplicity = 1:

       Center              X                  Y                   Z               Mass       
    ------------   -----------------  -----------------  -----------------  -----------------
           O          0.000000000000     0.000000000000    -0.064484982919    15.994914619560
           H          0.000000000000    -0.765912483269     0.511711737260     1.007825032070
           H          0.000000000000     0.765912483269     0.511711737260     1.007825032070

  Running in c1 symmetry.

  Rotational constants: A =     28.36516  B =     14.25683  C =      9.48800 [cm^-1]
  Rotational constants: A = 850366.02211  B = 427409.09891  C = 284442.98944 [MHz]
  Nuclear repulsion =    9.180306406957650

  Charge       = 0
  Multiplicity = 1
  Electrons    = 10
  Nalpha       = 5
  Nbeta        = 5

  ==> Algorithm <==

  SCF Algorithm Type is PK.
  DIIS enabled.
  MOM disabled.
  Fractional occupation disabled.
  Guess Type is SAD.
  Energy threshold   = 1.00e-10
  Density threshold  = 1.00e-06
  Integral threshold = 0.00e+00

  ==> Primary Basis <==

  Basis Set: 6-31G*
    Blend: 6-31G*
    Number of shells: 10
    Number of basis function: 19
    Number of Cartesian functions: 19
    Spherical Harmonics?: false
    Max angular momentum: 2

  ==> DFT Potential <==

   => B3LYP Composite Functional <= 

    B3LYP Hybrid-GGA Exchange-Correlation Functional (VWN1-RPA)

    P.J. Stephens et. al., J. Phys. Chem., 98, 11623-11627, 1994

    Points   =           5000
    Deriv    =              1
    GGA      =           TRUE
    Meta     =          FALSE

    X_LRC        =          FALSE
    X_Hybrid     =           TRUE
    X_Alpha      =   2.000000E-01
    X_Omega      =   0.000000E+00
    C_LRC        =          FALSE
    C_Hybrid     =          FALSE
    C_Alpha      =   0.000000E+00
    C_Omega      =   0.000000E+00

   => Exchange Functionals <=

    0.8000    B3_X
    0.2000      HF 

   => Correlation Functionals <=

    0.1900 VWN3RPA_C
    0.8100   LYP_C

   => Molecular Quadrature <=

    Radial Scheme    =       TREUTLER
    Pruning Scheme   =           FLAT
    Nuclear Scheme   =       TREUTLER

    BS radius alpha  =              1
    Pruning alpha    =              1
    Radial Points    =             75
    Spherical Points =            302
    Total Points     =          65565
    Total Blocks     =             67
    Max Points       =           4953
    Max Functions    =             19

  **PSI4:PCMSOLVER Interface Active**


 * PCMSolver, an API for the Polarizable Continuum Model electrostatic problem. Version 1.1.10
   Main authors: R. Di Remigio, L. Frediani, K. Mozgawa
    With contributions from:
     R. Bast            (CMake framework)
     U. Ekstroem        (automatic differentiation library)
     J. Juselius        (input parsing library and CMake framework)
   Theory: - J. Tomasi, B. Mennucci and R. Cammi:
            "Quantum Mechanical Continuum Solvation Models", Chem. Rev., 105 (2005) 2999
   PCMSolver is distributed under the terms of the GNU Lesser General Public License.

 * Git last commit hash   : 5a5f9c3
 * Git last commit date   : Mon Mar 27 11:18:34 2017 +0200
 * Git last commit author : Roberto Di Remigio


~~~~~~~~~~ PCMSolver ~~~~~~~~~~
Using CODATA 2010 set of constants.
Input parsing done API-side
========== Cavity 
Atomic radii set: 
Cavity type: GePol
Average tesserae area = 0.3 Ang^2
Solvent probe radius = 1.385 Ang
Number of spheres = 3 [initial = 3; added = 0]
Number of finite elements = 184
Number of irreducible finite elements = 184
============ Spheres list (in Angstrom)
 Sphere   on   Radius   Alpha       X            Y            Z     
-------- ---- -------- ------- -----------  -----------  -----------
   1      O    1.7500   1.00     0.000000     0.000000    -0.064485  
   2      H    1.4430   1.00     0.000000    -0.765912     0.511712  
   3      H    1.4430   1.00     0.000000     0.765912     0.511712  
========== Static solver 
Solver Type: C-PCM
PCM matrix hermitivitized
Correction = 0
============ Medium 
Medium initialized from solvent built-in data.
Solvent name:          Water
Static  permittivity = 78.39
Optical permittivity = 1.776
Solvent radius =       1.385 Ang
.... Inside 
Green's function type: vacuum
.... Outside 
Green's function type: uniform dielectric
Permittivity = 78.39

  There are 184 tesserae, 184 of which irreducible.

  ==> Pre-Iterations <==

   -------------------------------------------------------
    Irrep   Nso     Nmo     Nalpha   Nbeta   Ndocc  Nsocc
   -------------------------------------------------------
     A         19      19       0       0       0       0
   -------------------------------------------------------
    Total      19      19       5       5       5       0
   -------------------------------------------------------

  Perturbing V by 0.001000 mu(z).
  ==> Integral Setup <==

  Using in-core PK algorithm.
   Calculation information:
      Number of atoms:                   3
      Number of AO shells:              10
      Number of primitives:             23
      Number of atomic orbitals:        19
      Number of basis functions:        19

      Integral cutoff                 1.00e-12
      Number of threads:                 1

  Performing in-core PK
  Using 36290 doubles for integral storage.
  We computed 1540 shell quartets total.
  Whereas there are 1540 unique shell quartets.
  ==> DiskJK: Disk-Based J/K Matrices <==

    J tasked:                  Yes
    K tasked:                  Yes
    wK tasked:                  No
    Memory (MB):               375
    Schwarz Cutoff:          1E-12

    OpenMP threads:              1
  Minimum eigenvalue in the overlap matrix is 2.2344839529E-02.
  Using Symmetric Orthogonalization.

  SCF Guess: Superposition of Atomic Densities via on-the-fly atomic UHF.

  ==> Iterations <==

                        Total Energy        Delta E     RMS |[F,P]|

   PCM polarization energy = -0.00076902191869
   @RKS iter   0:   -76.41317707393300   -7.64132e+01   8.34694e-02 
   PCM polarization energy = -0.01659323954688
   @RKS iter   1:   -76.35558874696115    5.75883e-02   2.18536e-02 
   PCM polarization energy = -0.00507357988676
   @RKS iter   2:   -76.30498460265579    5.06041e-02   2.97441e-02 DIIS
   PCM polarization energy = -0.01050560852460
   @RKS iter   3:   -76.41740775105609   -1.12423e-01   4.94575e-04 DIIS
   PCM polarization energy = -0.01060314306005
   @RKS iter   4:   -76.41744187972057   -3.41287e-05   8.24622e-05 DIIS
   PCM polarization energy = -0.01058738265840
   @RKS iter   5:   -76.41744288408940   -1.00437e-06   7.29401e-06 DIIS
   PCM polarization energy = -0.01058919308084
   @RKS iter   6:   -76.41744289399952   -9.91012e-09   8.58606e-07 DIIS
   PCM polarization energy = -0.01058925038524
   @RKS iter   7:   -76.41744289413576   -1.36239e-10   2.08120e-07 DIIS
   PCM polarization energy = -0.01058923326992
   @RKS iter   8:   -76.41744289414277   -7.00595e-12   1.37077e-08 DIIS

  ==> Post-Iterations <==

    Orbital Energies (a.u.)
    -----------------------

    Doubly Occupied:                                                      

       1A    -19.136689     2A     -1.000384     3A     -0.523940  
       4A     -0.374968     5A     -0.297433  

    Virtual:                                                              

       6A      0.080959     7A      0.168758     8A      0.787662  
       9A      0.860722    10A      0.881760    11A      0.887073  
      12A      1.067854    13A      1.190333    14A      1.727228  
      15A      1.736082    16A      1.773290    17A      2.291522  
      18A      2.594406    19A      3.555728  

    Final Occupation by Irrep:
              A 
    DOCC [     5 ]

  Energy converged.

  @RKS Final Energy:   -76.41744289414277 with 0.000000 0.000000 0.001000 perturbation

   => Energetics <=

    Nuclear Repulsion Energy =              9.1803064069576497
    One-Electron Energy =                -123.1647021419677372
    Two-Electron Energy =                  45.1433185705258921
    DFT Exchange-Correlation Energy =      -7.5657764963886516
    Empirical Dispersion Energy =           0.0000000000000000
    PCM Polarization Energy =              -0.0105892332699244
    EFP Energy =                            0.0000000000000000
    Total Energy =                        -76.4174428941427664

    Alert: EFP and PCM quantities not currently incorporated into SCF psivars.

Properties will be evaluated at   0.000000,   0.000000,   0.000000 Bohr

Properties computed using the SCF density matrix

  Nuclear Dipole Moment: (a.u.)
     X:     0.0000      Y:     0.0000      Z:     0.9591

  Electronic Dipole Moment: (a.u.)
     X:    -0.0000      Y:    -0.0000      Z:    -0.0568

  Dipole Moment: (a.u.)
     X:    -0.0000      Y:    -0.0000      Z:     0.9023     Total:     0.9023

  Dipole Moment: (Debye)
     X:    -0.0000      Y:    -0.0000      Z:     2.2934     Total:     2.2934


*** tstop() called on psinet at Mon May 15 15:41:19 2017
Module time:
	user time   =       2.95 seconds =       0.05 minutes
	system time =       0.04 seconds =       0.00 minutes
	total time  =          3 seconds =       0.05 minutes
Total time:
	user time   =       8.05 seconds =       0.13 minutes
	system time =       0.22 seconds =       0.00 minutes
	total time  =          9 seconds =       0.15 minutes

*** tstart() called on psinet
*** at Mon May 15 15:41:19 2017

   => Loading Basis Set <=

    Name: 6-31G*
    Role: ORBITAL
    Keyword: BASIS
    atoms 1   entry O          line   136 file /home/psilocaluser/gits/hrw-direct/objdir4/stage/usr/local/psi4/share/psi4/basis/6-31gs.gbs 
    atoms 2-3 entry H          line    35 file /home/psilocaluser/gits/hrw-direct/objdir4/stage/usr/local/psi4/share/psi4/basis/6-31gs.gbs 


         ---------------------------------------------------------
                                   SCF
            by Justin Turney, Rob Parrish, and Andy Simmonett
                              RKS Reference
                        1 Threads,    500 MiB Core
         ---------------------------------------------------------

  ==> Geometry <==

    Molecular point group: c1
    Full point group: C2v

    Geometry (in Angstrom), charge = 0, multiplicity = 1:

       Center              X                  Y                   Z               Mass       
    ------------   -----------------  -----------------  -----------------  -----------------
           O          0.000000000000     0.000000000000    -0.064484982919    15.994914619560
           H          0.000000000000    -0.765912483269     0.511711737260     1.007825032070
           H          0.000000000000     0.765912483269     0.511711737260     1.007825032070

  Running in c1 symmetry.

  Rotational constants: A =     28.36516  B =     14.25683  C =      9.48800 [cm^-1]
  Rotational constants: A = 850366.02211  B = 427409.09891  C = 284442.98944 [MHz]
  Nuclear repulsion =    9.178388170106436

  Charge       = 0
  Multiplicity = 1
  Electrons    = 10
  Nalpha       = 5
  Nbeta        = 5

  ==> Algorithm <==

  SCF Algorithm Type is PK.
  DIIS enabled.
  MOM disabled.
  Fractional occupation disabled.
  Guess Type is SAD.
  Energy threshold   = 1.00e-10
  Density threshold  = 1.00e-06
  Integral threshold = 0.00e+00

  ==> Primary Basis <==

  Basis Set: 6-31G*
    Blend: 6-31G*
    Number of shells: 10
    Number of basis function: 19
    Number of Cartesian functions: 19
    Spherical Harmonics?: false
    Max angular momentum: 2

  ==> DFT Potential <==

   => B3LYP Composite Functional <= 

    B3LYP Hybrid-GGA Exchange-Correlation Functional (VWN1-RPA)

    P.J. Stephens et. al., J. Phys. Chem., 98, 11623-11627, 1994

    Points   =           5000
    Deriv    =              1
    GGA      =           TRUE
    Meta     =          FALSE

    X_LRC        =          FALSE
    X_Hybrid     =           TRUE
    X_Alpha      =   2.000000E-01
    X_Omega      =   0.000000E+00
    C_LRC        =          FALSE
    C_Hybrid     =          FALSE
    C_Alpha      =   0.000000E+00
    C_Omega      =   0.000000E+00

   => Exchange Functionals <=

    0.8000    B3_X
    0.2000      HF 

   => Correlation Functionals <=

    0.1900 VWN3RPA_C
    0.8100   LYP_C

   => Molecular Quadrature <=

    Radial Scheme    =       TREUTLER
    Pruning Scheme   =           FLAT
    Nuclear Scheme   =       TREUTLER

    BS radius alpha  =              1
    Pruning alpha    =              1
    Radial Points    =             75
    Spherical Points =            302
    Total Points     =          65565
    Total Blocks     =             67
    Max Points       =           4953
    Max Functions    =             19

  **PSI4:PCMSOLVER Interface Active**


 * PCMSolver, an API for the Polarizable Continuum Model electrostatic problem. Version 1.1.10
   Main authors: R. Di Remigio, L. Frediani, K. Mozgawa
    With contributions from:
     R. Bast            (CMake framework)
     U. Ekstroem        (automatic differentiation library)
     J. Juselius        (input parsing library and CMake framework)
   Theory: - J. Tomasi, B. Mennucci and R. Cammi:
            "Quantum Mechanical Continuum Solvation Models", Chem. Rev., 105 (2005) 2999
   PCMSolver is distributed under the terms of the GNU Lesser General Public License.

 * Git last commit hash   : 5a5f9c3
 * Git last commit date   : Mon Mar 27 11:18:34 2017 +0200
 * Git last commit author : Roberto Di Remigio


~~~~~~~~~~ PCMSolver ~~~~~~~~~~
Using CODATA 2010 set of constants.
Input parsing done API-side
========== Cavity 
Atomic radii set: 
Cavity type: GePol
Average tesserae area = 0.3 Ang^2
Solvent probe radius = 1.385 Ang
Number of spheres = 3 [initial = 3; added = 0]
Number of finite elements = 184
Number of irreducible finite elements = 184
============ Spheres list (in Angstrom)
 Sphere   on   Radius   Alpha       X            Y            Z     
-------- ---- -------- ------- -----------  -----------  -----------
   1      O    1.7500   1.00     0.000000     0.000000    -0.064485  
   2      H    1.4430   1.00     0.000000    -0.765912     0.511712  
   3      H    1.4430   1.00     0.000000     0.765912     0.511712  
========== Static solver 
Solver Type: C-PCM
PCM matrix hermitivitized
Correction = 0
============ Medium 
Medium initialized from solvent built-in data.
Solvent name:          Water
Static  permittivity = 78.39
Optical permittivity = 1.776
Solvent radius =       1.385 Ang
.... Inside 
Green's function type: vacuum
.... Outside 
Green's function type: uniform dielectric
Permittivity = 78.39

  There are 184 tesserae, 184 of which irreducible.

  ==> Pre-Iterations <==

   -------------------------------------------------------
    Irrep   Nso     Nmo     Nalpha   Nbeta   Ndocc  Nsocc
   -------------------------------------------------------
     A         19      19       0       0       0       0
   -------------------------------------------------------
    Total      19      19       5       5       5       0
   -------------------------------------------------------

  Perturbing V by -0.001000 mu(z).
  ==> Integral Setup <==

  Using in-core PK algorithm.
   Calculation information:
      Number of atoms:                   3
      Number of AO shells:              10
      Number of primitives:             23
      Number of atomic orbitals:        19
      Number of basis functions:        19

      Integral cutoff                 1.00e-12
      Number of threads:                 1

  Performing in-core PK
  Using 36290 doubles for integral storage.
  We computed 1540 shell quartets total.
  Whereas there are 1540 unique shell quartets.
  ==> DiskJK: Disk-Based J/K Matrices <==

    J tasked:                  Yes
    K tasked:                  Yes
    wK tasked:                  No
    Memory (MB):               375
    Schwarz Cutoff:          1E-12

    OpenMP threads:              1
  Minimum eigenvalue in the overlap matrix is 2.2344839529E-02.
  Using Symmetric Orthogonalization.

  SCF Guess: Superposition of Atomic Densities via on-the-fly atomic UHF.

  ==> Iterations <==

                        Total Energy        Delta E     RMS |[F,P]|

   PCM polarization energy = -0.00076902191869
   @RKS iter   0:   -76.41317707393303   -7.64132e+01   8.34777e-02 
   PCM polarization energy = -0.01684669317827
   @RKS iter   1:   -76.35690498193495    5.62721e-02   2.19484e-02 
   PCM polarization energy = -0.00524903153927
   @RKS iter   2:   -76.30623280470809    5.06722e-02   2.98292e-02 DIIS
   PCM polarization energy = -0.01071952875212
   @RKS iter   3:   -76.41922269981094   -1.12990e-01   5.00203e-04 DIIS
   PCM polarization energy = -0.01082029911905
   @RKS iter   4:   -76.41925751862662   -3.48188e-05   8.24557e-05 DIIS
   PCM polarization energy = -0.01080430352191
   @RKS iter   5:   -76.41925852163303   -1.00301e-06   7.26613e-06 DIIS
   PCM polarization energy = -0.01080611887595
   @RKS iter   6:   -76.41925853141458   -9.78156e-09   8.45420e-07 DIIS
   PCM polarization energy = -0.01080617476226
   @RKS iter   7:   -76.41925853154653   -1.31948e-10   2.04829e-07 DIIS
   PCM polarization energy = -0.01080615796787
   @RKS iter   8:   -76.41925853155334   -6.80700e-12   1.33857e-08 DIIS

  ==> Post-Iterations <==

    Orbital Energies (a.u.)
    -----------------------

    Doubly Occupied:                                                      

       1A    -19.136026     2A     -0.999541     3A     -0.523144  
       4A     -0.374970     5A     -0.297084  

    Virtual:                                                              

       6A      0.083502     7A      0.171236     8A      0.788260  
       9A      0.860189    10A      0.881923    11A      0.888044  
      12A      1.068203    13A      1.192065    14A      1.727268  
      15A      1.736254    16A      1.773422    17A      2.292032  
      18A      2.594715    19A      3.556006  

    Final Occupation by Irrep:
              A 
    DOCC [     5 ]

  Energy converged.

  @RKS Final Energy:   -76.41925853155334 with 0.000000 0.000000 -0.001000 perturbation

   => Energetics <=

    Nuclear Repulsion Energy =              9.1783881701064356
    One-Electron Energy =                -123.1703242650261529
    Two-Electron Energy =                  45.1495407777757833
    DFT Exchange-Correlation Energy =      -7.5660570564415330
    Empirical Dispersion Energy =           0.0000000000000000
    PCM Polarization Energy =              -0.0108061579678661
    EFP Energy =                            0.0000000000000000
    Total Energy =                        -76.4192585315533393

    Alert: EFP and PCM quantities not currently incorporated into SCF psivars.

Properties will be evaluated at   0.000000,   0.000000,   0.000000 Bohr

Properties computed using the SCF density matrix

  Nuclear Dipole Moment: (a.u.)
     X:     0.0000      Y:     0.0000      Z:     0.9591

  Electronic Dipole Moment: (a.u.)
     X:    -0.0000      Y:    -0.0000      Z:    -0.0458

  Dipole Moment: (a.u.)
     X:    -0.0000      Y:    -0.0000      Z:     0.9133     Total:     0.9133

  Dipole Moment: (Debye)
     X:    -0.0000      Y:    -0.0000      Z:     2.3215     Total:     2.3215


*** tstop() called on psinet at Mon May 15 15:41:22 2017
Module time:
	user time   =       3.00 seconds =       0.05 minutes
	system time =       0.03 seconds =       0.00 minutes
	total time  =          3 seconds =       0.05 minutes
Total time:
	user time   =      11.07 seconds =       0.18 minutes
	system time =       0.25 seconds =       0.00 minutes
	total time  =         12 seconds =       0.20 minutes

*** tstart() called on psinet
*** at Mon May 15 15:41:22 2017

   => Loading Basis Set <=

    Name: 6-31G*
    Role: ORBITAL
    Keyword: BASIS
    atoms 1   entry O          line   136 file /home/psilocaluser/gits/hrw-direct/objdir4/stage/usr/local/psi4/share/psi4/basis/6-31gs.gbs 
    atoms 2-3 entry H          line    35 file /home/psilocaluser/gits/hrw-direct/objdir4/stage/usr/local/psi4/share/psi4/basis/6-31gs.gbs 


         ---------------------------------------------------------
                                   SCF
            by Justin Turney, Rob Parrish, and Andy Simmonett
                              RKS Reference
                        1 Threads,    500 MiB Core
         ---------------------------------------------------------

  ==> Geometry <==

    Molecular point group: c1
    Full point group: C2v

    Geometry (in Angstrom), charge = 0, multiplicity = 1:

       Center              X                  Y                   Z               Mass       
    ------------   -----------------  -----------------  -----------------  -----------------
           O          0.000000000000     0.000000000000    -0.064484982919    15.994914619560
           H          0.000000000000    -0.765912483269     0.511711737260     1.007825032070
           H          0.000000000000     0.765912483269     0.511711737260     1.007825032070

  Running in c1 symmetry.

  Rotational constants: A =     28.36516  B =     14.25683  C =      9.48800 [cm^-1]
  Rotational constants: A = 850366.02211  B = 427409.09891  C = 284442.98944 [MHz]
  Nuclear repulsion =    9.181265525383258

  Charge       = 0
  Multiplicity = 1
  Electrons    = 10
  Nalpha       = 5
  Nbeta        = 5

  ==> Algorithm <==

  SCF Algorithm Type is PK.
  DIIS enabled.
  MOM disabled.
  Fractional occupation disabled.
  Guess Type is SAD.
  Energy threshold   = 1.00e-10
  Density threshold  = 1.00e-06
  Integral threshold = 0.00e+00

  ==> Primary Basis <==

  Basis Set: 6-31G*
    Blend: 6-31G*
    Number of shells: 10
    Number of basis function: 19
    Number of Cartesian functions: 19
    Spherical Harmonics?: false
    Max angular momentum: 2

  ==> DFT Potential <==

   => B3LYP Composite Functional <= 

    B3LYP Hybrid-GGA Exchange-Correlation Functional (VWN1-RPA)

    P.J. Stephens et. al., J. Phys. Chem., 98, 11623-11627, 1994

    Points   =           5000
    Deriv    =              1
    GGA      =           TRUE
    Meta     =          FALSE

    X_LRC        =          FALSE
    X_Hybrid     =           TRUE
    X_Alpha      =   2.000000E-01
    X_Omega      =   0.000000E+00
    C_LRC        =          FALSE
    C_Hybrid     =          FALSE
    C_Alpha      =   0.000000E+00
    C_Omega      =   0.000000E+00

   => Exchange Functionals <=

    0.8000    B3_X
    0.2000      HF 

   => Correlation Functionals <=

    0.1900 VWN3RPA_C
    0.8100   LYP_C

   => Molecular Quadrature <=

    Radial Scheme    =       TREUTLER
    Pruning Scheme   =           FLAT
    Nuclear Scheme   =       TREUTLER

    BS radius alpha  =              1
    Pruning alpha    =              1
    Radial Points    =             75
    Spherical Points =            302
    Total Points     =          65565
    Total Blocks     =             67
    Max Points       =           4953
    Max Functions    =             19

  **PSI4:PCMSOLVER Interface Active**


 * PCMSolver, an API for the Polarizable Continuum Model electrostatic problem. Version 1.1.10
   Main authors: R. Di Remigio, L. Frediani, K. Mozgawa
    With contributions from:
     R. Bast            (CMake framework)
     U. Ekstroem        (automatic differentiation library)
     J. Juselius        (input parsing library and CMake framework)
   Theory: - J. Tomasi, B. Mennucci and R. Cammi:
            "Quantum Mechanical Continuum Solvation Models", Chem. Rev., 105 (2005) 2999
   PCMSolver is distributed under the terms of the GNU Lesser General Public License.

 * Git last commit hash   : 5a5f9c3
 * Git last commit date   : Mon Mar 27 11:18:34 2017 +0200
 * Git last commit author : Roberto Di Remigio


~~~~~~~~~~ PCMSolver ~~~~~~~~~~
Using CODATA 2010 set of constants.
Input parsing done API-side
========== Cavity 
Atomic radii set: 
Cavity type: GePol
Average tesserae area = 0.3 Ang^2
Solvent probe radius = 1.385 Ang
Number of spheres = 3 [initial = 3; added = 0]
Number of finite elements = 184
Number of irreducible finite elements = 184
============ Spheres list (in Angstrom)
 Sphere   on   Radius   Alpha       X            Y            Z     
-------- ---- -------- ------- -----------  -----------  -----------
   1      O    1.7500   1.00     0.000000     0.000000    -0.064485  
   2      H    1.4430   1.00     0.000000    -0.765912     0.511712  
   3      H    1.4430   1.00     0.000000     0.765912     0.511712  
========== Static solver 
Solver Type: C-PCM
PCM matrix hermitivitized
Correction = 0
============ Medium 
Medium initialized from solvent built-in data.
Solvent name:          Water
Static  permittivity = 78.39
Optical permittivity = 1.776
Solvent radius =       1.385 Ang
.... Inside 
Green's function type: vacuum
.... Outside 
Green's function type: uniform dielectric
Permittivity = 78.39

  There are 184 tesserae, 184 of which irreducible.

  ==> Pre-Iterations <==

   -------------------------------------------------------
    Irrep   Nso     Nmo     Nalpha   Nbeta   Ndocc  Nsocc
   -------------------------------------------------------
     A         19      19       0       0       0       0
   -------------------------------------------------------
    Total      19      19       5       5       5       0
   -------------------------------------------------------

  Perturbing V by 0.002000 mu(z).
  ==> Integral Setup <==

  Using in-core PK algorithm.
   Calculation information:
      Number of atoms:                   3
      Number of AO shells:              10
      Number of primitives:             23
      Number of atomic orbitals:        19
      Number of basis functions:        19

      Integral cutoff                 1.00e-12
      Number of threads:                 1

  Performing in-core PK
  Using 36290 doubles for integral storage.
  We computed 1540 shell quartets total.
  Whereas there are 1540 unique shell quartets.
  ==> DiskJK: Disk-Based J/K Matrices <==

    J tasked:                  Yes
    K tasked:                  Yes
    wK tasked:                  No
    Memory (MB):               375
    Schwarz Cutoff:          1E-12

    OpenMP threads:              1
  Minimum eigenvalue in the overlap matrix is 2.2344839529E-02.
  Using Symmetric Orthogonalization.

  SCF Guess: Superposition of Atomic Densities via on-the-fly atomic UHF.

  ==> Iterations <==

                        Total Energy        Delta E     RMS |[F,P]|

   PCM polarization energy = -0.00076902191869
   @RKS iter   0:   -76.41317707393300   -7.64132e+01   8.34654e-02 
   PCM polarization energy = -0.01646681528059
   @RKS iter   1:   -76.35494009113070    5.82370e-02   2.18058e-02 
   PCM polarization energy = -0.00498687760034
   @RKS iter   2:   -76.30437040516254    5.05697e-02   2.97012e-02 DIIS
   PCM polarization energy = -0.01039913999525
   @RKS iter   3:   -76.41650856383869   -1.12138e-01   4.91750e-04 DIIS
   PCM polarization energy = -0.01049506383931
   @RKS iter   4:   -76.41654234919041   -3.37854e-05   8.24643e-05 DIIS
   PCM polarization energy = -0.01047942156810
   @RKS iter   5:   -76.41654335420310   -1.00501e-06   7.30852e-06 DIIS
   PCM polarization energy = -0.01048122942412
   @RKS iter   6:   -76.41654336417918   -9.97608e-09   8.65243e-07 DIIS
   PCM polarization energy = -0.01048128744291
   @RKS iter   7:   -76.41654336431768   -1.38499e-10   2.09786e-07 DIIS
[...]

    Points   =           5000
    Deriv    =              1
    GGA      =           TRUE
    Meta     =          FALSE

    X_LRC        =          FALSE
    X_Hybrid     =           TRUE
    X_Alpha      =   2.000000E-01
    X_Omega      =   0.000000E+00
    C_LRC        =          FALSE
    C_Hybrid     =          FALSE
    C_Alpha      =   0.000000E+00
    C_Omega      =   0.000000E+00

   => Exchange Functionals <=

    0.8000    B3_X
    0.2000      HF 

   => Correlation Functionals <=

    0.1900 VWN3RPA_C
    0.8100   LYP_C

   => Molecular Quadrature <=

    Radial Scheme    =       TREUTLER
    Pruning Scheme   =           FLAT
    Nuclear Scheme   =       TREUTLER

    BS radius alpha  =              1
    Pruning alpha    =              1
    Radial Points    =             75
    Spherical Points =            302
    Total Points     =          65565
    Total Blocks     =             67
    Max Points       =           4953
    Max Functions    =             19

  **PSI4:PCMSOLVER Interface Active**


 * PCMSolver, an API for the Polarizable Continuum Model electrostatic problem. Version 1.1.10
   Main authors: R. Di Remigio, L. Frediani, K. Mozgawa
    With contributions from:
     R. Bast            (CMake framework)
     U. Ekstroem        (automatic differentiation library)
     J. Juselius        (input parsing library and CMake framework)
   Theory: - J. Tomasi, B. Mennucci and R. Cammi:
            "Quantum Mechanical Continuum Solvation Models", Chem. Rev., 105 (2005) 2999
   PCMSolver is distributed under the terms of the GNU Lesser General Public License.

 * Git last commit hash   : 5a5f9c3
 * Git last commit date   : Mon Mar 27 11:18:34 2017 +0200
 * Git last commit author : Roberto Di Remigio


~~~~~~~~~~ PCMSolver ~~~~~~~~~~
Using CODATA 2010 set of constants.
Input parsing done API-side
========== Cavity 
Atomic radii set: 
Cavity type: GePol
Average tesserae area = 0.3 Ang^2
Solvent probe radius = 1.385 Ang
Number of spheres = 3 [initial = 3; added = 0]
Number of finite elements = 184
Number of irreducible finite elements = 184
============ Spheres list (in Angstrom)
 Sphere   on   Radius   Alpha       X            Y            Z     
-------- ---- -------- ------- -----------  -----------  -----------
   1      O    1.7500   1.00     0.000000     0.000000    -0.064485  
   2      H    1.4430   1.00     0.000000    -0.765912     0.511712  
   3      H    1.4430   1.00     0.000000     0.765912     0.511712  
========== Static solver 
Solver Type: C-PCM
PCM matrix hermitivitized
Correction = 0
============ Medium 
Medium initialized from solvent built-in data.
Solvent name:          Water
Static  permittivity = 78.39
Optical permittivity = 1.776
Solvent radius =       1.385 Ang
.... Inside 
Green's function type: vacuum
.... Outside 
Green's function type: uniform dielectric
Permittivity = 78.39

  There are 184 tesserae, 184 of which irreducible.

  ==> Pre-Iterations <==

   -------------------------------------------------------
    Irrep   Nso     Nmo     Nalpha   Nbeta   Ndocc  Nsocc
   -------------------------------------------------------
     A         19      19       0       0       0       0
   -------------------------------------------------------
    Total      19      19       5       5       5       0
   -------------------------------------------------------

  Perturbing V by -0.002000 mu(z).
  ==> Integral Setup <==

  Using in-core PK algorithm.
   Calculation information:
      Number of atoms:                   3
      Number of AO shells:              10
      Number of primitives:             23
      Number of atomic orbitals:        19
      Number of basis functions:        19

      Integral cutoff                 1.00e-12
      Number of threads:                 1

  Performing in-core PK
  Using 36290 doubles for integral storage.
  We computed 1540 shell quartets total.
  Whereas there are 1540 unique shell quartets.
  ==> DiskJK: Disk-Based J/K Matrices <==

    J tasked:                  Yes
    K tasked:                  Yes
    wK tasked:                  No
    Memory (MB):               375
    Schwarz Cutoff:          1E-12

    OpenMP threads:              1
  Minimum eigenvalue in the overlap matrix is 2.2344839529E-02.
  Using Symmetric Orthogonalization.

  SCF Guess: Superposition of Atomic Densities via on-the-fly atomic UHF.

  ==> Iterations <==

                        Total Energy        Delta E     RMS |[F,P]|

   PCM polarization energy = -0.00076902191869
   @RKS iter   0:   -76.41317707393303   -7.64132e+01   8.34820e-02 
   PCM polarization energy = -0.01697372166269
   @RKS iter   1:   -76.35757253193427    5.56045e-02   2.19954e-02 
   PCM polarization energy = -0.00533776922357
   @RKS iter   2:   -76.30686677326594    5.07058e-02   2.98714e-02 DIIS
   PCM polarization energy = -0.01082697641549
   @RKS iter   3:   -76.42013843230382   -1.13272e-01   5.03007e-04 DIIS
   PCM polarization energy = -0.01092937193480
   @RKS iter   4:   -76.42017359796792   -3.51657e-05   8.24514e-05 DIIS
   PCM polarization energy = -0.01091325923811
   @RKS iter   5:   -76.42017460025795   -1.00229e-06   7.25274e-06 DIIS
   PCM polarization energy = -0.01091507696040
   @RKS iter   6:   -76.42017460997707   -9.71912e-09   8.38874e-07 DIIS
   PCM polarization energy = -0.01091513214333
   @RKS iter   7:   -76.42017461010676   -1.29688e-10   2.03204e-07 DIIS
   PCM polarization energy = -0.01091511550699
   @RKS iter   8:   -76.42017461011362   -6.86384e-12   1.32287e-08 DIIS

  ==> Post-Iterations <==

    Orbital Energies (a.u.)
    -----------------------

    Doubly Occupied:                                                      

       1A    -19.135700     2A     -0.999125     3A     -0.522750  
       4A     -0.374975     5A     -0.296913  

    Virtual:                                                              

       6A      0.084771     7A      0.172474     8A      0.788554  
       9A      0.859862    10A      0.882002    11A      0.888587  
      12A      1.068380    13A      1.192931    14A      1.727286  
      15A      1.736337    16A      1.773485    17A      2.292284  
      18A      2.594867    19A      3.556143  

    Final Occupation by Irrep:
              A 
    DOCC [     5 ]

  Energy converged.

  @RKS Final Energy:   -76.42017461011362 with 0.000000 0.000000 -0.002000 perturbation

   => Energetics <=

    Nuclear Repulsion Energy =              9.1774290516808268
    One-Electron Energy =                -123.1731099956853228
    Two-Electron Energy =                  45.1526160266311791
    DFT Exchange-Correlation Energy =      -7.5661945772333121
    Empirical Dispersion Energy =           0.0000000000000000
    PCM Polarization Energy =              -0.0109151155069859
    EFP Energy =                            0.0000000000000000
    Total Energy =                        -76.4201746101136195

    Alert: EFP and PCM quantities not currently incorporated into SCF psivars.

Properties will be evaluated at   0.000000,   0.000000,   0.000000 Bohr

Properties computed using the SCF density matrix

  Nuclear Dipole Moment: (a.u.)
     X:     0.0000      Y:     0.0000      Z:     0.9591

  Electronic Dipole Moment: (a.u.)
     X:    -0.0000      Y:    -0.0000      Z:    -0.0403

  Dipole Moment: (a.u.)
     X:    -0.0000      Y:    -0.0000      Z:     0.9188     Total:     0.9188

  Dipole Moment: (Debye)
     X:    -0.0000      Y:    -0.0000      Z:     2.3354     Total:     2.3354


*** tstop() called on psinet at Mon May 15 15:41:29 2017
Module time:
	user time   =       3.00 seconds =       0.05 minutes
	system time =       0.04 seconds =       0.00 minutes
	total time  =          4 seconds =       0.07 minutes
Total time:
	user time   =      17.08 seconds =       0.28 minutes
	system time =       0.32 seconds =       0.01 minutes
	total time  =         19 seconds =       0.32 minutes
Perturbation strength =  0.0010, B3LYP computed energy =   -76.4174428941
	Energy for displacement 0.........................................PASSED
Perturbation strength = -0.0010, B3LYP computed energy =   -76.4192585316
	Energy for displacement 1.........................................PASSED
Perturbation strength =  0.0020, B3LYP computed energy =   -76.4165433643
	Energy for displacement 2.........................................PASSED
Perturbation strength = -0.0020, B3LYP computed energy =   -76.4201746101
	Energy for displacement 3.........................................PASSED
Total dipoles
B3LYP 3-point stencil: mu(z) = 0.9078187053 ea0, 2.3074447717 Debye
B3LYP 5-point stencil: mu(z) = 0.9078211246 ea0, 2.3074509211 Debye

*** tstart() called on psinet
*** at Mon May 15 15:41:29 2017

   => Loading Basis Set <=

    Name: 6-31G*
    Role: ORBITAL
    Keyword: BASIS
    atoms 1   entry O          line   136 file /home/psilocaluser/gits/hrw-direct/objdir4/stage/usr/local/psi4/share/psi4/basis/6-31gs.gbs 
    atoms 2-3 entry H          line    35 file /home/psilocaluser/gits/hrw-direct/objdir4/stage/usr/local/psi4/share/psi4/basis/6-31gs.gbs 


         ---------------------------------------------------------
                                   SCF
            by Justin Turney, Rob Parrish, and Andy Simmonett
                              RKS Reference
                        1 Threads,    500 MiB Core
         ---------------------------------------------------------

  ==> Geometry <==

    Molecular point group: c1
    Full point group: C2v

    Geometry (in Angstrom), charge = 0, multiplicity = 1:

       Center              X                  Y                   Z               Mass       
    ------------   -----------------  -----------------  -----------------  -----------------
           O          0.000000000000     0.000000000000    -0.064484982919    15.994914619560
           H          0.000000000000    -0.765912483269     0.511711737260     1.007825032070
           H          0.000000000000     0.765912483269     0.511711737260     1.007825032070

  Running in c1 symmetry.

  Rotational constants: A =     28.36516  B =     14.25683  C =      9.48800 [cm^-1]
  Rotational constants: A = 850366.02211  B = 427409.09891  C = 284442.98944 [MHz]
  Nuclear repulsion =    9.179347288532043

  Charge       = 0
  Multiplicity = 1
  Electrons    = 10
  Nalpha       = 5
  Nbeta        = 5

  ==> Algorithm <==

  SCF Algorithm Type is PK.
  DIIS enabled.
  MOM disabled.
  Fractional occupation disabled.
  Guess Type is SAD.
  Energy threshold   = 1.00e-10
  Density threshold  = 1.00e-06
  Integral threshold = 0.00e+00

  ==> Primary Basis <==

  Basis Set: 6-31G*
    Blend: 6-31G*
    Number of shells: 10
    Number of basis function: 19
    Number of Cartesian functions: 19
    Spherical Harmonics?: false
    Max angular momentum: 2

  ==> DFT Potential <==

   => B3LYP Composite Functional <= 

    B3LYP Hybrid-GGA Exchange-Correlation Functional (VWN1-RPA)

    P.J. Stephens et. al., J. Phys. Chem., 98, 11623-11627, 1994

    Points   =           5000
    Deriv    =              1
    GGA      =           TRUE
    Meta     =          FALSE

    X_LRC        =          FALSE
    X_Hybrid     =           TRUE
    X_Alpha      =   2.000000E-01
    X_Omega      =   0.000000E+00
    C_LRC        =          FALSE
    C_Hybrid     =          FALSE
    C_Alpha      =   0.000000E+00
    C_Omega      =   0.000000E+00

   => Exchange Functionals <=

    0.8000    B3_X
    0.2000      HF 

   => Correlation Functionals <=

    0.1900 VWN3RPA_C
    0.8100   LYP_C

   => Molecular Quadrature <=

    Radial Scheme    =       TREUTLER
    Pruning Scheme   =           FLAT
    Nuclear Scheme   =       TREUTLER

    BS radius alpha  =              1
    Pruning alpha    =              1
    Radial Points    =             75
    Spherical Points =            302
    Total Points     =          65565
    Total Blocks     =             67
    Max Points       =           4953
    Max Functions    =             19

  **PSI4:PCMSOLVER Interface Active**


 * PCMSolver, an API for the Polarizable Continuum Model electrostatic problem. Version 1.1.10
   Main authors: R. Di Remigio, L. Frediani, K. Mozgawa
    With contributions from:
     R. Bast            (CMake framework)
     U. Ekstroem        (automatic differentiation library)
     J. Juselius        (input parsing library and CMake framework)
   Theory: - J. Tomasi, B. Mennucci and R. Cammi:
            "Quantum Mechanical Continuum Solvation Models", Chem. Rev., 105 (2005) 2999
   PCMSolver is distributed under the terms of the GNU Lesser General Public License.

 * Git last commit hash   : 5a5f9c3
 * Git last commit date   : Mon Mar 27 11:18:34 2017 +0200
 * Git last commit author : Roberto Di Remigio


~~~~~~~~~~ PCMSolver ~~~~~~~~~~
Using CODATA 2010 set of constants.
Input parsing done API-side
========== Cavity 
Atomic radii set: 
Cavity type: GePol
Average tesserae area = 0.3 Ang^2
Solvent probe radius = 1.385 Ang
Number of spheres = 3 [initial = 3; added = 0]
Number of finite elements = 184
Number of irreducible finite elements = 184
============ Spheres list (in Angstrom)
 Sphere   on   Radius   Alpha       X            Y            Z     
-------- ---- -------- ------- -----------  -----------  -----------
   1      O    1.7500   1.00     0.000000     0.000000    -0.064485  
   2      H    1.4430   1.00     0.000000    -0.765912     0.511712  
   3      H    1.4430   1.00     0.000000     0.765912     0.511712  
========== Static solver 
Solver Type: C-PCM
PCM matrix hermitivitized
Correction = 0
============ Medium 
Medium initialized from solvent built-in data.
Solvent name:          Water
Static  permittivity = 78.39
Optical permittivity = 1.776
Solvent radius =       1.385 Ang
.... Inside 
Green's function type: vacuum
.... Outside 
Green's function type: uniform dielectric
Permittivity = 78.39

  There are 184 tesserae, 184 of which irreducible.

  ==> Pre-Iterations <==

   -------------------------------------------------------
    Irrep   Nso     Nmo     Nalpha   Nbeta   Ndocc  Nsocc
   -------------------------------------------------------
     A         19      19       0       0       0       0
   -------------------------------------------------------
    Total      19      19       5       5       5       0
   -------------------------------------------------------

  ==> Integral Setup <==

  Using in-core PK algorithm.
   Calculation information:
      Number of atoms:                   3
      Number of AO shells:              10
      Number of primitives:             23
      Number of atomic orbitals:        19
      Number of basis functions:        19

      Integral cutoff                 1.00e-12
      Number of threads:                 1

  Performing in-core PK
  Using 36290 doubles for integral storage.
  We computed 1540 shell quartets total.
  Whereas there are 1540 unique shell quartets.
  ==> DiskJK: Disk-Based J/K Matrices <==

    J tasked:                  Yes
    K tasked:                  Yes
    wK tasked:                  No
    Memory (MB):               375
    Schwarz Cutoff:          1E-12

    OpenMP threads:              1
  Minimum eigenvalue in the overlap matrix is 2.2344839529E-02.
  Using Symmetric Orthogonalization.

  SCF Guess: Superposition of Atomic Densities via on-the-fly atomic UHF.

  ==> Iterations <==

                        Total Energy        Delta E     RMS |[F,P]|

   PCM polarization energy = -0.00076902191869
   @RKS iter   0:   -76.41317707393303   -7.64132e+01   8.34735e-02 
   PCM polarization energy = -0.01671986566234
   @RKS iter   1:   -76.35624371544550    5.69334e-02   2.19012e-02 
   PCM polarization energy = -0.00516096649648
   @RKS iter   2:   -76.30560540857995    5.06383e-02   2.97867e-02 DIIS
   PCM polarization energy = -0.01061240545676
   @RKS iter   3:   -76.41831246791013   -1.12707e-01   4.97393e-04 DIIS
   PCM polarization energy = -0.01071155549817
   @RKS iter   4:   -76.41834694106088   -3.44732e-05   8.24593e-05 DIIS
   PCM polarization energy = -0.01069567732705
   @RKS iter   5:   -76.41834794476070   -1.00370e-06   7.27988e-06 DIIS
   PCM polarization energy = -0.01069749024831
   @RKS iter   6:   -76.41834795460589   -9.84519e-09   8.51998e-07 DIIS
   PCM polarization energy = -0.01069754684183
   @RKS iter   7:   -76.41834795473990   -1.34008e-10   2.06468e-07 DIIS
   PCM polarization energy = -0.01069752988779
   @RKS iter   8:   -76.41834795474688   -6.97753e-12   1.35453e-08 DIIS

  ==> Post-Iterations <==

    Orbital Energies (a.u.)
    -----------------------

    Doubly Occupied:                                                      

       1A    -19.136356     2A     -0.999961     3A     -0.523541  
       4A     -0.374968     5A     -0.297258  

    Virtual:                                                              

       6A      0.082231     7A      0.169998     8A      0.787963  
       9A      0.860477    10A      0.881842    11A      0.887538  
      12A      1.068028    13A      1.191199    14A      1.727249  
      15A      1.736169    16A      1.773357    17A      2.291778  
      18A      2.594561    19A      3.555868  

    Final Occupation by Irrep:
              A 
    DOCC [     5 ]

  Energy converged.

  @RKS Final Energy:   -76.41834795474688

   => Energetics <=

    Nuclear Repulsion Energy =              9.1793472885320426
    One-Electron Energy =                -123.1675216955935355
    Two-Electron Energy =                  45.1464416835795532
    DFT Exchange-Correlation Energy =      -7.5659177013771481
    Empirical Dispersion Energy =           0.0000000000000000
    PCM Polarization Energy =              -0.0106975298877895
    EFP Energy =                            0.0000000000000000
    Total Energy =                        -76.4183479547468778

    Alert: EFP and PCM quantities not currently incorporated into SCF psivars.

Properties will be evaluated at   0.000000,   0.000000,   0.000000 Bohr

Properties computed using the SCF density matrix

  Nuclear Dipole Moment: (a.u.)
     X:     0.0000      Y:     0.0000      Z:     0.9591

  Electronic Dipole Moment: (a.u.)
     X:    -0.0000      Y:    -0.0000      Z:    -0.0513

  Dipole Moment: (a.u.)
     X:    -0.0000      Y:    -0.0000      Z:     0.9078     Total:     0.9078

  Dipole Moment: (Debye)
     X:    -0.0000      Y:    -0.0000      Z:     2.3075     Total:     2.3075


*** tstop() called on psinet at Mon May 15 15:41:32 2017
Module time:
	user time   =       3.00 seconds =       0.05 minutes
	system time =       0.03 seconds =       0.00 minutes
	total time  =          3 seconds =       0.05 minutes
Total time:
	user time   =      20.10 seconds =       0.34 minutes
	system time =       0.35 seconds =       0.01 minutes
	total time  =         22 seconds =       0.37 minutes


Properties will be evaluated at   0.000000,   0.000000,   0.000000 Bohr

Properties computed using the  density matrix


 Multipole Moments:

 ------------------------------------------------------------------------------------
     Multipole             Electric (a.u.)       Nuclear  (a.u.)        Total (a.u.)
 ------------------------------------------------------------------------------------

 L = 1.  Multiply by 2.5417462300 to convert to Debye
 Dipole X            :         -0.0000000            0.0000000           -0.0000000
 Dipole Y            :         -0.0000000            0.0000000           -0.0000000
 Dipole Z            :         -0.0512973            0.9591184            0.9078211

 --------------------------------------------------------------------------------
	Z dipole moment, using 3-point stencil B3LYP......................PASSED
	Z dipole moment, using 5-point stencil B3LYP......................PASSED
	Z dipole moment, analytic result B3LYP............................PASSED

*** Psi4 exiting successfully. Buy a developer a beer!
