    -----------------------------------------------------------------------
          PSI4: An Open-Source Ab Initio Electronic Structure Package
                              PSI 4.0.0-beta3+ Driver

               Git: Rev {master} 898e03075b94adbcb4fd604576655d20218992b6

    J. M. Turney, A. C. Simmonett, R. M. Parrish, E. G. Hohenstein,
    F. A. Evangelista, J. T. Fermann, B. J. Mintz, L. A. Burns, J. J. Wilke,
    M. L. Abrams, N. J. Russ, M. L. Leininger, C. L. Janssen, E. T. Seidl,
    W. D. Allen, H. F. Schaefer, R. A. King, E. F. Valeev, C. D. Sherrill,
    and T. D. Crawford, WIREs Comput. Mol. Sci., (2011) (doi: 10.1002/wcms.93)

                         Additional Contributions by
    A. E. DePrince, M. Saitow, U. Bozkaya, A. Yu. Sokolov
    -----------------------------------------------------------------------

    Process ID:  39715
    PSI4DATADIR: /Users/loriab/linux/psihub/master/psi4/objdir/../lib

    Using LocalCommunicator (Number of processes = 1)

    Memory level set to 256.000 MB

  ==> Input File <==

--------------------------------------------------------------------------
#! Advanced python example sets different sets of scf/post-scf conv crit
#! and check to be sure computation has actually converged to the expected
#! accuracy.

molecule h2o {
O 0.0 0.0 0.0
H 1.0 0.0 0.0
H 0.0 1.0 0.0
}

set basis 6-31g
set d_convergence 3  #TEST
set r_convergence 3  #TEST

e_dfscf = -75.96968520716484  #TEST
e_pkscf = -75.96970096208790  #TEST
#e_cisd  = -76.1047781401318  #TEST
e_cisd = -0.13507718  #TEST

# first three are e_conv: global, scf module, detci module
# next three are expected accuracy: scf sp, scf under post-scf, post-scf sp

convmat = [
    [0, 0, 0,  6, 8, 6],
    [4, 0, 0,  4, 4, 4],
    [0, 4, 0,  4, 4, 6],
    [4, 5, 0,  5, 5, 4],
    [0, 0, 4,  6, 8, 4],
    [4, 0, 5,  4, 4, 5],
    [0, 4, 5,  4, 4, 5],
    ]

for convcrit in convmat:
    if convcrit[0] != 0:
        set_global_option('E_CONVERGENCE', convcrit[0])
    if convcrit[1] != 0:
        set_local_option('SCF', 'E_CONVERGENCE', convcrit[1])
    if convcrit[2] != 0:
        set_local_option('DETCI', 'E_CONVERGENCE', convcrit[2])
    
    print('')  #TEST
    energy('scf')
    compare_values(e_dfscf, get_variable('CURRENT ENERGY'), convcrit[3], '  scf sp %d %d %d to %d %d %d' % (convcrit[0], convcrit[1], convcrit[2], convcrit[3], convcrit[4], convcrit[5]))  #TEST
    clean()

    energy('cisd')
    compare_values(e_pkscf, get_variable('CURRENT REFERENCE ENERGY'), convcrit[4], 'cisd scf %d %d %d to %d %d %d' % (convcrit[0], convcrit[1], convcrit[2], convcrit[3], convcrit[4], convcrit[5]))  #TEST
    clean()
    compare_values(e_cisd, get_variable('CURRENT CORRELATION ENERGY'), convcrit[5], ' cisd sp %d %d %d to %d %d %d' % (convcrit[0], convcrit[1], convcrit[2], convcrit[3], convcrit[4], convcrit[5]))  #TEST
    
    revoke_global_option_changed('E_CONVERGENCE')
    revoke_local_option_changed('SCF', 'E_CONVERGENCE')
    revoke_local_option_changed('DETCI', 'E_CONVERGENCE')

--------------------------------------------------------------------------

  No DF_BASIS_SCF auxiliary basis selected, defaulting to cc-pvdz-jkfit


*** tstart() called on Macintosh-132.local
*** at Wed Apr  3 03:47:14 2013

	There are an even number of electrons - assuming singlet.
	Specify the multiplicity with the MULTP option in the
	input if this is incorrect


         ---------------------------------------------------------
                                   SCF
            by Justin Turney, Rob Parrish, and Andy Simmonett
                              RHF Reference
                        1 Threads,    256 MiB Core
         ---------------------------------------------------------

  ==> Geometry <==

    Molecular point group: c2v
    Full point group: C2v

    Geometry (in Angstrom), charge = 0, multiplicity = 1:

       Center              X                  Y                   Z       
    ------------   -----------------  -----------------  -----------------
           O          0.000000000000     0.000000000000    -0.079135765807
           H          0.707106781187     0.000000000000     0.627971015380
           H         -0.707106781187    -0.000000000000     0.627971015380

  Running in c2v symmetry.

  Nuclear repulsion =    8.841020130083358

  Charge       = 0
  Multiplicity = 1
  Electrons    = 10
  Nalpha       = 5
  Nbeta        = 5

  ==> Algorithm <==

  SCF Algorithm Type is DF.
  DIIS enabled.
  MOM disabled.
  Fractional occupation disabled.
  Guess Type is CORE.
  Energy threshold   = 1.00e-06
  Density threshold  = 1.00e-03
  Integral threshold = 0.00e+00

  ==> Primary Basis <==

  Basis Set: 6-31G
    Number of shells: 9
    Number of basis function: 13
    Number of Cartesian functions: 13
    Spherical Harmonics?: false
    Max angular momentum: 1

  ==> Pre-Iterations <==

   -------------------------------------------------------
    Irrep   Nso     Nmo     Nalpha   Nbeta   Ndocc  Nsocc
   -------------------------------------------------------
     A1         7       7       0       0       0       0
     A2         0       0       0       0       0       0
     B1         4       4       0       0       0       0
     B2         2       2       0       0       0       0
   -------------------------------------------------------
    Total      13      13       5       5       5       0
   -------------------------------------------------------

  ==> Integral Setup <==

 OEINTS: Wrapper to libmints.
   by Justin Turney

   Calculation information:
      Number of atoms:                   3
      Number of AO shells:               9
      Number of SO shells:               7
      Number of primitives:             22
      Number of atomic orbitals:        13
      Number of basis functions:        13

      Number of irreps:                  4
      Number of functions per irrep: [   7    0    4    2 ]

      Overlap, kinetic, potential, dipole, and quadrupole integrals
        stored in file 35.

  ==> DFJK: Density-Fitted J/K Matrices <==

    J tasked:                  Yes
    K tasked:                  Yes
    wK tasked:                  No
    OpenMP threads:              1
    Integrals threads:           1
    Memory (MB):               183
    Algorithm:                Core
    Integral Cache:           NONE
    Schwarz Cutoff:          0E+00
    Fitting Condition:       1E-12

   => Auxiliary Basis Set <=

  Basis Set: cc-pvdz-jkfit
    Number of shells: 42
    Number of basis function: 131
    Number of Cartesian functions: 131
    Spherical Harmonics?: false
    Max angular momentum: 3

  Minimum eigenvalue in the overlap matrix is 7.0941751674E-02.
  Using Symmetric Orthogonalization.
  SCF Guess: Core (One-Electron) Hamiltonian.

  Guess energy:   -58.45690657034417

  ==> Iterations <==

                        Total Energy        Delta E     RMS |[F,P]|

	Occupation by irrep:
	         A1    A2    B1    B2 
	DOCC [     4,    0,    1,    0 ]

   @RHF iter   1:   -69.52372742218395   -6.95237e+01   3.07064e-01 
	Occupation by irrep:
	         A1    A2    B1    B2 
	DOCC [     3,    0,    1,    1 ]

   @RHF iter   2:   -71.85507755235210   -2.33135e+00   2.74239e-01 DIIS
   @RHF iter   3:   -75.92561080422638   -4.07053e+00   3.84602e-02 DIIS
   @RHF iter   4:   -75.96606425332521   -4.04534e-02   9.65344e-03 DIIS
   @RHF iter   5:   -75.96949036274830   -3.42611e-03   1.29449e-03 DIIS
   @RHF iter   6:   -75.96966156920831   -1.71206e-04   6.58030e-04 DIIS
   @RHF iter   7:   -75.96968438992269   -2.28207e-05   1.06835e-04 DIIS
   @RHF iter   8:   -75.96968516255035   -7.72628e-07   3.96830e-05 DIIS

  ==> Post-Iterations <==

	Orbital Energies (a.u.)
	-----------------------

	Doubly Occupied:                                                      

	   1A1   -20.579260     2A1    -1.350640     1B1    -0.661229  
	   3A1    -0.582613     1B2    -0.506547  

	Virtual:                                                              

	   4A1     0.188770     2B1     0.283098     3B1     0.982665  
	   2B2     1.158815     5A1     1.162455     6A1     1.248297  
	   4B1     1.353333     7A1     1.745025  

	Final Occupation by Irrep:
	         A1    A2    B1    B2 
	DOCC [     3,    0,    1,    1 ]

  Energy converged.

  @RHF Final Energy:   -75.96968516255035

   => Energetics <=

    Nuclear Repulsion Energy =              8.8410201300833577
    One-Electron Energy =                -122.2621650658338552
    Two-Electron Energy =                  37.4514597732001562
    DFT Exchange-Correlation Energy =       0.0000000000000000
    Empirical Dispersion Energy =           0.0000000000000000
    Total Energy =                        -75.9696851625503484



Properties will be evaluated at   0.000000,   0.000000,   0.000000 Bohr
  ==> Properties <==


Properties computed using the SCF density density matrix
  Nuclear Dipole Moment: (a.u.)
     X:     0.0000      Y:     0.0000      Z:     1.1770

  Electronic Dipole Moment: (a.u.)
     X:     0.0000      Y:     0.0000      Z:    -0.0494

  Dipole Moment: (a.u.)
     X:     0.0000      Y:     0.0000      Z:     1.1276     Total:     1.1276

  Dipole Moment: (Debye)
     X:     0.0000      Y:     0.0000      Z:     2.8662     Total:     2.8662


  Saving occupied orbitals to File 180.

*** tstop() called on Macintosh-132.local at Wed Apr  3 03:47:14 2013
Module time:
	user time   =       0.22 seconds =       0.00 minutes
	system time =       0.01 seconds =       0.00 minutes
	total time  =          0 seconds =       0.00 minutes
Total time:
	user time   =       0.22 seconds =       0.00 minutes
	system time =       0.01 seconds =       0.00 minutes
	total time  =          0 seconds =       0.00 minutes

*** tstart() called on Macintosh-132.local
*** at Wed Apr  3 03:47:15 2013

	There are an even number of electrons - assuming singlet.
	Specify the multiplicity with the MULTP option in the
	input if this is incorrect


         ---------------------------------------------------------
                                   SCF
            by Justin Turney, Rob Parrish, and Andy Simmonett
                              RHF Reference
                        1 Threads,    256 MiB Core
         ---------------------------------------------------------

  ==> Geometry <==

    Molecular point group: c2v
    Full point group: C2v

    Geometry (in Angstrom), charge = 0, multiplicity = 1:

       Center              X                  Y                   Z       
    ------------   -----------------  -----------------  -----------------
           O          0.000000000000     0.000000000000    -0.079135765807
           H          0.707106781187     0.000000000000     0.627971015380
           H         -0.707106781187    -0.000000000000     0.627971015380

  Running in c2v symmetry.

  Nuclear repulsion =    8.841020130083358

  Charge       = 0
  Multiplicity = 1
  Electrons    = 10
  Nalpha       = 5
  Nbeta        = 5

  ==> Algorithm <==

  SCF Algorithm Type is PK.
  DIIS enabled.
  MOM disabled.
  Fractional occupation disabled.
  Guess Type is CORE.
  Energy threshold   = 1.00e-08
  Density threshold  = 1.00e-03
  Integral threshold = 0.00e+00

  ==> Primary Basis <==

  Basis Set: 6-31G
    Number of shells: 9
    Number of basis function: 13
    Number of Cartesian functions: 13
    Spherical Harmonics?: false
    Max angular momentum: 1

  ==> Pre-Iterations <==

   -------------------------------------------------------
    Irrep   Nso     Nmo     Nalpha   Nbeta   Ndocc  Nsocc
   -------------------------------------------------------
     A1         7       7       0       0       0       0
     A2         0       0       0       0       0       0
     B1         4       4       0       0       0       0
     B2         2       2       0       0       0       0
   -------------------------------------------------------
    Total      13      13       5       5       5       0
   -------------------------------------------------------

  ==> Integral Setup <==

 MINTS: Wrapper to libmints.
   by Justin Turney

   Calculation information:
      Number of atoms:                   3
      Number of AO shells:               9
      Number of SO shells:               7
      Number of primitives:             22
      Number of atomic orbitals:        13
      Number of basis functions:        13

      Number of irreps:                  4
      Number of functions per irrep: [   7    0    4    2 ]

      Overlap, kinetic, potential, dipole, and quadrupole integrals
        stored in file 35.

      Computing two-electron integrals...done
      Computed 1270 non-zero two-electron integrals.
        Stored in file 33.

	Batch   1 pq = [       0,      41] index = [             0,861]
  ==> DiskJK: Disk-Based J/K Matrices <==

    J tasked:                  Yes
    K tasked:                  Yes
    wK tasked:                  No
    Memory (MB):               183
    Schwarz Cutoff:          0E+00

  Minimum eigenvalue in the overlap matrix is 7.0941751674E-02.
  Using Symmetric Orthogonalization.
  SCF Guess: Core (One-Electron) Hamiltonian.

  Guess energy:   -58.45690657034417

  ==> Iterations <==

                        Total Energy        Delta E     RMS |[F,P]|

	Occupation by irrep:
	         A1    A2    B1    B2 
	DOCC [     4,    0,    1,    0 ]

   @RHF iter   1:   -69.52375765938314   -6.95238e+01   3.07057e-01 
	Occupation by irrep:
	         A1    A2    B1    B2 
	DOCC [     3,    0,    1,    1 ]

   @RHF iter   2:   -71.85517684951171   -2.33142e+00   2.74231e-01 DIIS
   @RHF iter   3:   -75.92563798139383   -4.07046e+00   3.84542e-02 DIIS
   @RHF iter   4:   -75.96607964266616   -4.04417e-02   9.65471e-03 DIIS
   @RHF iter   5:   -75.96950610497851   -3.42646e-03   1.29487e-03 DIIS
   @RHF iter   6:   -75.96967733260479   -1.71228e-04   6.57927e-04 DIIS
   @RHF iter   7:   -75.96970014467664   -2.28121e-05   1.06758e-04 DIIS
   @RHF iter   8:   -75.96970091748250   -7.72806e-07   3.96799e-05 DIIS
   @RHF iter   9:   -75.96970096184040   -4.43579e-08   2.17609e-06 DIIS
   @RHF iter  10:   -75.96970096206672   -2.26322e-10   8.43601e-07 DIIS

  ==> Post-Iterations <==

	Orbital Energies (a.u.)
	-----------------------

	Doubly Occupied:                                                      

	   1A1   -20.579244     2A1    -1.350632     1B1    -0.661226  
	   3A1    -0.582612     1B2    -0.506541  

	Virtual:                                                              

	   4A1     0.188772     2B1     0.283084     3B1     0.982596  
	   2B2     1.158788     5A1     1.162406     6A1     1.248237  
	   4B1     1.353242     7A1     1.744981  

	Final Occupation by Irrep:
	         A1    A2    B1    B2 
	DOCC [     3,    0,    1,    1 ]

  Energy converged.

  @RHF Final Energy:   -75.96970096206672

   => Energetics <=

    Nuclear Repulsion Energy =              8.8410201300833577
    One-Electron Energy =                -122.2609007914229835
    Two-Electron Energy =                  37.4501796992728941
    DFT Exchange-Correlation Energy =       0.0000000000000000
    Empirical Dispersion Energy =           0.0000000000000000
    Total Energy =                        -75.9697009620667245



Properties will be evaluated at   0.000000,   0.000000,   0.000000 Bohr
  ==> Properties <==


Properties computed using the SCF density density matrix
  Nuclear Dipole Moment: (a.u.)
     X:     0.0000      Y:     0.0000      Z:     1.1770

  Electronic Dipole Moment: (a.u.)
     X:     0.0000      Y:     0.0000      Z:    -0.0494

  Dipole Moment: (a.u.)
     X:     0.0000      Y:     0.0000      Z:     1.1276     Total:     1.1276

  Dipole Moment: (Debye)
     X:     0.0000      Y:     0.0000      Z:     2.8661     Total:     2.8661


  Saving occupied orbitals to File 180.

*** tstop() called on Macintosh-132.local at Wed Apr  3 03:47:15 2013
Module time:
	user time   =       0.11 seconds =       0.00 minutes
	system time =       0.01 seconds =       0.00 minutes
	total time  =          0 seconds =       0.00 minutes
Total time:
	user time   =       0.39 seconds =       0.01 minutes
	system time =       0.02 seconds =       0.00 minutes
	total time  =          1 seconds =       0.02 minutes

*** tstart() called on Macintosh-132.local
*** at Wed Apr  3 03:47:15 2013


	**************************************************
	* TRANSQT2: Program to transform integrals from  *
	*           the SO basis to the MO basis.        *
	*                                                *
	*            Daniel, David, & Justin             *
	**************************************************


	Input parameters:
	-----------------
	Wave function   =	DETCI
	Backtransform   =	No
	Print Level     =	1
	Print TEIs      =	No
	Reference wfn   =	RHF
	Derivative      =	None
	Delete TEI File =	Yes
	Memory (Mbytes) =	256.0
	Cache Level     =	2
	Cache Type      =	LRU
	Chkpt Parameters:
	--------------------
	Number of irreps     = 4
	Number of SOs        = 13
	Number of MOs        = 13
	Number of active MOs = 13

	Label	# SOs	# FZDC	# DOCC	# SOCC	# VIRT	# FZVR
	-----	-----	------	------	------	------	------
	 A1	   7	    0	    3	    0	    4	    0
	 A2	   0	    0	    0	    0	    0	    0
	 B1	   4	    0	    1	    0	    3	    0
	 B2	   2	    0	    1	    0	    1	    0

	Nuclear Rep. energy (chkpt) =      8.84102013008336
	SCF energy          (chkpt) =    -75.96970096206672

	Presorting SO-basis two-electron integrals.
	Sorting File: SO Ints (pq,rs) nbuckets = 1
	Frozen-core energy =    0.000000000000000
	Starting first half-transformation.
	Sorting half-transformed integrals.
	Starting second half-transformation.
	Two-electron integral transformation complete.

*** tstop() called on Macintosh-132.local at Wed Apr  3 03:47:15 2013
Module time:
	user time   =       0.00 seconds =       0.00 minutes
	system time =       0.01 seconds =       0.00 minutes
	total time  =          0 seconds =       0.00 minutes
Total time:
	user time   =       0.40 seconds =       0.01 minutes
	system time =       0.03 seconds =       0.00 minutes
	total time  =          1 seconds =       0.02 minutes

*** tstart() called on Macintosh-132.local
*** at Wed Apr  3 03:47:15 2013


*******************************************************
                       D E T C I  

                   C. David Sherrill
                   Matt L. Leininger
                     18 June 1999
*******************************************************




PARAMETERS: 
   EX LEVEL      =        2      H0 BLOCKSIZE =      400
   VAL EX LEVEL  =        0      H0 GUESS SIZE=      400
   H0COUPLINGSIZE=        0      H0 COUPLING  =       no
   NUM PRINT     =       20
   MAXITER       =       12      FREEZE CORE  =      yes
   NUM ROOTS     =        1      ICORE        =        1
   PRINT         =        1      FCI          =       no
   R CONV        =   1.00e-03      MIXED        =      yes
   E CONV        =   1.00e-06      MIXED4       =      yes
   OEI FILE      =       35      R4S          =       no
   REPL OTF      =       no
   TEI FILE      =       72      DIAG METHOD  =      SEM
   PRECONDITIONER= DAVIDSON      UPDATE       =   DAVIDSON
   S             =   0.0000      Ms0          =      yes
   MAX NUM VECS  =       13
   RESTART       =       no
   GUESS VECTOR  =  H0BLOCK      OPENTYPE     =     NONE
   REF SYM       =     auto
   COLLAPSE SIZE =        1      HD AVG       = EVANGELISTI
   LSE           =       no      LSE ITER     =        0
   HD OTF        =      yes      NO DFILE     =       no
   MPN           =       no      MPN SCHMIDT  =       no
   ZAPTN         =       no      MPN WIGNER   =       no
   PERT Z        =   1.0000    FOLLOW ROOT  =        0
   NUM THREADS   =        1
   VECS WRITE    =       no      NUM VECS WRITE =        0
   FILTER GUESS  =       no      SF RESTRICT  =       no
   OPDM          =       no      TRANS DENSITY=       no

   FILES         =  50 51 52 53

   EX ALLOW      =  1  1 
   STATE AVERAGE =  1(1.00) 
   STATE AVERAGE =  1(1.00) 

ORBITALS:
   NMO          =       13      NUM ALP      =        5
   ORBS IN CI   =       13      NUM ALP EXPL =        5
   FROZEN CORE  =        0      NUM BET      =        5
   RESTR CORE   =        0      NUM BET EXPL =        5
   IOPEN        =       no
   RAS1 LVL     =        4      A RAS3 MAX   =        2
   RAS1 MIN     =        8      B RAS3 MAX   =        2
   A RAS1 LVL   =        4      RAS4 LVL     =       13
   A RAS1 MIN   =        3      A RAS4 MAX   =        0
   A RAS1 MAX   =        5      B RAS4 MAX   =        0
   B RAS1 LVL   =        4      RAS4 MAX     =        0
   B RAS1 MIN   =        3      A RAS34 MAX  =        2
   B RAS1 MAX   =        5      B RAS34 MAX  =        2
   RAS3 LVL     =        5      RAS34 MAX    =        2
   RAS3 MAX     =        2

   DOCC         =  3  0  1  1 
   SOCC         =  0  0  0  0 
   FROZEN DOCC  =  0  0  0  0 
   FROZEN UOCC  =  0  0  0  0 
   RAS 1        =  3  0  1  1 
   RAS 2        =  0  0  0  0 
   RAS 3        =  4  0  3  1 
   RAS 4        =  0  0  0  0 
*******************************************************


There are 321 alpha strings
There are 321 beta strings
CI space contains    9 blocks

CI space requires 679 determinants

Check SCF Energy from 1- and 2-electron integrals

SCF Energy (ref):            -75.9697009621
Nuclear repulsion energy:      8.8410201301
One-electron energy:        -122.2609319562
Two-electron energy:          37.4502108641
Frozen core energy:            0.0000000000
Total electronic energy:     -84.8107210922
Total SCF energy:            -75.9697009621

 CI vector/subblock length = 679

*** H0 Block Eigenvalue = -76.10233795

Find the roots by the Simultaneous Expansion Method (Block Davidson Method)
Energy convergence = 1e-06
RMS CI vector convergence = 0.001

Using 1 initial trial vectors
Iter  0  Root  1 = -76.102337950   Delta_E -8.494E+01   Delta_C  1.829E-01  
Iter  1  Root  1 = -76.104747248   Delta_E -2.409E-03   Delta_C  2.075E-02  
Iter  2  Root  1 = -76.104776520   Delta_E -2.927E-05   Delta_C  2.917E-03  
Iter  3  Root  1 = -76.104777953   Delta_E -1.433E-06   Delta_C  1.564E-03  
Iter  4  Root  1 = -76.104778134   Delta_E -1.808E-07   Delta_C  2.076E-04 c

* ROOT 1 CI total energy = -76.1047781339658


The 20 most important determinants

    1    0.978107  (   70,   70)  1A1X  2A1X  3A1X  1B1X  1B2X  
    2   -0.049689  (   86,   86)  1A1X  2A1X  3A1X  1B1X  2B2X  
    3   -0.049372  (   83,   83)  1A1X  2A1X  3A1X  1B2X  2B1X  
    4   -0.027390  (   71,   83)  1A1X  2A1X  3A1B  1B1A  1B2X  4A1A  2B1B  
    5   -0.027390  (   83,   71)  1A1X  2A1X  3A1A  1B1B  1B2X  4A1B  2B1A  
    6   -0.027174  (   84,   84)  1A1X  2A1X  3A1X  1B2X  3B1X  
    7   -0.027140  (   74,   74)  1A1X  2A1X  1B1X  1B2X  5A1X  
    8   -0.027025  (   77,   77)  1A1X  2A1X  1B1X  1B2X  6A1X  
    9   -0.026280  (   71,   71)  1A1X  2A1X  1B1X  1B2X  4A1X  
   10   -0.026116  (   83,   85)  1A1X  2A1X  3A1X  1B2X  2B1A  4B1B  
   11   -0.026116  (   85,   83)  1A1X  2A1X  3A1X  1B2X  2B1B  4B1A  
   12   -0.026052  (   85,   85)  1A1X  2A1X  3A1X  1B2X  4B1X  
   13    0.025157  (   85,   86)  1A1X  2A1X  3A1X  1B1B  1B2A  4B1A  2B2B  
   14    0.025157  (   86,   85)  1A1X  2A1X  3A1X  1B1A  1B2B  4B1B  2B2A  
   15    0.023856  (   83,   86)  1A1X  2A1X  3A1X  1B1B  1B2A  2B1A  2B2B  
   16    0.023856  (   86,   83)  1A1X  2A1X  3A1X  1B1A  1B2B  2B1B  2B2A  
   17   -0.023563  (   74,   83)  1A1X  2A1X  3A1B  1B1A  1B2X  5A1A  2B1B  
   18   -0.023563  (   83,   74)  1A1X  2A1X  3A1A  1B1B  1B2X  5A1B  2B1A  
   19   -0.022922  (   77,   86)  1A1X  2A1X  3A1B  1B1X  1B2A  6A1A  2B2B  
   20   -0.022922  (   86,   77)  1A1X  2A1X  3A1A  1B1X  1B2B  6A1B  2B2A  




        Total Time (s)     %Time 		%Relative
 -----------------------------------------------------
 Read      0.000909
 Write     0.000941
 Sigma1    0.000114
 Sigma2    0.009505
 Sigma3    0.012328
 S1 Thread 0.000000
 S2 Thread 0.000000
 S3 Thread 0.000000

		 "A good bug is a dead bug" 

			 - Starship Troopers

		 "I didn't write FORTRAN.  That's the problem."

			 - Edward Valeev


*** tstop() called on Macintosh-132.local at Wed Apr  3 03:47:15 2013
Module time:
	user time   =       0.30 seconds =       0.00 minutes
	system time =       0.02 seconds =       0.00 minutes
	total time  =          0 seconds =       0.00 minutes
Total time:
	user time   =       0.70 seconds =       0.01 minutes
	system time =       0.05 seconds =       0.00 minutes
	total time  =          1 seconds =       0.02 minutes

  No DF_BASIS_SCF auxiliary basis selected, defaulting to cc-pvdz-jkfit


*** tstart() called on Macintosh-132.local
*** at Wed Apr  3 03:47:15 2013

	There are an even number of electrons - assuming singlet.
	Specify the multiplicity with the MULTP option in the
	input if this is incorrect


         ---------------------------------------------------------
                                   SCF
            by Justin Turney, Rob Parrish, and Andy Simmonett
                              RHF Reference
                        1 Threads,    256 MiB Core
         ---------------------------------------------------------

  ==> Geometry <==

    Molecular point group: c2v
    Full point group: C2v

    Geometry (in Angstrom), charge = 0, multiplicity = 1:

       Center              X                  Y                   Z       
    ------------   -----------------  -----------------  -----------------
           O          0.000000000000     0.000000000000    -0.079135765807
           H          0.707106781187     0.000000000000     0.627971015380
           H         -0.707106781187    -0.000000000000     0.627971015380

  Running in c2v symmetry.

  Nuclear repulsion =    8.841020130083358

  Charge       = 0
  Multiplicity = 1
  Electrons    = 10
  Nalpha       = 5
  Nbeta        = 5

  ==> Algorithm <==

  SCF Algorithm Type is DF.
  DIIS enabled.
  MOM disabled.
  Fractional occupation disabled.
  Guess Type is CORE.
  Energy threshold   = 1.00e-04
  Density threshold  = 1.00e-03
  Integral threshold = 0.00e+00

  ==> Primary Basis <==

  Basis Set: 6-31G
    Number of shells: 9
    Number of basis function: 13
    Number of Cartesian functions: 13
    Spherical Harmonics?: false
    Max angular momentum: 1

  ==> Pre-Iterations <==

   -------------------------------------------------------
    Irrep   Nso     Nmo     Nalpha   Nbeta   Ndocc  Nsocc
   -------------------------------------------------------
     A1         7       7       0       0       0       0
     A2         0       0       0       0       0       0
     B1         4       4       0       0       0       0
     B2         2       2       0       0       0       0
   -------------------------------------------------------
    Total      13      13       5       5       5       0
   -------------------------------------------------------

  ==> Integral Setup <==

 OEINTS: Wrapper to libmints.
   by Justin Turney

   Calculation information:
      Number of atoms:                   3
      Number of AO shells:               9
      Number of SO shells:               7
      Number of primitives:             22
      Number of atomic orbitals:        13
      Number of basis functions:        13

      Number of irreps:                  4
      Number of functions per irrep: [   7    0    4    2 ]

      Overlap, kinetic, potential, dipole, and quadrupole integrals
        stored in file 35.

  ==> DFJK: Density-Fitted J/K Matrices <==

    J tasked:                  Yes
    K tasked:                  Yes
    wK tasked:                  No
    OpenMP threads:              1
    Integrals threads:           1
    Memory (MB):               183
    Algorithm:                Core
    Integral Cache:           NONE
    Schwarz Cutoff:          0E+00
    Fitting Condition:       1E-12

   => Auxiliary Basis Set <=

  Basis Set: cc-pvdz-jkfit
    Number of shells: 42
    Number of basis function: 131
    Number of Cartesian functions: 131
    Spherical Harmonics?: false
    Max angular momentum: 3

  Minimum eigenvalue in the overlap matrix is 7.0941751674E-02.
  Using Symmetric Orthogonalization.
  SCF Guess: Core (One-Electron) Hamiltonian.

  Guess energy:   -58.45690657034417

  ==> Iterations <==

                        Total Energy        Delta E     RMS |[F,P]|

	Occupation by irrep:
	         A1    A2    B1    B2 
	DOCC [     4,    0,    1,    0 ]

   @RHF iter   1:   -69.52372742218395   -6.95237e+01   3.07064e-01 
	Occupation by irrep:
	         A1    A2    B1    B2 
	DOCC [     3,    0,    1,    1 ]

   @RHF iter   2:   -71.85507755235210   -2.33135e+00   2.74239e-01 DIIS
   @RHF iter   3:   -75.92561080422638   -4.07053e+00   3.84602e-02 DIIS
   @RHF iter   4:   -75.96606425332521   -4.04534e-02   9.65344e-03 DIIS
   @RHF iter   5:   -75.96949036274830   -3.42611e-03   1.29449e-03 DIIS
   @RHF iter   6:   -75.96966156920831   -1.71206e-04   6.58030e-04 DIIS
   @RHF iter   7:   -75.96968438992269   -2.28207e-05   1.06835e-04 DIIS

  ==> Post-Iterations <==

	Orbital Energies (a.u.)
	-----------------------

	Doubly Occupied:                                                      

	   1A1   -20.579650     2A1    -1.350807     1B1    -0.661313  
	   3A1    -0.582827     1B2    -0.506698  

	Virtual:                                                              

	   4A1     0.188761     2B1     0.283098     3B1     0.982658  
	   2B2     1.158705     5A1     1.162393     6A1     1.248191  
	   4B1     1.353251     7A1     1.744959  

	Final Occupation by Irrep:
	         A1    A2    B1    B2 
	DOCC [     3,    0,    1,    1 ]

  Energy converged.

  @RHF Final Energy:   -75.96968438992269

   => Energetics <=

    Nuclear Repulsion Energy =              8.8410201300833577
    One-Electron Energy =                -122.2627618142062431
    Two-Electron Energy =                  37.4520572942001806
    DFT Exchange-Correlation Energy =       0.0000000000000000
    Empirical Dispersion Energy =           0.0000000000000000
    Total Energy =                        -75.9696843899226906



Properties will be evaluated at   0.000000,   0.000000,   0.000000 Bohr
  ==> Properties <==


Properties computed using the SCF density density matrix
  Nuclear Dipole Moment: (a.u.)
     X:     0.0000      Y:     0.0000      Z:     1.1770

  Electronic Dipole Moment: (a.u.)
     X:     0.0000      Y:     0.0000      Z:    -0.0494

  Dipole Moment: (a.u.)
     X:     0.0000      Y:     0.0000      Z:     1.1277     Total:     1.1277

  Dipole Moment: (Debye)
     X:     0.0000      Y:     0.0000      Z:     2.8663     Total:     2.8663


  Saving occupied orbitals to File 180.

*** tstop() called on Macintosh-132.local at Wed Apr  3 03:47:16 2013
Module time:
	user time   =       0.22 seconds =       0.00 minutes
	system time =       0.01 seconds =       0.00 minutes
	total time  =          1 seconds =       0.02 minutes
Total time:
	user time   =       1.06 seconds =       0.02 minutes
	system time =       0.06 seconds =       0.00 minutes
	total time  =          2 seconds =       0.03 minutes

*** tstart() called on Macintosh-132.local
*** at Wed Apr  3 03:47:16 2013

	There are an even number of electrons - assuming singlet.
	Specify the multiplicity with the MULTP option in the
	input if this is incorrect


         ---------------------------------------------------------
                                   SCF
            by Justin Turney, Rob Parrish, and Andy Simmonett
                              RHF Reference
                        1 Threads,    256 MiB Core
         ---------------------------------------------------------

  ==> Geometry <==

    Molecular point group: c2v
    Full point group: C2v

    Geometry (in Angstrom), charge = 0, multiplicity = 1:

       Center              X                  Y                   Z       
    ------------   -----------------  -----------------  -----------------
           O          0.000000000000     0.000000000000    -0.079135765807
           H          0.707106781187     0.000000000000     0.627971015380
           H         -0.707106781187    -0.000000000000     0.627971015380

  Running in c2v symmetry.

  Nuclear repulsion =    8.841020130083358

  Charge       = 0
  Multiplicity = 1
  Electrons    = 10
  Nalpha       = 5
  Nbeta        = 5

  ==> Algorithm <==

  SCF Algorithm Type is PK.
  DIIS enabled.
  MOM disabled.
  Fractional occupation disabled.
  Guess Type is CORE.
  Energy threshold   = 1.00e-04
  Density threshold  = 1.00e-03
  Integral threshold = 0.00e+00

  ==> Primary Basis <==

  Basis Set: 6-31G
    Number of shells: 9
    Number of basis function: 13
    Number of Cartesian functions: 13
    Spherical Harmonics?: false
    Max angular momentum: 1

  ==> Pre-Iterations <==

   -------------------------------------------------------
    Irrep   Nso     Nmo     Nalpha   Nbeta   Ndocc  Nsocc
   -------------------------------------------------------
     A1         7       7       0       0       0       0
     A2         0       0       0       0       0       0
     B1         4       4       0       0       0       0
     B2         2       2       0       0       0       0
   -------------------------------------------------------
    Total      13      13       5       5       5       0
   -------------------------------------------------------

  ==> Integral Setup <==

 MINTS: Wrapper to libmints.
   by Justin Turney

   Calculation information:
      Number of atoms:                   3
      Number of AO shells:               9
      Number of SO shells:               7
      Number of primitives:             22
      Number of atomic orbitals:        13
      Number of basis functions:        13

      Number of irreps:                  4
      Number of functions per irrep: [   7    0    4    2 ]

      Overlap, kinetic, potential, dipole, and quadrupole integrals
        stored in file 35.

      Computing two-electron integrals...done
      Computed 1270 non-zero two-electron integrals.
        Stored in file 33.

	Batch   1 pq = [       0,      41] index = [             0,861]
  ==> DiskJK: Disk-Based J/K Matrices <==

    J tasked:                  Yes
    K tasked:                  Yes
    wK tasked:                  No
    Memory (MB):               183
    Schwarz Cutoff:          0E+00

  Minimum eigenvalue in the overlap matrix is 7.0941751674E-02.
  Using Symmetric Orthogonalization.
  SCF Guess: Core (One-Electron) Hamiltonian.

  Guess energy:   -58.45690657034417

  ==> Iterations <==

                        Total Energy        Delta E     RMS |[F,P]|

	Occupation by irrep:
	         A1    A2    B1    B2 
	DOCC [     4,    0,    1,    0 ]

   @RHF iter   1:   -69.52375765938314   -6.95238e+01   3.07057e-01 
	Occupation by irrep:
	         A1    A2    B1    B2 
	DOCC [     3,    0,    1,    1 ]

   @RHF iter   2:   -71.85517684951171   -2.33142e+00   2.74231e-01 DIIS
   @RHF iter   3:   -75.92563798139383   -4.07046e+00   3.84542e-02 DIIS
   @RHF iter   4:   -75.96607964266616   -4.04417e-02   9.65471e-03 DIIS
   @RHF iter   5:   -75.96950610497851   -3.42646e-03   1.29487e-03 DIIS
   @RHF iter   6:   -75.96967733260479   -1.71228e-04   6.57927e-04 DIIS
   @RHF iter   7:   -75.96970014467664   -2.28121e-05   1.06758e-04 DIIS

  ==> Post-Iterations <==

	Orbital Energies (a.u.)
	-----------------------

	Doubly Occupied:                                                      

	   1A1   -20.579652     2A1    -1.350807     1B1    -0.661316  
	   3A1    -0.582831     1B2    -0.506705  

	Virtual:                                                              

	   4A1     0.188756     2B1     0.283084     3B1     0.982587  
	   2B2     1.158672     5A1     1.162339     6A1     1.248128  
	   4B1     1.353160     7A1     1.744911  

	Final Occupation by Irrep:
	         A1    A2    B1    B2 
	DOCC [     3,    0,    1,    1 ]

  Energy converged.

  @RHF Final Energy:   -75.96970014467664

   => Energetics <=

    Nuclear Repulsion Energy =              8.8410201300833577
    One-Electron Energy =                -122.2627580545255341
    Two-Electron Energy =                  37.4520377797655470
    DFT Exchange-Correlation Energy =       0.0000000000000000
    Empirical Dispersion Energy =           0.0000000000000000
    Total Energy =                        -75.9697001446766222



Properties will be evaluated at   0.000000,   0.000000,   0.000000 Bohr
  ==> Properties <==


Properties computed using the SCF density density matrix
  Nuclear Dipole Moment: (a.u.)
     X:     0.0000      Y:     0.0000      Z:     1.1770

  Electronic Dipole Moment: (a.u.)
     X:     0.0000      Y:     0.0000      Z:    -0.0494

  Dipole Moment: (a.u.)
     X:     0.0000      Y:     0.0000      Z:     1.1277     Total:     1.1277

  Dipole Moment: (Debye)
     X:     0.0000      Y:     0.0000      Z:     2.8663     Total:     2.8663


  Saving occupied orbitals to File 180.

*** tstop() called on Macintosh-132.local at Wed Apr  3 03:47:16 2013
Module time:
	user time   =       0.10 seconds =       0.00 minutes
	system time =       0.01 seconds =       0.00 minutes
	total time  =          0 seconds =       0.00 minutes
Total time:
	user time   =       1.23 seconds =       0.02 minutes
	system time =       0.07 seconds =       0.00 minutes
	total time  =          2 seconds =       0.03 minutes

*** tstart() called on Macintosh-132.local
*** at Wed Apr  3 03:47:16 2013


	**************************************************
	* TRANSQT2: Program to transform integrals from  *
	*           the SO basis to the MO basis.        *
	*                                                *
	*            Daniel, David, & Justin             *
	**************************************************


	Input parameters:
	-----------------
	Wave function   =	DETCI
	Backtransform   =	No
	Print Level     =	1
	Print TEIs      =	No
	Reference wfn   =	RHF
	Derivative      =	None
	Delete TEI File =	Yes
	Memory (Mbytes) =	256.0
	Cache Level     =	2
	Cache Type      =	LRU
	Chkpt Parameters:
	--------------------
	Number of irreps     = 4
	Number of SOs        = 13
	Number of MOs        = 13
	Number of active MOs = 13

	Label	# SOs	# FZDC	# DOCC	# SOCC	# VIRT	# FZVR
	-----	-----	------	------	------	------	------
	 A1	   7	    0	    3	    0	    4	    0
	 A2	   0	    0	    0	    0	    0	    0
	 B1	   4	    0	    1	    0	    3	    0
	 B2	   2	    0	    1	    0	    1	    0

	Nuclear Rep. energy (chkpt) =      8.84102013008336
	SCF energy          (chkpt) =    -75.96970014467664

	Presorting SO-basis two-electron integrals.
	Sorting File: SO Ints (pq,rs) nbuckets = 1
	Frozen-core energy =    0.000000000000000
	Starting first half-transformation.
	Sorting half-transformed integrals.
	Starting second half-transformation.
	Two-electron integral transformation complete.

*** tstop() called on Macintosh-132.local at Wed Apr  3 03:47:16 2013
Module time:
	user time   =       0.00 seconds =       0.00 minutes
	system time =       0.01 seconds =       0.00 minutes
	total time  =          0 seconds =       0.00 minutes
Total time:
	user time   =       1.24 seconds =       0.02 minutes
	system time =       0.08 seconds =       0.00 minutes
	total time  =          2 seconds =       0.03 minutes

*** tstart() called on Macintosh-132.local
*** at Wed Apr  3 03:47:16 2013


*******************************************************
                       D E T C I  

                   C. David Sherrill
                   Matt L. Leininger
                     18 June 1999
*******************************************************




PARAMETERS: 
   EX LEVEL      =        2      H0 BLOCKSIZE =      400
   VAL EX LEVEL  =        0      H0 GUESS SIZE=      400
   H0COUPLINGSIZE=        0      H0 COUPLING  =       no
   NUM PRINT     =       20
   MAXITER       =       12      FREEZE CORE  =      yes
   NUM ROOTS     =        1      ICORE        =        1
   PRINT         =        1      FCI          =       no
   R CONV        =   1.00e-03      MIXED        =      yes
   E CONV        =   1.00e-04      MIXED4       =      yes
   OEI FILE      =       35      R4S          =       no
   REPL OTF      =       no
   TEI FILE      =       72      DIAG METHOD  =      SEM
   PRECONDITIONER= DAVIDSON      UPDATE       =   DAVIDSON
   S             =   0.0000      Ms0          =      yes
   MAX NUM VECS  =       13
   RESTART       =       no
   GUESS VECTOR  =  H0BLOCK      OPENTYPE     =     NONE
   REF SYM       =     auto
   COLLAPSE SIZE =        1      HD AVG       = EVANGELISTI
   LSE           =       no      LSE ITER     =        0
   HD OTF        =      yes      NO DFILE     =       no
   MPN           =       no      MPN SCHMIDT  =       no
   ZAPTN         =       no      MPN WIGNER   =       no
   PERT Z        =   1.0000    FOLLOW ROOT  =        0
   NUM THREADS   =        1
   VECS WRITE    =       no      NUM VECS WRITE =        0
   FILTER GUESS  =       no      SF RESTRICT  =       no
   OPDM          =       no      TRANS DENSITY=       no

   FILES         =  50 51 52 53

   EX ALLOW      =  1  1 
   STATE AVERAGE =  1(1.00) 
   STATE AVERAGE =  1(1.00) 

ORBITALS:
   NMO          =       13      NUM ALP      =        5
   ORBS IN CI   =       13      NUM ALP EXPL =        5
   FROZEN CORE  =        0      NUM BET      =        5
   RESTR CORE   =        0      NUM BET EXPL =        5
   IOPEN        =       no
   RAS1 LVL     =        4      A RAS3 MAX   =        2
   RAS1 MIN     =        8      B RAS3 MAX   =        2
   A RAS1 LVL   =        4      RAS4 LVL     =       13
   A RAS1 MIN   =        3      A RAS4 MAX   =        0
   A RAS1 MAX   =        5      B RAS4 MAX   =        0
   B RAS1 LVL   =        4      RAS4 MAX     =        0
   B RAS1 MIN   =        3      A RAS34 MAX  =        2
   B RAS1 MAX   =        5      B RAS34 MAX  =        2
   RAS3 LVL     =        5      RAS34 MAX    =        2
   RAS3 MAX     =        2

   DOCC         =  3  0  1  1 
   SOCC         =  0  0  0  0 
   FROZEN DOCC  =  0  0  0  0 
   FROZEN UOCC  =  0  0  0  0 
   RAS 1        =  3  0  1  1 
   RAS 2        =  0  0  0  0 
   RAS 3        =  4  0  3  1 
   RAS 4        =  0  0  0  0 
*******************************************************


There are 321 alpha strings
There are 321 beta strings
CI space contains    9 blocks

CI space requires 679 determinants

Check SCF Energy from 1- and 2-electron integrals

SCF Energy (ref):            -75.9697001447
Nuclear repulsion energy:      8.8410201301
One-electron energy:        -122.2621659433
Two-electron energy:          37.4514448957
Frozen core energy:            0.0000000000
Total electronic energy:     -84.8107210476
Total SCF energy:            -75.9697009175

*** Calculated Energy Differs from SCF Energy in CHKPT ! ***

*** H0 Block Eigenvalue = -76.10233787

Find the roots by the Simultaneous Expansion Method (Block Davidson Method)
Energy convergence = 0.0001
RMS CI vector convergence = 0.001

Using 1 initial trial vectors
Iter  0  Root  1 = -76.102337870   Delta_E -8.494E+01   Delta_C  1.829E-01  
Iter  1  Root  1 = -76.104747305   Delta_E -2.409E-03   Delta_C  2.075E-02  
Iter  2  Root  1 = -76.104776579   Delta_E -2.927E-05   Delta_C  2.917E-03  
Iter  3  Root  1 = -76.104778012   Delta_E -1.433E-06   Delta_C  1.564E-03  
Iter  4  Root  1 = -76.104778193   Delta_E -1.808E-07   Delta_C  2.077E-04 c

* ROOT 1 CI total energy = -76.1047781926425


The 20 most important determinants

    1    0.978106  (   70,   70)  1A1X  2A1X  3A1X  1B1X  1B2X  
    2   -0.049689  (   86,   86)  1A1X  2A1X  3A1X  1B1X  2B2X  
    3   -0.049375  (   83,   83)  1A1X  2A1X  3A1X  1B2X  2B1X  
    4   -0.027392  (   71,   83)  1A1X  2A1X  3A1B  1B1A  1B2X  4A1A  2B1B  
    5   -0.027392  (   83,   71)  1A1X  2A1X  3A1A  1B1B  1B2X  4A1B  2B1A  
    6   -0.027173  (   84,   84)  1A1X  2A1X  3A1X  1B2X  3B1X  
    7   -0.027165  (   74,   74)  1A1X  2A1X  1B1X  1B2X  5A1X  
    8   -0.027000  (   77,   77)  1A1X  2A1X  1B1X  1B2X  6A1X  
    9   -0.026281  (   71,   71)  1A1X  2A1X  1B1X  1B2X  4A1X  
   10   -0.026115  (   83,   85)  1A1X  2A1X  3A1X  1B2X  2B1A  4B1B  
   11   -0.026115  (   85,   83)  1A1X  2A1X  3A1X  1B2X  2B1B  4B1A  
   12   -0.026051  (   85,   85)  1A1X  2A1X  3A1X  1B2X  4B1X  
   13    0.025157  (   85,   86)  1A1X  2A1X  3A1X  1B1B  1B2A  4B1A  2B2B  
   14    0.025157  (   86,   85)  1A1X  2A1X  3A1X  1B1A  1B2B  4B1B  2B2A  
   15    0.023856  (   83,   86)  1A1X  2A1X  3A1X  1B1B  1B2A  2B1A  2B2B  
   16    0.023856  (   86,   83)  1A1X  2A1X  3A1X  1B1A  1B2B  2B1B  2B2A  
   17   -0.023570  (   74,   83)  1A1X  2A1X  3A1B  1B1A  1B2X  5A1A  2B1B  
   18   -0.023570  (   83,   74)  1A1X  2A1X  3A1A  1B1B  1B2X  5A1B  2B1A  
   19   -0.022905  (   77,   86)  1A1X  2A1X  3A1B  1B1X  1B2A  6A1A  2B2B  
   20   -0.022905  (   86,   77)  1A1X  2A1X  3A1A  1B1X  1B2B  6A1B  2B2A  




        Total Time (s)     %Time 		%Relative
 -----------------------------------------------------
 Read      0.001767
 Write     0.001621
 Sigma1    0.000224
 Sigma2    0.024076
 Sigma3    0.024299
 S1 Thread 0.000000
 S2 Thread 0.000000
 S3 Thread 0.000000

		 "A good bug is a dead bug" 

			 - Starship Troopers

		 "I didn't write FORTRAN.  That's the problem."

			 - Edward Valeev


*** tstop() called on Macintosh-132.local at Wed Apr  3 03:47:16 2013
Module time:
	user time   =       0.29 seconds =       0.00 minutes
	system time =       0.02 seconds =       0.00 minutes
	total time  =          0 seconds =       0.00 minutes
Total time:
	user time   =       1.53 seconds =       0.03 minutes
	system time =       0.10 seconds =       0.00 minutes
	total time  =          2 seconds =       0.03 minutes

  No DF_BASIS_SCF auxiliary basis selected, defaulting to cc-pvdz-jkfit


*** tstart() called on Macintosh-132.local
*** at Wed Apr  3 03:47:16 2013

	There are an even number of electrons - assuming singlet.
	Specify the multiplicity with the MULTP option in the
	input if this is incorrect


         ---------------------------------------------------------
                                   SCF
            by Justin Turney, Rob Parrish, and Andy Simmonett
                              RHF Reference
                        1 Threads,    256 MiB Core
         ---------------------------------------------------------

  ==> Geometry <==

    Molecular point group: c2v
    Full point group: C2v

    Geometry (in Angstrom), charge = 0, multiplicity = 1:

       Center              X                  Y                   Z       
    ------------   -----------------  -----------------  -----------------
           O          0.000000000000     0.000000000000    -0.079135765807
           H          0.707106781187     0.000000000000     0.627971015380
           H         -0.707106781187    -0.000000000000     0.627971015380

  Running in c2v symmetry.

  Nuclear repulsion =    8.841020130083358

  Charge       = 0
  Multiplicity = 1
  Electrons    = 10
  Nalpha       = 5
  Nbeta        = 5

  ==> Algorithm <==

  SCF Algorithm Type is DF.
  DIIS enabled.
  MOM disabled.
  Fractional occupation disabled.
  Guess Type is CORE.
  Energy threshold   = 1.00e-04
  Density threshold  = 1.00e-03
  Integral threshold = 0.00e+00

  ==> Primary Basis <==

  Basis Set: 6-31G
    Number of shells: 9
    Number of basis function: 13
    Number of Cartesian functions: 13
    Spherical Harmonics?: false
    Max angular momentum: 1

  ==> Pre-Iterations <==

   -------------------------------------------------------
    Irrep   Nso     Nmo     Nalpha   Nbeta   Ndocc  Nsocc
   -------------------------------------------------------
     A1         7       7       0       0       0       0
     A2         0       0       0       0       0       0
     B1         4       4       0       0       0       0
     B2         2       2       0       0       0       0
   -------------------------------------------------------
    Total      13      13       5       5       5       0
   -------------------------------------------------------

  ==> Integral Setup <==

 OEINTS: Wrapper to libmints.
   by Justin Turney

   Calculation information:
      Number of atoms:                   3
      Number of AO shells:               9
      Number of SO shells:               7
      Number of primitives:             22
      Number of atomic orbitals:        13
      Number of basis functions:        13

      Number of irreps:                  4
      Number of functions per irrep: [   7    0    4    2 ]

      Overlap, kinetic, potential, dipole, and quadrupole integrals
        stored in file 35.

  ==> DFJK: Density-Fitted J/K Matrices <==

    J tasked:                  Yes
    K tasked:                  Yes
    wK tasked:                  No
    OpenMP threads:              1
    Integrals threads:           1
    Memory (MB):               183
    Algorithm:                Core
    Integral Cache:           NONE
    Schwarz Cutoff:          0E+00
    Fitting Condition:       1E-12

   => Auxiliary Basis Set <=

  Basis Set: cc-pvdz-jkfit
    Number of shells: 42
    Number of basis function: 131
    Number of Cartesian functions: 131
    Spherical Harmonics?: false
    Max angular momentum: 3

  Minimum eigenvalue in the overlap matrix is 7.0941751674E-02.
  Using Symmetric Orthogonalization.
  SCF Guess: Core (One-Electron) Hamiltonian.

  Guess energy:   -58.45690657034417

  ==> Iterations <==

                        Total Energy        Delta E     RMS |[F,P]|

	Occupation by irrep:
	         A1    A2    B1    B2 
	DOCC [     4,    0,    1,    0 ]

   @RHF iter   1:   -69.52372742218395   -6.95237e+01   3.07064e-01 
	Occupation by irrep:
	         A1    A2    B1    B2 
	DOCC [     3,    0,    1,    1 ]

   @RHF iter   2:   -71.85507755235210   -2.33135e+00   2.74239e-01 DIIS
   @RHF iter   3:   -75.92561080422638   -4.07053e+00   3.84602e-02 DIIS
   @RHF iter   4:   -75.96606425332521   -4.04534e-02   9.65344e-03 DIIS
   @RHF iter   5:   -75.96949036274830   -3.42611e-03   1.29449e-03 DIIS
   @RHF iter   6:   -75.96966156920831   -1.71206e-04   6.58030e-04 DIIS
   @RHF iter   7:   -75.96968438992269   -2.28207e-05   1.06835e-04 DIIS

  ==> Post-Iterations <==

	Orbital Energies (a.u.)
	-----------------------

	Doubly Occupied:                                                      

	   1A1   -20.579650     2A1    -1.350807     1B1    -0.661313  
	   3A1    -0.582827     1B2    -0.506698  

	Virtual:                                                              

	   4A1     0.188761     2B1     0.283098     3B1     0.982658  
	   2B2     1.158705     5A1     1.162393     6A1     1.248191  
	   4B1     1.353251     7A1     1.744959  

	Final Occupation by Irrep:
	         A1    A2    B1    B2 
	DOCC [     3,    0,    1,    1 ]

  Energy converged.

  @RHF Final Energy:   -75.96968438992269

   => Energetics <=

    Nuclear Repulsion Energy =              8.8410201300833577
    One-Electron Energy =                -122.2627618142062431
    Two-Electron Energy =                  37.4520572942001806
    DFT Exchange-Correlation Energy =       0.0000000000000000
    Empirical Dispersion Energy =           0.0000000000000000
    Total Energy =                        -75.9696843899226906



Properties will be evaluated at   0.000000,   0.000000,   0.000000 Bohr
  ==> Properties <==


Properties computed using the SCF density density matrix
  Nuclear Dipole Moment: (a.u.)
     X:     0.0000      Y:     0.0000      Z:     1.1770

  Electronic Dipole Moment: (a.u.)
     X:     0.0000      Y:     0.0000      Z:    -0.0494

  Dipole Moment: (a.u.)
     X:     0.0000      Y:     0.0000      Z:     1.1277     Total:     1.1277

  Dipole Moment: (Debye)
     X:     0.0000      Y:     0.0000      Z:     2.8663     Total:     2.8663


  Saving occupied orbitals to File 180.

*** tstop() called on Macintosh-132.local at Wed Apr  3 03:47:17 2013
Module time:
	user time   =       0.22 seconds =       0.00 minutes
	system time =       0.01 seconds =       0.00 minutes
	total time  =          1 seconds =       0.02 minutes
Total time:
	user time   =       1.90 seconds =       0.03 minutes
	system time =       0.11 seconds =       0.00 minutes
	total time  =          3 seconds =       0.05 minutes

*** tstart() called on Macintosh-132.local
*** at Wed Apr  3 03:47:17 2013

	There are an even number of electrons - assuming singlet.
	Specify the multiplicity with the MULTP option in the
	input if this is incorrect


         ---------------------------------------------------------
                                   SCF
            by Justin Turney, Rob Parrish, and Andy Simmonett
                              RHF Reference
                        1 Threads,    256 MiB Core
         ---------------------------------------------------------

  ==> Geometry <==

    Molecular point group: c2v
    Full point group: C2v

    Geometry (in Angstrom), charge = 0, multiplicity = 1:

       Center              X                  Y                   Z       
    ------------   -----------------  -----------------  -----------------
           O          0.000000000000     0.000000000000    -0.079135765807
           H          0.707106781187     0.000000000000     0.627971015380
           H         -0.707106781187    -0.000000000000     0.627971015380

  Running in c2v symmetry.

  Nuclear repulsion =    8.841020130083358

  Charge       = 0
  Multiplicity = 1
  Electrons    = 10
  Nalpha       = 5
  Nbeta        = 5

  ==> Algorithm <==

  SCF Algorithm Type is PK.
  DIIS enabled.
  MOM disabled.
  Fractional occupation disabled.
  Guess Type is CORE.
  Energy threshold   = 1.00e-04
  Density threshold  = 1.00e-03
  Integral threshold = 0.00e+00

  ==> Primary Basis <==

  Basis Set: 6-31G
    Number of shells: 9
    Number of basis function: 13
    Number of Cartesian functions: 13
    Spherical Harmonics?: false
    Max angular momentum: 1

  ==> Pre-Iterations <==

   -------------------------------------------------------
    Irrep   Nso     Nmo     Nalpha   Nbeta   Ndocc  Nsocc
   -------------------------------------------------------
     A1         7       7       0       0       0       0
     A2         0       0       0       0       0       0
     B1         4       4       0       0       0       0
     B2         2       2       0       0       0       0
   -------------------------------------------------------
    Total      13      13       5       5       5       0
   -------------------------------------------------------

  ==> Integral Setup <==

 MINTS: Wrapper to libmints.
   by Justin Turney

   Calculation information:
      Number of atoms:                   3
      Number of AO shells:               9
      Number of SO shells:               7
      Number of primitives:             22
      Number of atomic orbitals:        13
      Number of basis functions:        13

      Number of irreps:                  4
      Number of functions per irrep: [   7    0    4    2 ]

      Overlap, kinetic, potential, dipole, and quadrupole integrals
        stored in file 35.

      Computing two-electron integrals...done
      Computed 1270 non-zero two-electron integrals.
        Stored in file 33.

	Batch   1 pq = [       0,      41] index = [             0,861]
  ==> DiskJK: Disk-Based J/K Matrices <==

    J tasked:                  Yes
    K tasked:                  Yes
    wK tasked:                  No
    Memory (MB):               183
    Schwarz Cutoff:          0E+00

  Minimum eigenvalue in the overlap matrix is 7.0941751674E-02.
  Using Symmetric Orthogonalization.
  SCF Guess: Core (One-Electron) Hamiltonian.

  Guess energy:   -58.45690657034417

  ==> Iterations <==

                        Total Energy        Delta E     RMS |[F,P]|

	Occupation by irrep:
	         A1    A2    B1    B2 
	DOCC [     4,    0,    1,    0 ]

   @RHF iter   1:   -69.52375765938314   -6.95238e+01   3.07057e-01 
	Occupation by irrep:
	         A1    A2    B1    B2 
	DOCC [     3,    0,    1,    1 ]

   @RHF iter   2:   -71.85517684951171   -2.33142e+00   2.74231e-01 DIIS
   @RHF iter   3:   -75.92563798139383   -4.07046e+00   3.84542e-02 DIIS
   @RHF iter   4:   -75.96607964266616   -4.04417e-02   9.65471e-03 DIIS
   @RHF iter   5:   -75.96950610497851   -3.42646e-03   1.29487e-03 DIIS
   @RHF iter   6:   -75.96967733260479   -1.71228e-04   6.57927e-04 DIIS
   @RHF iter   7:   -75.96970014467664   -2.28121e-05   1.06758e-04 DIIS

  ==> Post-Iterations <==

	Orbital Energies (a.u.)
	-----------------------

	Doubly Occupied:                                                      

	   1A1   -20.579652     2A1    -1.350807     1B1    -0.661316  
	   3A1    -0.582831     1B2    -0.506705  

	Virtual:                                                              

	   4A1     0.188756     2B1     0.283084     3B1     0.982587  
	   2B2     1.158672     5A1     1.162339     6A1     1.248128  
	   4B1     1.353160     7A1     1.744911  

	Final Occupation by Irrep:
	         A1    A2    B1    B2 
	DOCC [     3,    0,    1,    1 ]

  Energy converged.

  @RHF Final Energy:   -75.96970014467664

   => Energetics <=

    Nuclear Repulsion Energy =              8.8410201300833577
    One-Electron Energy =                -122.2627580545255341
    Two-Electron Energy =                  37.4520377797655470
    DFT Exchange-Correlation Energy =       0.0000000000000000
    Empirical Dispersion Energy =           0.0000000000000000
    Total Energy =                        -75.9697001446766222



Properties will be evaluated at   0.000000,   0.000000,   0.000000 Bohr
  ==> Properties <==


Properties computed using the SCF density density matrix
  Nuclear Dipole Moment: (a.u.)
     X:     0.0000      Y:     0.0000      Z:     1.1770

  Electronic Dipole Moment: (a.u.)
     X:     0.0000      Y:     0.0000      Z:    -0.0494

  Dipole Moment: (a.u.)
     X:     0.0000      Y:     0.0000      Z:     1.1277     Total:     1.1277

  Dipole Moment: (Debye)
     X:     0.0000      Y:     0.0000      Z:     2.8663     Total:     2.8663


  Saving occupied orbitals to File 180.

*** tstop() called on Macintosh-132.local at Wed Apr  3 03:47:17 2013
Module time:
	user time   =       0.11 seconds =       0.00 minutes
	system time =       0.01 seconds =       0.00 minutes
	total time  =          0 seconds =       0.00 minutes
Total time:
	user time   =       2.07 seconds =       0.03 minutes
	system time =       0.12 seconds =       0.00 minutes
	total time  =          3 seconds =       0.05 minutes

*** tstart() called on Macintosh-132.local
*** at Wed Apr  3 03:47:17 2013


	**************************************************
	* TRANSQT2: Program to transform integrals from  *
	*           the SO basis to the MO basis.        *
	*                                                *
	*            Daniel, David, & Justin             *
	**************************************************


	Input parameters:
	-----------------
	Wave function   =	DETCI
	Backtransform   =	No
	Print Level     =	1
	Print TEIs      =	No
	Reference wfn   =	RHF
	Derivative      =	None
	Delete TEI File =	Yes
	Memory (Mbytes) =	256.0
	Cache Level     =	2
	Cache Type      =	LRU
	Chkpt Parameters:
	--------------------
	Number of irreps     = 4
	Number of SOs        = 13
	Number of MOs        = 13
	Number of active MOs = 13

	Label	# SOs	# FZDC	# DOCC	# SOCC	# VIRT	# FZVR
	-----	-----	------	------	------	------	------
	 A1	   7	    0	    3	    0	    4	    0
	 A2	   0	    0	    0	    0	    0	    0
	 B1	   4	    0	    1	    0	    3	    0
	 B2	   2	    0	    1	    0	    1	    0

	Nuclear Rep. energy (chkpt) =      8.84102013008336
	SCF energy          (chkpt) =    -75.96970014467664

	Presorting SO-basis two-electron integrals.
	Sorting File: SO Ints (pq,rs) nbuckets = 1
	Frozen-core energy =    0.000000000000000
	Starting first half-transformation.
	Sorting half-transformed integrals.
	Starting second half-transformation.
	Two-electron integral transformation complete.

*** tstop() called on Macintosh-132.local at Wed Apr  3 03:47:17 2013
Module time:
	user time   =       0.01 seconds =       0.00 minutes
	system time =       0.01 seconds =       0.00 minutes
	total time  =          0 seconds =       0.00 minutes
Total time:
	user time   =       2.08 seconds =       0.03 minutes
	system time =       0.13 seconds =       0.00 minutes
	total time  =          3 seconds =       0.05 minutes

*** tstart() called on Macintosh-132.local
*** at Wed Apr  3 03:47:17 2013


*******************************************************
                       D E T C I  

                   C. David Sherrill
                   Matt L. Leininger
                     18 June 1999
*******************************************************




PARAMETERS: 
   EX LEVEL      =        2      H0 BLOCKSIZE =      400
   VAL EX LEVEL  =        0      H0 GUESS SIZE=      400
   H0COUPLINGSIZE=        0      H0 COUPLING  =       no
   NUM PRINT     =       20
   MAXITER       =       12      FREEZE CORE  =      yes
   NUM ROOTS     =        1      ICORE        =        1
   PRINT         =        1      FCI          =       no
   R CONV        =   1.00e-03      MIXED        =      yes
   E CONV        =   1.00e-06      MIXED4       =      yes
   OEI FILE      =       35      R4S          =       no
   REPL OTF      =       no
   TEI FILE      =       72      DIAG METHOD  =      SEM
   PRECONDITIONER= DAVIDSON      UPDATE       =   DAVIDSON
   S             =   0.0000      Ms0          =      yes
   MAX NUM VECS  =       13
   RESTART       =       no
   GUESS VECTOR  =  H0BLOCK      OPENTYPE     =     NONE
   REF SYM       =     auto
   COLLAPSE SIZE =        1      HD AVG       = EVANGELISTI
   LSE           =       no      LSE ITER     =        0
   HD OTF        =      yes      NO DFILE     =       no
   MPN           =       no      MPN SCHMIDT  =       no
   ZAPTN         =       no      MPN WIGNER   =       no
   PERT Z        =   1.0000    FOLLOW ROOT  =        0
   NUM THREADS   =        1
   VECS WRITE    =       no      NUM VECS WRITE =        0
   FILTER GUESS  =       no      SF RESTRICT  =       no
   OPDM          =       no      TRANS DENSITY=       no

   FILES         =  50 51 52 53

   EX ALLOW      =  1  1 
   STATE AVERAGE =  1(1.00) 
   STATE AVERAGE =  1(1.00) 

ORBITALS:
   NMO          =       13      NUM ALP      =        5
   ORBS IN CI   =       13      NUM ALP EXPL =        5
   FROZEN CORE  =        0      NUM BET      =        5
   RESTR CORE   =        0      NUM BET EXPL =        5
   IOPEN        =       no
   RAS1 LVL     =        4      A RAS3 MAX   =        2
   RAS1 MIN     =        8      B RAS3 MAX   =        2
   A RAS1 LVL   =        4      RAS4 LVL     =       13
   A RAS1 MIN   =        3      A RAS4 MAX   =        0
   A RAS1 MAX   =        5      B RAS4 MAX   =        0
   B RAS1 LVL   =        4      RAS4 MAX     =        0
   B RAS1 MIN   =        3      A RAS34 MAX  =        2
   B RAS1 MAX   =        5      B RAS34 MAX  =        2
   RAS3 LVL     =        5      RAS34 MAX    =        2
   RAS3 MAX     =        2

   DOCC         =  3  0  1  1 
   SOCC         =  0  0  0  0 
   FROZEN DOCC  =  0  0  0  0 
   FROZEN UOCC  =  0  0  0  0 
   RAS 1        =  3  0  1  1 
   RAS 2        =  0  0  0  0 
   RAS 3        =  4  0  3  1 
   RAS 4        =  0  0  0  0 
*******************************************************


There are 321 alpha strings
There are 321 beta strings
CI space contains    9 blocks

CI space requires 679 determinants

Check SCF Energy from 1- and 2-electron integrals

SCF Energy (ref):            -75.9697001447
Nuclear repulsion energy:      8.8410201301
One-electron energy:        -122.2621659433
Two-electron energy:          37.4514448957
Frozen core energy:            0.0000000000
Total electronic energy:     -84.8107210476
Total SCF energy:            -75.9697009175

*** Calculated Energy Differs from SCF Energy in CHKPT ! ***

*** H0 Block Eigenvalue = -76.10233787

Find the roots by the Simultaneous Expansion Method (Block Davidson Method)
Energy convergence = 1e-06
RMS CI vector convergence = 0.001

Using 1 initial trial vectors
Iter  0  Root  1 = -76.102337870   Delta_E -8.494E+01   Delta_C  1.829E-01  
Iter  1  Root  1 = -76.104747305   Delta_E -2.409E-03   Delta_C  2.075E-02  
Iter  2  Root  1 = -76.104776579   Delta_E -2.927E-05   Delta_C  2.917E-03  
Iter  3  Root  1 = -76.104778012   Delta_E -1.433E-06   Delta_C  1.564E-03  
Iter  4  Root  1 = -76.104778193   Delta_E -1.808E-07   Delta_C  2.077E-04 c

* ROOT 1 CI total energy = -76.1047781926425


The 20 most important determinants

    1    0.978106  (   70,   70)  1A1X  2A1X  3A1X  1B1X  1B2X  
    2   -0.049689  (   86,   86)  1A1X  2A1X  3A1X  1B1X  2B2X  
    3   -0.049375  (   83,   83)  1A1X  2A1X  3A1X  1B2X  2B1X  
    4   -0.027392  (   71,   83)  1A1X  2A1X  3A1B  1B1A  1B2X  4A1A  2B1B  
    5   -0.027392  (   83,   71)  1A1X  2A1X  3A1A  1B1B  1B2X  4A1B  2B1A  
    6   -0.027173  (   84,   84)  1A1X  2A1X  3A1X  1B2X  3B1X  
    7   -0.027165  (   74,   74)  1A1X  2A1X  1B1X  1B2X  5A1X  
    8   -0.027000  (   77,   77)  1A1X  2A1X  1B1X  1B2X  6A1X  
    9   -0.026281  (   71,   71)  1A1X  2A1X  1B1X  1B2X  4A1X  
   10   -0.026115  (   83,   85)  1A1X  2A1X  3A1X  1B2X  2B1A  4B1B  
   11   -0.026115  (   85,   83)  1A1X  2A1X  3A1X  1B2X  2B1B  4B1A  
   12   -0.026051  (   85,   85)  1A1X  2A1X  3A1X  1B2X  4B1X  
   13    0.025157  (   85,   86)  1A1X  2A1X  3A1X  1B1B  1B2A  4B1A  2B2B  
   14    0.025157  (   86,   85)  1A1X  2A1X  3A1X  1B1A  1B2B  4B1B  2B2A  
   15    0.023856  (   83,   86)  1A1X  2A1X  3A1X  1B1B  1B2A  2B1A  2B2B  
   16    0.023856  (   86,   83)  1A1X  2A1X  3A1X  1B1A  1B2B  2B1B  2B2A  
   17   -0.023570  (   74,   83)  1A1X  2A1X  3A1B  1B1A  1B2X  5A1A  2B1B  
   18   -0.023570  (   83,   74)  1A1X  2A1X  3A1A  1B1B  1B2X  5A1B  2B1A  
   19   -0.022905  (   77,   86)  1A1X  2A1X  3A1B  1B1X  1B2A  6A1A  2B2B  
   20   -0.022905  (   86,   77)  1A1X  2A1X  3A1A  1B1X  1B2B  6A1B  2B2A  




        Total Time (s)     %Time 		%Relative
 -----------------------------------------------------
 Read      0.002830
 Write     0.002361
 Sigma1    0.000344
 Sigma2    0.034759
 Sigma3    0.037841
 S1 Thread 0.000000
 S2 Thread 0.000000
 S3 Thread 0.000000

		 "A good bug is a dead bug" 

			 - Starship Troopers

		 "I didn't write FORTRAN.  That's the problem."

			 - Edward Valeev


*** tstop() called on Macintosh-132.local at Wed Apr  3 03:47:17 2013
Module time:
	user time   =       0.29 seconds =       0.00 minutes
	system time =       0.02 seconds =       0.00 minutes
	total time  =          0 seconds =       0.00 minutes
Total time:
	user time   =       2.37 seconds =       0.04 minutes
	system time =       0.15 seconds =       0.00 minutes
	total time  =          3 seconds =       0.05 minutes

  No DF_BASIS_SCF auxiliary basis selected, defaulting to cc-pvdz-jkfit


*** tstart() called on Macintosh-132.local
*** at Wed Apr  3 03:47:17 2013

	There are an even number of electrons - assuming singlet.
	Specify the multiplicity with the MULTP option in the
	input if this is incorrect


         ---------------------------------------------------------
                                   SCF
            by Justin Turney, Rob Parrish, and Andy Simmonett
                              RHF Reference
                        1 Threads,    256 MiB Core
         ---------------------------------------------------------

  ==> Geometry <==

    Molecular point group: c2v
    Full point group: C2v

    Geometry (in Angstrom), charge = 0, multiplicity = 1:

       Center              X                  Y                   Z       
    ------------   -----------------  -----------------  -----------------
           O          0.000000000000     0.000000000000    -0.079135765807
           H          0.707106781187     0.000000000000     0.627971015380
           H         -0.707106781187    -0.000000000000     0.627971015380

  Running in c2v symmetry.

  Nuclear repulsion =    8.841020130083358

  Charge       = 0
  Multiplicity = 1
  Electrons    = 10
  Nalpha       = 5
  Nbeta        = 5

  ==> Algorithm <==

  SCF Algorithm Type is DF.
  DIIS enabled.
  MOM disabled.
  Fractional occupation disabled.
  Guess Type is CORE.
  Energy threshold   = 1.00e-05
  Density threshold  = 1.00e-03
  Integral threshold = 0.00e+00

  ==> Primary Basis <==

  Basis Set: 6-31G
    Number of shells: 9
    Number of basis function: 13
    Number of Cartesian functions: 13
    Spherical Harmonics?: false
    Max angular momentum: 1

  ==> Pre-Iterations <==

   -------------------------------------------------------
    Irrep   Nso     Nmo     Nalpha   Nbeta   Ndocc  Nsocc
   -------------------------------------------------------
     A1         7       7       0       0       0       0
     A2         0       0       0       0       0       0
     B1         4       4       0       0       0       0
     B2         2       2       0       0       0       0
   -------------------------------------------------------
    Total      13      13       5       5       5       0
   -------------------------------------------------------

  ==> Integral Setup <==

 OEINTS: Wrapper to libmints.
   by Justin Turney

   Calculation information:
      Number of atoms:                   3
      Number of AO shells:               9
      Number of SO shells:               7
      Number of primitives:             22
      Number of atomic orbitals:        13
      Number of basis functions:        13

      Number of irreps:                  4
      Number of functions per irrep: [   7    0    4    2 ]

      Overlap, kinetic, potential, dipole, and quadrupole integrals
        stored in file 35.

  ==> DFJK: Density-Fitted J/K Matrices <==

    J tasked:                  Yes
    K tasked:                  Yes
    wK tasked:                  No
    OpenMP threads:              1
    Integrals threads:           1
    Memory (MB):               183
    Algorithm:                Core
    Integral Cache:           NONE
    Schwarz Cutoff:          0E+00
    Fitting Condition:       1E-12

   => Auxiliary Basis Set <=

  Basis Set: cc-pvdz-jkfit
    Number of shells: 42
    Number of basis function: 131
    Number of Cartesian functions: 131
    Spherical Harmonics?: false
    Max angular momentum: 3

  Minimum eigenvalue in the overlap matrix is 7.0941751674E-02.
  Using Symmetric Orthogonalization.
  SCF Guess: Core (One-Electron) Hamiltonian.

  Guess energy:   -58.45690657034417

  ==> Iterations <==

                        Total Energy        Delta E     RMS |[F,P]|

	Occupation by irrep:
	         A1    A2    B1    B2 
	DOCC [     4,    0,    1,    0 ]

   @RHF iter   1:   -69.52372742218395   -6.95237e+01   3.07064e-01 
	Occupation by irrep:
	         A1    A2    B1    B2 
	DOCC [     3,    0,    1,    1 ]

   @RHF iter   2:   -71.85507755235210   -2.33135e+00   2.74239e-01 DIIS
   @RHF iter   3:   -75.92561080422638   -4.07053e+00   3.84602e-02 DIIS
   @RHF iter   4:   -75.96606425332521   -4.04534e-02   9.65344e-03 DIIS
   @RHF iter   5:   -75.96949036274830   -3.42611e-03   1.29449e-03 DIIS
   @RHF iter   6:   -75.96966156920831   -1.71206e-04   6.58030e-04 DIIS
   @RHF iter   7:   -75.96968438992269   -2.28207e-05   1.06835e-04 DIIS
   @RHF iter   8:   -75.96968516255035   -7.72628e-07   3.96830e-05 DIIS

  ==> Post-Iterations <==

	Orbital Energies (a.u.)
	-----------------------

	Doubly Occupied:                                                      

	   1A1   -20.579260     2A1    -1.350640     1B1    -0.661229  
	   3A1    -0.582613     1B2    -0.506547  

	Virtual:                                                              

	   4A1     0.188770     2B1     0.283098     3B1     0.982665  
	   2B2     1.158815     5A1     1.162455     6A1     1.248297  
	   4B1     1.353333     7A1     1.745025  

	Final Occupation by Irrep:
	         A1    A2    B1    B2 
	DOCC [     3,    0,    1,    1 ]

  Energy converged.

  @RHF Final Energy:   -75.96968516255035

   => Energetics <=

    Nuclear Repulsion Energy =              8.8410201300833577
    One-Electron Energy =                -122.2621650658338552
    Two-Electron Energy =                  37.4514597732001562
    DFT Exchange-Correlation Energy =       0.0000000000000000
    Empirical Dispersion Energy =           0.0000000000000000
    Total Energy =                        -75.9696851625503484



Properties will be evaluated at   0.000000,   0.000000,   0.000000 Bohr
  ==> Properties <==


Properties computed using the SCF density density matrix
  Nuclear Dipole Moment: (a.u.)
     X:     0.0000      Y:     0.0000      Z:     1.1770

  Electronic Dipole Moment: (a.u.)
     X:     0.0000      Y:     0.0000      Z:    -0.0494

  Dipole Moment: (a.u.)
     X:     0.0000      Y:     0.0000      Z:     1.1276     Total:     1.1276

  Dipole Moment: (Debye)
     X:     0.0000      Y:     0.0000      Z:     2.8662     Total:     2.8662


  Saving occupied orbitals to File 180.

*** tstop() called on Macintosh-132.local at Wed Apr  3 03:47:18 2013
Module time:
	user time   =       0.21 seconds =       0.00 minutes
	system time =       0.01 seconds =       0.00 minutes
	total time  =          1 seconds =       0.02 minutes
Total time:
	user time   =       2.73 seconds =       0.05 minutes
	system time =       0.16 seconds =       0.00 minutes
	total time  =          4 seconds =       0.07 minutes

*** tstart() called on Macintosh-132.local
*** at Wed Apr  3 03:47:18 2013

	There are an even number of electrons - assuming singlet.
	Specify the multiplicity with the MULTP option in the
	input if this is incorrect


         ---------------------------------------------------------
                                   SCF
            by Justin Turney, Rob Parrish, and Andy Simmonett
                              RHF Reference
                        1 Threads,    256 MiB Core
         ---------------------------------------------------------

  ==> Geometry <==

    Molecular point group: c2v
    Full point group: C2v

    Geometry (in Angstrom), charge = 0, multiplicity = 1:

       Center              X                  Y                   Z       
    ------------   -----------------  -----------------  -----------------
           O          0.000000000000     0.000000000000    -0.079135765807
           H          0.707106781187     0.000000000000     0.627971015380
           H         -0.707106781187    -0.000000000000     0.627971015380

  Running in c2v symmetry.

  Nuclear repulsion =    8.841020130083358

  Charge       = 0
  Multiplicity = 1
  Electrons    = 10
  Nalpha       = 5
  Nbeta        = 5

  ==> Algorithm <==

  SCF Algorithm Type is PK.
  DIIS enabled.
  MOM disabled.
  Fractional occupation disabled.
  Guess Type is CORE.
  Energy threshold   = 1.00e-05
  Density threshold  = 1.00e-03
  Integral threshold = 0.00e+00

  ==> Primary Basis <==

  Basis Set: 6-31G
    Number of shells: 9
    Number of basis function: 13
    Number of Cartesian functions: 13
    Spherical Harmonics?: false
    Max angular momentum: 1

  ==> Pre-Iterations <==

   -------------------------------------------------------
    Irrep   Nso     Nmo     Nalpha   Nbeta   Ndocc  Nsocc
   -------------------------------------------------------
     A1         7       7       0       0       0       0
     A2         0       0       0       0       0       0
     B1         4       4       0       0       0       0
     B2         2       2       0       0       0       0
   -------------------------------------------------------
    Total      13      13       5       5       5       0
   -------------------------------------------------------

  ==> Integral Setup <==

 MINTS: Wrapper to libmints.
   by Justin Turney

   Calculation information:
      Number of atoms:                   3
      Number of AO shells:               9
      Number of SO shells:               7
      Number of primitives:             22
      Number of atomic orbitals:        13
      Number of basis functions:        13

      Number of irreps:                  4
      Number of functions per irrep: [   7    0    4    2 ]

      Overlap, kinetic, potential, dipole, and quadrupole integrals
        stored in file 35.

      Computing two-electron integrals...done
      Computed 1270 non-zero two-electron integrals.
        Stored in file 33.

	Batch   1 pq = [       0,      41] index = [             0,861]
  ==> DiskJK: Disk-Based J/K Matrices <==

    J tasked:                  Yes
    K tasked:                  Yes
    wK tasked:                  No
    Memory (MB):               183
    Schwarz Cutoff:          0E+00

  Minimum eigenvalue in the overlap matrix is 7.0941751674E-02.
  Using Symmetric Orthogonalization.
  SCF Guess: Core (One-Electron) Hamiltonian.

  Guess energy:   -58.45690657034417

  ==> Iterations <==

                        Total Energy        Delta E     RMS |[F,P]|

	Occupation by irrep:
	         A1    A2    B1    B2 
	DOCC [     4,    0,    1,    0 ]

   @RHF iter   1:   -69.52375765938314   -6.95238e+01   3.07057e-01 
	Occupation by irrep:
	         A1    A2    B1    B2 
	DOCC [     3,    0,    1,    1 ]

   @RHF iter   2:   -71.85517684951171   -2.33142e+00   2.74231e-01 DIIS
   @RHF iter   3:   -75.92563798139383   -4.07046e+00   3.84542e-02 DIIS
   @RHF iter   4:   -75.96607964266616   -4.04417e-02   9.65471e-03 DIIS
   @RHF iter   5:   -75.96950610497851   -3.42646e-03   1.29487e-03 DIIS
   @RHF iter   6:   -75.96967733260479   -1.71228e-04   6.57927e-04 DIIS
   @RHF iter   7:   -75.96970014467664   -2.28121e-05   1.06758e-04 DIIS
   @RHF iter   8:   -75.96970091748250   -7.72806e-07   3.96799e-05 DIIS

  ==> Post-Iterations <==

	Orbital Energies (a.u.)
	-----------------------

	Doubly Occupied:                                                      

	   1A1   -20.579262     2A1    -1.350640     1B1    -0.661232  
	   3A1    -0.582617     1B2    -0.506555  

	Virtual:                                                              

	   4A1     0.188765     2B1     0.283084     3B1     0.982593  
	   2B2     1.158782     5A1     1.162400     6A1     1.248234  
	   4B1     1.353242     7A1     1.744977  

	Final Occupation by Irrep:
	         A1    A2    B1    B2 
	DOCC [     3,    0,    1,    1 ]

  Energy converged.

  @RHF Final Energy:   -75.96970091748250

   => Energetics <=

    Nuclear Repulsion Energy =              8.8410201300833577
    One-Electron Energy =                -122.2621659432866750
    Two-Electron Energy =                  37.4514448957208259
    DFT Exchange-Correlation Energy =       0.0000000000000000
    Empirical Dispersion Energy =           0.0000000000000000
    Total Energy =                        -75.9697009174824842



Properties will be evaluated at   0.000000,   0.000000,   0.000000 Bohr
  ==> Properties <==


Properties computed using the SCF density density matrix
  Nuclear Dipole Moment: (a.u.)
     X:     0.0000      Y:     0.0000      Z:     1.1770

  Electronic Dipole Moment: (a.u.)
     X:     0.0000      Y:     0.0000      Z:    -0.0494

  Dipole Moment: (a.u.)
     X:     0.0000      Y:     0.0000      Z:     1.1276     Total:     1.1276

  Dipole Moment: (Debye)
     X:     0.0000      Y:     0.0000      Z:     2.8661     Total:     2.8661


  Saving occupied orbitals to File 180.

*** tstop() called on Macintosh-132.local at Wed Apr  3 03:47:18 2013
Module time:
	user time   =       0.10 seconds =       0.00 minutes
	system time =       0.01 seconds =       0.00 minutes
	total time  =          0 seconds =       0.00 minutes
Total time:
	user time   =       2.90 seconds =       0.05 minutes
[...]

  ==> Algorithm <==

  SCF Algorithm Type is DF.
  DIIS enabled.
  MOM disabled.
  Fractional occupation disabled.
  Guess Type is CORE.
  Energy threshold   = 1.00e-04
  Density threshold  = 1.00e-03
  Integral threshold = 0.00e+00

  ==> Primary Basis <==

  Basis Set: 6-31G
    Number of shells: 9
    Number of basis function: 13
    Number of Cartesian functions: 13
    Spherical Harmonics?: false
    Max angular momentum: 1

  ==> Pre-Iterations <==

   -------------------------------------------------------
    Irrep   Nso     Nmo     Nalpha   Nbeta   Ndocc  Nsocc
   -------------------------------------------------------
     A1         7       7       0       0       0       0
     A2         0       0       0       0       0       0
     B1         4       4       0       0       0       0
     B2         2       2       0       0       0       0
   -------------------------------------------------------
    Total      13      13       5       5       5       0
   -------------------------------------------------------

  ==> Integral Setup <==

 OEINTS: Wrapper to libmints.
   by Justin Turney

   Calculation information:
      Number of atoms:                   3
      Number of AO shells:               9
      Number of SO shells:               7
      Number of primitives:             22
      Number of atomic orbitals:        13
      Number of basis functions:        13

      Number of irreps:                  4
      Number of functions per irrep: [   7    0    4    2 ]

      Overlap, kinetic, potential, dipole, and quadrupole integrals
        stored in file 35.

  ==> DFJK: Density-Fitted J/K Matrices <==

    J tasked:                  Yes
    K tasked:                  Yes
    wK tasked:                  No
    OpenMP threads:              1
    Integrals threads:           1
    Memory (MB):               183
    Algorithm:                Core
    Integral Cache:           NONE
    Schwarz Cutoff:          0E+00
    Fitting Condition:       1E-12

   => Auxiliary Basis Set <=

  Basis Set: cc-pvdz-jkfit
    Number of shells: 42
    Number of basis function: 131
    Number of Cartesian functions: 131
    Spherical Harmonics?: false
    Max angular momentum: 3

  Minimum eigenvalue in the overlap matrix is 7.0941751674E-02.
  Using Symmetric Orthogonalization.
  SCF Guess: Core (One-Electron) Hamiltonian.

  Guess energy:   -58.45690657034417

  ==> Iterations <==

                        Total Energy        Delta E     RMS |[F,P]|

	Occupation by irrep:
	         A1    A2    B1    B2 
	DOCC [     4,    0,    1,    0 ]

   @RHF iter   1:   -69.52372742218395   -6.95237e+01   3.07064e-01 
	Occupation by irrep:
	         A1    A2    B1    B2 
	DOCC [     3,    0,    1,    1 ]

   @RHF iter   2:   -71.85507755235210   -2.33135e+00   2.74239e-01 DIIS
   @RHF iter   3:   -75.92561080422638   -4.07053e+00   3.84602e-02 DIIS
   @RHF iter   4:   -75.96606425332521   -4.04534e-02   9.65344e-03 DIIS
   @RHF iter   5:   -75.96949036274830   -3.42611e-03   1.29449e-03 DIIS
   @RHF iter   6:   -75.96966156920831   -1.71206e-04   6.58030e-04 DIIS
   @RHF iter   7:   -75.96968438992269   -2.28207e-05   1.06835e-04 DIIS

  ==> Post-Iterations <==

	Orbital Energies (a.u.)
	-----------------------

	Doubly Occupied:                                                      

	   1A1   -20.579650     2A1    -1.350807     1B1    -0.661313  
	   3A1    -0.582827     1B2    -0.506698  

	Virtual:                                                              

	   4A1     0.188761     2B1     0.283098     3B1     0.982658  
	   2B2     1.158705     5A1     1.162393     6A1     1.248191  
	   4B1     1.353251     7A1     1.744959  

	Final Occupation by Irrep:
	         A1    A2    B1    B2 
	DOCC [     3,    0,    1,    1 ]

  Energy converged.

  @RHF Final Energy:   -75.96968438992269

   => Energetics <=

    Nuclear Repulsion Energy =              8.8410201300833577
    One-Electron Energy =                -122.2627618142062431
    Two-Electron Energy =                  37.4520572942001806
    DFT Exchange-Correlation Energy =       0.0000000000000000
    Empirical Dispersion Energy =           0.0000000000000000
    Total Energy =                        -75.9696843899226906



Properties will be evaluated at   0.000000,   0.000000,   0.000000 Bohr
  ==> Properties <==


Properties computed using the SCF density density matrix
  Nuclear Dipole Moment: (a.u.)
     X:     0.0000      Y:     0.0000      Z:     1.1770

  Electronic Dipole Moment: (a.u.)
     X:     0.0000      Y:     0.0000      Z:    -0.0494

  Dipole Moment: (a.u.)
     X:     0.0000      Y:     0.0000      Z:     1.1277     Total:     1.1277

  Dipole Moment: (Debye)
     X:     0.0000      Y:     0.0000      Z:     2.8663     Total:     2.8663


  Saving occupied orbitals to File 180.

*** tstop() called on Macintosh-132.local at Wed Apr  3 03:47:21 2013
Module time:
	user time   =       0.21 seconds =       0.00 minutes
	system time =       0.01 seconds =       0.00 minutes
	total time  =          0 seconds =       0.00 minutes
Total time:
	user time   =       5.24 seconds =       0.09 minutes
	system time =       0.31 seconds =       0.01 minutes
	total time  =          7 seconds =       0.12 minutes

*** tstart() called on Macintosh-132.local
*** at Wed Apr  3 03:47:21 2013

	There are an even number of electrons - assuming singlet.
	Specify the multiplicity with the MULTP option in the
	input if this is incorrect


         ---------------------------------------------------------
                                   SCF
            by Justin Turney, Rob Parrish, and Andy Simmonett
                              RHF Reference
                        1 Threads,    256 MiB Core
         ---------------------------------------------------------

  ==> Geometry <==

    Molecular point group: c2v
    Full point group: C2v

    Geometry (in Angstrom), charge = 0, multiplicity = 1:

       Center              X                  Y                   Z       
    ------------   -----------------  -----------------  -----------------
           O          0.000000000000     0.000000000000    -0.079135765807
           H          0.707106781187     0.000000000000     0.627971015380
           H         -0.707106781187    -0.000000000000     0.627971015380

  Running in c2v symmetry.

  Nuclear repulsion =    8.841020130083358

  Charge       = 0
  Multiplicity = 1
  Electrons    = 10
  Nalpha       = 5
  Nbeta        = 5

  ==> Algorithm <==

  SCF Algorithm Type is PK.
  DIIS enabled.
  MOM disabled.
  Fractional occupation disabled.
  Guess Type is CORE.
  Energy threshold   = 1.00e-04
  Density threshold  = 1.00e-03
  Integral threshold = 0.00e+00

  ==> Primary Basis <==

  Basis Set: 6-31G
    Number of shells: 9
    Number of basis function: 13
    Number of Cartesian functions: 13
    Spherical Harmonics?: false
    Max angular momentum: 1

  ==> Pre-Iterations <==

   -------------------------------------------------------
    Irrep   Nso     Nmo     Nalpha   Nbeta   Ndocc  Nsocc
   -------------------------------------------------------
     A1         7       7       0       0       0       0
     A2         0       0       0       0       0       0
     B1         4       4       0       0       0       0
     B2         2       2       0       0       0       0
   -------------------------------------------------------
    Total      13      13       5       5       5       0
   -------------------------------------------------------

  ==> Integral Setup <==

 MINTS: Wrapper to libmints.
   by Justin Turney

   Calculation information:
      Number of atoms:                   3
      Number of AO shells:               9
      Number of SO shells:               7
      Number of primitives:             22
      Number of atomic orbitals:        13
      Number of basis functions:        13

      Number of irreps:                  4
      Number of functions per irrep: [   7    0    4    2 ]

      Overlap, kinetic, potential, dipole, and quadrupole integrals
        stored in file 35.

      Computing two-electron integrals...done
      Computed 1270 non-zero two-electron integrals.
        Stored in file 33.

	Batch   1 pq = [       0,      41] index = [             0,861]
  ==> DiskJK: Disk-Based J/K Matrices <==

    J tasked:                  Yes
    K tasked:                  Yes
    wK tasked:                  No
    Memory (MB):               183
    Schwarz Cutoff:          0E+00

  Minimum eigenvalue in the overlap matrix is 7.0941751674E-02.
  Using Symmetric Orthogonalization.
  SCF Guess: Core (One-Electron) Hamiltonian.

  Guess energy:   -58.45690657034417

  ==> Iterations <==

                        Total Energy        Delta E     RMS |[F,P]|

	Occupation by irrep:
	         A1    A2    B1    B2 
	DOCC [     4,    0,    1,    0 ]

   @RHF iter   1:   -69.52375765938314   -6.95238e+01   3.07057e-01 
	Occupation by irrep:
	         A1    A2    B1    B2 
	DOCC [     3,    0,    1,    1 ]

   @RHF iter   2:   -71.85517684951171   -2.33142e+00   2.74231e-01 DIIS
   @RHF iter   3:   -75.92563798139383   -4.07046e+00   3.84542e-02 DIIS
   @RHF iter   4:   -75.96607964266616   -4.04417e-02   9.65471e-03 DIIS
   @RHF iter   5:   -75.96950610497851   -3.42646e-03   1.29487e-03 DIIS
   @RHF iter   6:   -75.96967733260479   -1.71228e-04   6.57927e-04 DIIS
   @RHF iter   7:   -75.96970014467664   -2.28121e-05   1.06758e-04 DIIS

  ==> Post-Iterations <==

	Orbital Energies (a.u.)
	-----------------------

	Doubly Occupied:                                                      

	   1A1   -20.579652     2A1    -1.350807     1B1    -0.661316  
	   3A1    -0.582831     1B2    -0.506705  

	Virtual:                                                              

	   4A1     0.188756     2B1     0.283084     3B1     0.982587  
	   2B2     1.158672     5A1     1.162339     6A1     1.248128  
	   4B1     1.353160     7A1     1.744911  

	Final Occupation by Irrep:
	         A1    A2    B1    B2 
	DOCC [     3,    0,    1,    1 ]

  Energy converged.

  @RHF Final Energy:   -75.96970014467664

   => Energetics <=

    Nuclear Repulsion Energy =              8.8410201300833577
    One-Electron Energy =                -122.2627580545255341
    Two-Electron Energy =                  37.4520377797655470
    DFT Exchange-Correlation Energy =       0.0000000000000000
    Empirical Dispersion Energy =           0.0000000000000000
    Total Energy =                        -75.9697001446766222



Properties will be evaluated at   0.000000,   0.000000,   0.000000 Bohr
  ==> Properties <==


Properties computed using the SCF density density matrix
  Nuclear Dipole Moment: (a.u.)
     X:     0.0000      Y:     0.0000      Z:     1.1770

  Electronic Dipole Moment: (a.u.)
     X:     0.0000      Y:     0.0000      Z:    -0.0494

  Dipole Moment: (a.u.)
     X:     0.0000      Y:     0.0000      Z:     1.1277     Total:     1.1277

  Dipole Moment: (Debye)
     X:     0.0000      Y:     0.0000      Z:     2.8663     Total:     2.8663


  Saving occupied orbitals to File 180.

*** tstop() called on Macintosh-132.local at Wed Apr  3 03:47:21 2013
Module time:
	user time   =       0.10 seconds =       0.00 minutes
	system time =       0.01 seconds =       0.00 minutes
	total time  =          0 seconds =       0.00 minutes
Total time:
	user time   =       5.41 seconds =       0.09 minutes
	system time =       0.32 seconds =       0.01 minutes
	total time  =          7 seconds =       0.12 minutes

*** tstart() called on Macintosh-132.local
*** at Wed Apr  3 03:47:21 2013


	**************************************************
	* TRANSQT2: Program to transform integrals from  *
	*           the SO basis to the MO basis.        *
	*                                                *
	*            Daniel, David, & Justin             *
	**************************************************


	Input parameters:
	-----------------
	Wave function   =	DETCI
	Backtransform   =	No
	Print Level     =	1
	Print TEIs      =	No
	Reference wfn   =	RHF
	Derivative      =	None
	Delete TEI File =	Yes
	Memory (Mbytes) =	256.0
	Cache Level     =	2
	Cache Type      =	LRU
	Chkpt Parameters:
	--------------------
	Number of irreps     = 4
	Number of SOs        = 13
	Number of MOs        = 13
	Number of active MOs = 13

	Label	# SOs	# FZDC	# DOCC	# SOCC	# VIRT	# FZVR
	-----	-----	------	------	------	------	------
	 A1	   7	    0	    3	    0	    4	    0
	 A2	   0	    0	    0	    0	    0	    0
	 B1	   4	    0	    1	    0	    3	    0
	 B2	   2	    0	    1	    0	    1	    0

	Nuclear Rep. energy (chkpt) =      8.84102013008336
	SCF energy          (chkpt) =    -75.96970014467664

	Presorting SO-basis two-electron integrals.
	Sorting File: SO Ints (pq,rs) nbuckets = 1
	Frozen-core energy =    0.000000000000000
	Starting first half-transformation.
	Sorting half-transformed integrals.
	Starting second half-transformation.
	Two-electron integral transformation complete.

*** tstop() called on Macintosh-132.local at Wed Apr  3 03:47:21 2013
Module time:
	user time   =       0.00 seconds =       0.00 minutes
	system time =       0.01 seconds =       0.00 minutes
	total time  =          0 seconds =       0.00 minutes
Total time:
	user time   =       5.42 seconds =       0.09 minutes
	system time =       0.33 seconds =       0.01 minutes
	total time  =          7 seconds =       0.12 minutes

*** tstart() called on Macintosh-132.local
*** at Wed Apr  3 03:47:21 2013


*******************************************************
                       D E T C I  

                   C. David Sherrill
                   Matt L. Leininger
                     18 June 1999
*******************************************************




PARAMETERS: 
   EX LEVEL      =        2      H0 BLOCKSIZE =      400
   VAL EX LEVEL  =        0      H0 GUESS SIZE=      400
   H0COUPLINGSIZE=        0      H0 COUPLING  =       no
   NUM PRINT     =       20
   MAXITER       =       12      FREEZE CORE  =      yes
   NUM ROOTS     =        1      ICORE        =        1
   PRINT         =        1      FCI          =       no
   R CONV        =   1.00e-03      MIXED        =      yes
   E CONV        =   1.00e-05      MIXED4       =      yes
   OEI FILE      =       35      R4S          =       no
   REPL OTF      =       no
   TEI FILE      =       72      DIAG METHOD  =      SEM
   PRECONDITIONER= DAVIDSON      UPDATE       =   DAVIDSON
   S             =   0.0000      Ms0          =      yes
   MAX NUM VECS  =       13
   RESTART       =       no
   GUESS VECTOR  =  H0BLOCK      OPENTYPE     =     NONE
   REF SYM       =     auto
   COLLAPSE SIZE =        1      HD AVG       = EVANGELISTI
   LSE           =       no      LSE ITER     =        0
   HD OTF        =      yes      NO DFILE     =       no
   MPN           =       no      MPN SCHMIDT  =       no
   ZAPTN         =       no      MPN WIGNER   =       no
   PERT Z        =   1.0000    FOLLOW ROOT  =        0
   NUM THREADS   =        1
   VECS WRITE    =       no      NUM VECS WRITE =        0
   FILTER GUESS  =       no      SF RESTRICT  =       no
   OPDM          =       no      TRANS DENSITY=       no

   FILES         =  50 51 52 53

   EX ALLOW      =  1  1 
   STATE AVERAGE =  1(1.00) 
   STATE AVERAGE =  1(1.00) 

ORBITALS:
   NMO          =       13      NUM ALP      =        5
   ORBS IN CI   =       13      NUM ALP EXPL =        5
   FROZEN CORE  =        0      NUM BET      =        5
   RESTR CORE   =        0      NUM BET EXPL =        5
   IOPEN        =       no
   RAS1 LVL     =        4      A RAS3 MAX   =        2
   RAS1 MIN     =        8      B RAS3 MAX   =        2
   A RAS1 LVL   =        4      RAS4 LVL     =       13
   A RAS1 MIN   =        3      A RAS4 MAX   =        0
   A RAS1 MAX   =        5      B RAS4 MAX   =        0
   B RAS1 LVL   =        4      RAS4 MAX     =        0
   B RAS1 MIN   =        3      A RAS34 MAX  =        2
   B RAS1 MAX   =        5      B RAS34 MAX  =        2
   RAS3 LVL     =        5      RAS34 MAX    =        2
   RAS3 MAX     =        2

   DOCC         =  3  0  1  1 
   SOCC         =  0  0  0  0 
   FROZEN DOCC  =  0  0  0  0 
   FROZEN UOCC  =  0  0  0  0 
   RAS 1        =  3  0  1  1 
   RAS 2        =  0  0  0  0 
   RAS 3        =  4  0  3  1 
   RAS 4        =  0  0  0  0 
*******************************************************


There are 321 alpha strings
There are 321 beta strings
CI space contains    9 blocks

CI space requires 679 determinants

Check SCF Energy from 1- and 2-electron integrals

SCF Energy (ref):            -75.9697001447
Nuclear repulsion energy:      8.8410201301
One-electron energy:        -122.2621659433
Two-electron energy:          37.4514448957
Frozen core energy:            0.0000000000
Total electronic energy:     -84.8107210476
Total SCF energy:            -75.9697009175

*** Calculated Energy Differs from SCF Energy in CHKPT ! ***

*** H0 Block Eigenvalue = -76.10233787

Find the roots by the Simultaneous Expansion Method (Block Davidson Method)
Energy convergence = 1e-05
RMS CI vector convergence = 0.001

Using 1 initial trial vectors
Iter  0  Root  1 = -76.102337870   Delta_E -8.494E+01   Delta_C  1.829E-01  
Iter  1  Root  1 = -76.104747305   Delta_E -2.409E-03   Delta_C  2.075E-02  
Iter  2  Root  1 = -76.104776579   Delta_E -2.927E-05   Delta_C  2.917E-03  
Iter  3  Root  1 = -76.104778012   Delta_E -1.433E-06   Delta_C  1.564E-03  
Iter  4  Root  1 = -76.104778193   Delta_E -1.808E-07   Delta_C  2.077E-04 c

* ROOT 1 CI total energy = -76.1047781926425


The 20 most important determinants

    1    0.978106  (   70,   70)  1A1X  2A1X  3A1X  1B1X  1B2X  
    2   -0.049689  (   86,   86)  1A1X  2A1X  3A1X  1B1X  2B2X  
    3   -0.049375  (   83,   83)  1A1X  2A1X  3A1X  1B2X  2B1X  
    4   -0.027392  (   71,   83)  1A1X  2A1X  3A1B  1B1A  1B2X  4A1A  2B1B  
    5   -0.027392  (   83,   71)  1A1X  2A1X  3A1A  1B1B  1B2X  4A1B  2B1A  
    6   -0.027173  (   84,   84)  1A1X  2A1X  3A1X  1B2X  3B1X  
    7   -0.027165  (   74,   74)  1A1X  2A1X  1B1X  1B2X  5A1X  
    8   -0.027000  (   77,   77)  1A1X  2A1X  1B1X  1B2X  6A1X  
    9   -0.026281  (   71,   71)  1A1X  2A1X  1B1X  1B2X  4A1X  
   10   -0.026115  (   83,   85)  1A1X  2A1X  3A1X  1B2X  2B1A  4B1B  
   11   -0.026115  (   85,   83)  1A1X  2A1X  3A1X  1B2X  2B1B  4B1A  
   12   -0.026051  (   85,   85)  1A1X  2A1X  3A1X  1B2X  4B1X  
   13    0.025157  (   85,   86)  1A1X  2A1X  3A1X  1B1B  1B2A  4B1A  2B2B  
   14    0.025157  (   86,   85)  1A1X  2A1X  3A1X  1B1A  1B2B  4B1B  2B2A  
   15    0.023856  (   83,   86)  1A1X  2A1X  3A1X  1B1B  1B2A  2B1A  2B2B  
   16    0.023856  (   86,   83)  1A1X  2A1X  3A1X  1B1A  1B2B  2B1B  2B2A  
   17   -0.023570  (   74,   83)  1A1X  2A1X  3A1B  1B1A  1B2X  5A1A  2B1B  
   18   -0.023570  (   83,   74)  1A1X  2A1X  3A1A  1B1B  1B2X  5A1B  2B1A  
   19   -0.022905  (   77,   86)  1A1X  2A1X  3A1B  1B1X  1B2A  6A1A  2B2B  
   20   -0.022905  (   86,   77)  1A1X  2A1X  3A1A  1B1X  1B2B  6A1B  2B2A  




        Total Time (s)     %Time 		%Relative
 -----------------------------------------------------
 Read      0.006605
 Write     0.005247
 Sigma1    0.000727
 Sigma2    0.068755
 Sigma3    0.087415
 S1 Thread 0.000000
 S2 Thread 0.000000
 S3 Thread 0.000000

		 "A good bug is a dead bug" 

			 - Starship Troopers

		 "I didn't write FORTRAN.  That's the problem."

			 - Edward Valeev


*** tstop() called on Macintosh-132.local at Wed Apr  3 03:47:22 2013
Module time:
	user time   =       0.29 seconds =       0.00 minutes
	system time =       0.02 seconds =       0.00 minutes
	total time  =          1 seconds =       0.02 minutes
Total time:
	user time   =       5.72 seconds =       0.10 minutes
	system time =       0.35 seconds =       0.01 minutes
	total time  =          8 seconds =       0.13 minutes

*** PSI4 exiting successfully. Buy a developer a beer!
