    -----------------------------------------------------------------------
          PSI4: An Open-Source Ab Initio Electronic Structure Package
                              PSI 4.0.0-beta4+ Driver

               Git: Rev {efp2} fffcac53d0e09bef21b57b908d35c506c341f0f3

    J. M. Turney, A. C. Simmonett, R. M. Parrish, E. G. Hohenstein,
    F. A. Evangelista, J. T. Fermann, B. J. Mintz, L. A. Burns, J. J. Wilke,
    M. L. Abrams, N. J. Russ, M. L. Leininger, C. L. Janssen, E. T. Seidl,
    W. D. Allen, H. F. Schaefer, R. A. King, E. F. Valeev, C. D. Sherrill,
    and T. D. Crawford, WIREs Comput. Mol. Sci., (2011) (doi: 10.1002/wcms.93)

                         Additional Contributions by
    A. E. DePrince, M. Saitow, U. Bozkaya, A. Yu. Sokolov
    -----------------------------------------------------------------------

    Process ID:  32266
    PSI4DATADIR: /theoryfs2/ds/loriab/chem/psi4_trials/efp/psi4/lib

    Using LocalCommunicator (Number of processes = 1)

    Memory level set to 256.000 MB

  ==> Input File <==

--------------------------------------------------------------------------
#! EFP on mixed QM (water) and EFP (water + 2 * ammonia) system.
#! An EFP-only calc performed first to test vales against q-chem.

memory 200 mb

# Part 1
molecule qmefp {

# QM fragment
0 1
O1    0         0     0.118720
H2   -0.753299, 0.0, -0.474880
H3    0.753299, 0.0, -0.474880

# EFP as EFP fragments
--
efp h2o -2.12417561  1.22597097 -0.95332054 -2.902133 1.734999 -1.953647
--
efp NH3  1.04358758  1.90477190  2.88279926 -1.105309 2.033306 -1.488582
--
efp NH3 -4.16795656 -0.98129149 -1.27785935  2.526442 1.658262 -2.742084

}

set basis 6-31g*
set scf_type cd
set efp_disp_damping tt
set diis 0
set e_convergence 6  # comment out this and d_conv then frep '@RHF' to see final conv problem
set d_convergence 5

scf = energy('scfefp')

print scf
compare_values(-76.0128883676, scf, 6, 'EFP SCF')
clean()

# Part 2
molecule qmefp2 {

# QM fragment
0 1
O1    0         0     0.118720
H2   -0.753299, 0.0, -0.474880
H3    0.753299, 0.0, -0.474880
symmetry c1
}

set basis cc-pvdz

scf = energy('scf')

print scf
compare_values(-76.0266518267, scf, 6, 'Plain SCF')
clean()

# Part 3
molecule qmefp3 {

0 1
O1    0         0     0.118720
H2   -0.753299, 0.0, -0.474880
H3    0.753299, 0.0, -0.474880

--
efp h2o -2.12417561  1.22597097 -0.95332054 -2.902133 1.734999 -1.953647
--
efp NH3  1.04358758  1.90477190  2.88279926 -1.105309 2.033306 -1.488582
--
efp NH3 -4.16795656 -0.98129149 -1.27785935  2.526442 1.658262 -2.742084

}

set basis 6-31g*
set efp_disp off

scf = energy('scfefp')

print scf
compare_values(-76.0112896698, scf, 6, 'EFP SCF')
clean()

# Part 4
psi4.efp_init()
set basis cc-pvdz
activate(qmefp2)

scf = energy('scf')
print scf
compare_values(-76.0266518267, scf, 6, 'Plain SCF activated')
clean()

# Part 5
#molecule efponly {
#efp cl2 0.0 0.0 0.0 0.0 0.0 0.0
#--
#efp cl2 4.0 4.0 4.0 0.0 0.0 0.0
#--
#O -1 -1 -1
#H -2 -1 -1
#H -1 -2 -1
#}
#
#scf = energy('scfefp')
#print scf
#compare_values(-0.000014384511, scf, 5, 'EFP diatom')

print "This passes with scfefp failing at the 3rd decimal. Repair when fixed."
--------------------------------------------------------------------------
in py_psi_efp_init() call prepare_options_for_module efp
DERTYPE NONE
efp constructor calling common_init

  Memory set to 200.000 MiB by Python script.
in py_psi_efp_init() call prepare_options_for_module efp
DERTYPE NONE
efp constructor calling common_init
  EFP fragment h2o read from /theoryfs2/ds/loriab/chem/psi4_trials/efp/psi4/lib/fraglib/h2o.efp
  EFP fragment nh3 read from /theoryfs2/ds/loriab/chem/psi4_trials/efp/psi4/lib/fraglib/nh3.efp
py_psi_efp_set_options
  Elst enabled:             1
  Exch enabled:             1
  Pol  enabled:             1
  Disp enabled:             1
  QM Elst enabled:             1
  QM Pol  enabled:             1


LIBEFP ver. 0.9.9-beta
Copyright (c) 2012-2013 Ilya Kaliman
Project web site: http://www.libefp.org/


  ==> EFP/EFP Setup <==

  Number of EFP fragments:            3
  Electrostatics enabled?:         true
  Polarization enabled?:           true
  Dispersion enabled?:             true
  Exchange enabled?:               true
  Electrostatics damping:        SCREEN
  Polarization damping:              TT
  Dispersion damping:                TT
  Gradient enabled?:              false

  ==> QM/EFP Setup <==

  Number of QM fragments:             1
  Electrostatics enabled?:         true
  Polarization enabled?:           true
  Dispersion enabled?:        undefined
  Exchange enabled?:          undefined

  ==> EFP Geometry <==

    Geometry (in Angstrom):

     Center            X                  Y                  Z        
    --------   -----------------  -----------------  -----------------
       O         -2.180061315667     1.208364808276    -0.976549714819 (EFP   1)
       H         -1.980913116988     1.409865303247    -0.080217106796 (EFP   1)
       H         -1.380491627047     1.321499127883    -1.457760206688 (EFP   1)
       N          1.094111669135     1.930150239256     2.910988759012 (EFP   2)
       H          0.271684897806     2.461656816898     3.109158031469 (EFP   2)
       H          0.942095769466     0.994975233291     3.227998177249 (EFP   2)
       H          1.214982818069     1.905068188701     1.919566986989 (EFP   2)
       N         -4.204275738424    -1.032690434425    -1.272340533869 (EFP   3)
       H         -4.047414879806    -0.610466804181    -0.380556942452 (EFP   3)
       H         -4.636175260192    -0.353779199499    -1.864538503278 (EFP   3)
       H         -3.315648356321    -1.265473654316    -1.665162913909 (EFP   3)

  ==> QM Geometry <==

    Molecular point group: c1
    Full point group: C2v

    Geometry (in Angstrom), charge = 0, multiplicity = 1:

       Center              X                  Y                   Z       
    ------------   -----------------  -----------------  -----------------
           O          0.000000000000     0.000000000000     0.118720000000
           H         -0.753299000000     0.000000000000    -0.474880000000
           H          0.753299000000     0.000000000000    -0.474880000000


*** tstart() called on john2
*** at Thu Aug 15 16:59:39 2013


         ---------------------------------------------------------
                                   SCF
            by Justin Turney, Rob Parrish, and Andy Simmonett
                              RHF Reference
                        2 Threads,    200 MiB Core
         ---------------------------------------------------------

  ==> Geometry <==

    Molecular point group: c1
    Full point group: C2v

    Geometry (in Angstrom), charge = 0, multiplicity = 1:

       Center              X                  Y                   Z       
    ------------   -----------------  -----------------  -----------------
           O          0.000000000000     0.000000000000     0.118720000000
           H         -0.753299000000     0.000000000000    -0.474880000000
           H          0.753299000000     0.000000000000    -0.474880000000

  Running in c1 symmetry.

  Nuclear repulsion =    9.179387883023500

  Charge       = 0
  Multiplicity = 1
  Electrons    = 10
  Nalpha       = 5
  Nbeta        = 5

  ==> Algorithm <==

  SCF Algorithm Type is CD.
  DIIS disabled.
  MOM disabled.
  Fractional occupation disabled.
  Guess Type is CORE.
  Energy threshold   = 1.00e-06
  Density threshold  = 1.00e-05
  Integral threshold = 0.00e+00

  ==> Primary Basis <==

  Basis Set: 6-31G*
    Number of shells: 10
    Number of basis function: 19
    Number of Cartesian functions: 19
    Spherical Harmonics?: false
    Max angular momentum: 2

  ==> Pre-Iterations <==

   -------------------------------------------------------
    Irrep   Nso     Nmo     Nalpha   Nbeta   Ndocc  Nsocc
   -------------------------------------------------------
     A         19      19       0       0       0       0
   -------------------------------------------------------
    Total      19      19       5       5       5       0
   -------------------------------------------------------

 OEINTS: Wrapper to libmints.
   by Justin Turney

   Calculation information:
      Number of atoms:                   3
      Number of AO shells:              10
      Number of SO shells:              10
      Number of primitives:             23
      Number of atomic orbitals:        19
      Number of basis functions:        19

      Number of irreps:                  1
      Number of functions per irrep: [  19 ]

      Overlap, kinetic, potential, dipole, and quadrupole integrals
        stored in file 35.

  ==> Integral Setup <==

  ==> CDJK: Cholesky-decomposed J/K Matrices <==

    J tasked:                     Yes
    K tasked:                     Yes
    wK tasked:                     No
    OpenMP threads:                 2
    Integrals threads:              2
    Memory (MB):                  143
    Algorithm:                   Core
    Integral Cache:              NONE
    Schwarz Cutoff:             1E-12
    Cholesky tolerance:      1.00E-04
    No. Cholesky vectors:          83

  Minimum eigenvalue in the overlap matrix is 2.2347036283E-02.
  Using Symmetric Orthogonalization.
  SCF Guess: Core (One-Electron) Hamiltonian.

  ==> Iterations <==

                        Total Energy        Delta E     RMS |[F,P]|

  Wfn dependent Energy =       -0.0230509905561470 [H]
  ## One-electron Hamiltonion (Symmetry 0) ##
  Irrep: 1 Size: 19 x 19

                 1            2            3            4            5

    1  -33.0445795   -7.3671274    0.0000000    0.0000000    0.0274001
    2   -7.3671274   -9.9231184    0.0000000    0.0000000    0.1863327
    3    0.0000000    0.0000000   -8.5356517    0.0000000    0.0000000
    4    0.0000000    0.0000000    0.0000000   -8.4296986    0.0000000
    5    0.0274001    0.1863327    0.0000000    0.0000000   -8.4954896
    6   -5.3717156   -7.3893093    0.0000000    0.0000000    0.1758765
    7    0.0000000    0.0000000   -3.8205341    0.0000000    0.0000000
    8    0.0000000    0.0000000    0.0000000   -3.7239530    0.0000000
    9    0.0037757    0.1192144    0.0000000    0.0000000   -3.7839245
   10   -1.1014024   -4.7046102    0.0000000    0.0000000    0.1205188
   11    0.0000000    0.0000000    0.0000000    0.0000000    0.0000000
   12    0.0000000    0.0000000    0.1205188    0.0000000    0.0000000
   13   -1.1000374   -4.6119620    0.0000000    0.0000000    0.0646090
   14    0.0000000    0.0000000    0.0000000    0.0646090    0.0000000
   15   -1.1008850   -4.6694914    0.0000000    0.0000000    0.2285440
   16   -1.1230439   -2.3549479    1.7782295    0.0000000    1.4294291
   17   -2.2159446   -3.6244000    0.8964107    0.0000000    0.7888057
   18   -1.1230439   -2.3549479   -1.7782295    0.0000000    1.4294291
   19   -2.2159446   -3.6244000   -0.8964107    0.0000000    0.7888057

                 6            7            8            9           10

    1   -5.3717156    0.0000000    0.0000000    0.0037757   -1.1014024
    2   -7.3893093    0.0000000    0.0000000    0.1192144   -4.7046102
    3    0.0000000   -3.8205341    0.0000000    0.0000000    0.0000000
    4    0.0000000    0.0000000   -3.7239530    0.0000000    0.0000000
    5    0.1758765    0.0000000    0.0000000   -3.7839245    0.1205188
    6   -7.2662638    0.0000000    0.0000000    0.2485265   -4.8453282
    7    0.0000000   -4.7928391    0.0000000    0.0000000    0.0000000
    8    0.0000000    0.0000000   -4.5718834    0.0000000    0.0000000
    9    0.2485265    0.0000000    0.0000000   -4.7090847    0.1728741
   10   -4.8453282    0.0000000    0.0000000    0.1728741   -5.5811186
   11    0.0000000    0.0000000    0.0000000    0.0000000    0.0000000
   12    0.0000000    0.1728741    0.0000000    0.0000000    0.0000000
   13   -4.6866012    0.0000000    0.0000000    0.0761784   -2.5059970
   14    0.0000000    0.0000000    0.0761784    0.0000000    0.0000000
   15   -4.7851619    0.0000000    0.0000000    0.2885779   -2.5846250
   16   -2.9072125    2.4386952    0.0000000    1.9553849   -2.5911436
   17   -4.3744547    1.6659170    0.0000000    1.4582902   -2.9495732
   18   -2.9072125   -2.4386952    0.0000000    1.9553849   -2.5911436
   19   -4.3744547   -1.6659170    0.0000000    1.4582902   -2.9495732

                11           12           13           14           15

    1    0.0000000    0.0000000   -1.1000374    0.0000000   -1.1008850
    2    0.0000000    0.0000000   -4.6119620    0.0000000   -4.6694914
    3    0.0000000    0.1205188    0.0000000    0.0000000    0.0000000
    4    0.0000000    0.0000000    0.0000000    0.0646090    0.0000000
    5    0.0000000    0.0000000    0.0646090    0.0000000    0.2285440
    6    0.0000000    0.0000000   -4.6866012    0.0000000   -4.7851619
    7    0.0000000    0.1728741    0.0000000    0.0000000    0.0000000
    8    0.0000000    0.0000000    0.0000000    0.0761784    0.0000000
    9    0.0000000    0.0000000    0.0761784    0.0000000    0.2885779
   10    0.0000000    0.0000000   -2.5059970    0.0000000   -2.5846250
   11   -1.4393303    0.0000000    0.0000000    0.0000000    0.0000000
   12    0.0000000   -1.5179583    0.0000000    0.0000000    0.0000000
   13    0.0000000    0.0000000   -5.2799056    0.0000000   -2.4927614
   14    0.0000000    0.0000000    0.0000000   -1.4260947    0.0000000
   15    0.0000000    0.0000000   -2.4927614    0.0000000   -5.4453565
   16    0.0000000   -1.0334185   -1.2887779    0.0000000   -2.1268924
   17    0.0000000   -0.2225971   -2.6122768    0.0000000   -2.8506116
   18    0.0000000    1.0334185   -1.2887779    0.0000000   -2.1268924
   19    0.0000000    0.2225971   -2.6122768    0.0000000   -2.8506116

                16           17           18           19

    1   -1.1230439   -2.2159446   -1.1230439   -2.2159446
    2   -2.3549479   -3.6244000   -2.3549479   -3.6244000
    3    1.7782295    0.8964107   -1.7782295   -0.8964107
    4    0.0000000    0.0000000    0.0000000    0.0000000
    5    1.4294291    0.7888057    1.4294291    0.7888057
    6   -2.9072125   -4.3744547   -2.9072125   -4.3744547
    7    2.4386952    1.6659170   -2.4386952   -1.6659170
    8    0.0000000    0.0000000    0.0000000    0.0000000
    9    1.9553849    1.4582902    1.9553849    1.4582902
   10   -2.5911436   -2.9495732   -2.5911436   -2.9495732
   11    0.0000000    0.0000000    0.0000000    0.0000000
   12   -1.0334185   -0.2225971    1.0334185    0.2225971
   13   -1.2887779   -2.6122768   -1.2887779   -2.6122768
   14    0.0000000    0.0000000    0.0000000    0.0000000
   15   -2.1268924   -2.8506116   -2.1268924   -2.8506116
   16   -5.0119586   -3.5633508   -0.4704492   -1.4884850
   17   -3.5633508   -4.5142896   -1.4884850   -2.8209093
   18   -0.4704492   -1.4884850   -5.0119586   -3.5633508
   19   -1.4884850   -2.8209093   -3.5633508   -4.5142896



  ## EFP contribution to the Fock Matrix (Symmetry 0) ##
  Irrep: 1 Size: 19 x 19

                 1            2            3            4            5

    1   -0.0251495   -0.0058772   -0.0001017   -0.0006287   -0.0001821
    2   -0.0058772   -0.0251495   -0.0006938   -0.0042897   -0.0012421
    3   -0.0001017   -0.0006938   -0.0245613    0.0003493    0.0003015
    4   -0.0006287   -0.0042897    0.0003493   -0.0254981    0.0000754
    5   -0.0001821   -0.0012421    0.0003015    0.0000754   -0.0250896
    6   -0.0042070   -0.0192052   -0.0006749   -0.0041731   -0.0012084
    7   -0.0000140   -0.0004603   -0.0120907    0.0003594    0.0003102
    8   -0.0000866   -0.0028458    0.0003594   -0.0130545    0.0000776
    9   -0.0000251   -0.0008240    0.0003102    0.0000776   -0.0125513
   10   -0.0008377   -0.0133667   -0.0010879   -0.0019875   -0.0007412
   11    0.0000044    0.0003121   -0.0019694   -0.0001847   -0.0000053
   12    0.0000038    0.0002694   -0.0007581   -0.0000053   -0.0003491
   13   -0.0008496   -0.0142038   -0.0001760   -0.0057677   -0.0005092
   14    0.0000010    0.0000674   -0.0000053   -0.0005261   -0.0019252
   15   -0.0008425   -0.0137049   -0.0003491   -0.0019252   -0.0015610
   16   -0.0008613   -0.0053403    0.0043391   -0.0010984    0.0033981
   17   -0.0017260   -0.0092410    0.0022716   -0.0022960    0.0014982
   18   -0.0008727   -0.0061159   -0.0056168   -0.0008711    0.0041707
   19   -0.0017314   -0.0095061   -0.0031969   -0.0021113    0.0017207

                 6            7            8            9           10

    1   -0.0042070   -0.0000140   -0.0000866   -0.0000251   -0.0008377
    2   -0.0192052   -0.0004603   -0.0028458   -0.0008240   -0.0133667
    3   -0.0006749   -0.0120907    0.0003594    0.0003102   -0.0010625
    4   -0.0041731    0.0003594   -0.0130545    0.0000776   -0.0019875
    5   -0.0012084    0.0003102    0.0000776   -0.0125513   -0.0007412
    6   -0.0251494   -0.0013463   -0.0083203   -0.0024095   -0.0167526
    7   -0.0013463   -0.0226848    0.0018667    0.0016131   -0.0017259
    8   -0.0083203    0.0018667   -0.0276959    0.0004031   -0.0030593
    9   -0.0024095    0.0016131    0.0004031   -0.0248281   -0.0013354
   10   -0.0167526   -0.0017622   -0.0030593   -0.0013354   -0.0233950
   11    0.0006592   -0.0030345   -0.0001114   -0.0000145    0.0006121
   12    0.0005691   -0.0013589   -0.0000145   -0.0005699    0.0006609
   13   -0.0185204   -0.0001003   -0.0086886   -0.0007059   -0.0085020
   14    0.0001424   -0.0000145   -0.0007295   -0.0028904   -0.0000031
   15   -0.0174667   -0.0005699   -0.0028904   -0.0022086   -0.0080472
   16   -0.0069684    0.0049016   -0.0022717    0.0044799   -0.0065838
   17   -0.0152409    0.0045324   -0.0081130    0.0033657   -0.0094462
   18   -0.0102608   -0.0108894   -0.0015640    0.0083134   -0.0098839
   19   -0.0169208   -0.0097610   -0.0064038    0.0058288   -0.0107434

                11           12           13           14           15

    1    0.0000044    0.0000038   -0.0008496    0.0000010   -0.0008425
    2    0.0003121    0.0002694   -0.0142038    0.0000674   -0.0137049
    3   -0.0019769   -0.0007412   -0.0001760   -0.0000053   -0.0003491
    4   -0.0001847   -0.0000053   -0.0057753   -0.0005092   -0.0019252
    5   -0.0000053   -0.0003491   -0.0005092   -0.0019252   -0.0015610
    6    0.0006592    0.0005691   -0.0185204    0.0001424   -0.0174667
    7   -0.0030454   -0.0013354   -0.0001003   -0.0000145   -0.0005699
    8   -0.0001114   -0.0000145   -0.0086994   -0.0007059   -0.0028904
    9   -0.0000145   -0.0005699   -0.0007059   -0.0028904   -0.0022086
   10    0.0006061    0.0006463   -0.0085020   -0.0000031   -0.0080472
   11   -0.0084459   -0.0000031    0.0006452    0.0001434    0.0001953
   12   -0.0000096   -0.0080031    0.0001434    0.0001953    0.0004805
   13    0.0006455    0.0001434   -0.0267522    0.0001414   -0.0086501
   14    0.0001507    0.0001953    0.0001284   -0.0086061    0.0001796
   15    0.0001953    0.0004805   -0.0086501    0.0001796   -0.0249659
   16    0.0011693   -0.0024805   -0.0038703    0.0008539   -0.0058120
   17    0.0013201    0.0002106   -0.0104325    0.0007682   -0.0098511
   18   -0.0007151    0.0044677   -0.0042161    0.0006567   -0.0074720
   19   -0.0003940    0.0009713   -0.0105101    0.0006954   -0.0103630

                16           17           18           19

    1   -0.0008613   -0.0017260   -0.0008727   -0.0017314
    2   -0.0053403   -0.0092410   -0.0061159   -0.0095061
    3    0.0043391    0.0022716   -0.0056168   -0.0031969
    4   -0.0010984   -0.0022960   -0.0008711   -0.0021113
    5    0.0033981    0.0014982    0.0041707    0.0017207
    6   -0.0069684   -0.0152409   -0.0102608   -0.0169208
    7    0.0049016    0.0045324   -0.0108894   -0.0097610
    8   -0.0022717   -0.0081130   -0.0015640   -0.0064038
    9    0.0044799    0.0033657    0.0083134    0.0058288
   10   -0.0065838   -0.0094462   -0.0098839   -0.0107434
   11    0.0011693    0.0013201   -0.0007151   -0.0003940
   12   -0.0024805    0.0002106    0.0044677    0.0009713
   13   -0.0038703   -0.0104325   -0.0042161   -0.0105101
   14    0.0008539    0.0007682    0.0006567    0.0006954
   15   -0.0058120   -0.0098511   -0.0074720   -0.0103630
   16   -0.0080983   -0.0053344   -0.0011979   -0.0037374
   17   -0.0053344   -0.0091648   -0.0053689   -0.0117547
   18   -0.0011979   -0.0053689   -0.0231772   -0.0152574
   19   -0.0037374   -0.0117547   -0.0152574   -0.0231736



  Wfn dependent Energy =       -0.0230509905561470 [H]
   @RHF iter   1:   -69.17961217251381   -6.91796e+01   1.74012e-01 
  ## One-electron Hamiltonion (Symmetry 0) ##
  Irrep: 1 Size: 19 x 19

                 1            2            3            4            5

    1  -33.0445795   -7.3671274    0.0000000    0.0000000    0.0274001
    2   -7.3671274   -9.9231184    0.0000000    0.0000000    0.1863327
    3    0.0000000    0.0000000   -8.5356517    0.0000000    0.0000000
    4    0.0000000    0.0000000    0.0000000   -8.4296986    0.0000000
    5    0.0274001    0.1863327    0.0000000    0.0000000   -8.4954896
    6   -5.3717156   -7.3893093    0.0000000    0.0000000    0.1758765
    7    0.0000000    0.0000000   -3.8205341    0.0000000    0.0000000
    8    0.0000000    0.0000000    0.0000000   -3.7239530    0.0000000
    9    0.0037757    0.1192144    0.0000000    0.0000000   -3.7839245
   10   -1.1014024   -4.7046102    0.0000000    0.0000000    0.1205188
   11    0.0000000    0.0000000    0.0000000    0.0000000    0.0000000
   12    0.0000000    0.0000000    0.1205188    0.0000000    0.0000000
   13   -1.1000374   -4.6119620    0.0000000    0.0000000    0.0646090
   14    0.0000000    0.0000000    0.0000000    0.0646090    0.0000000
   15   -1.1008850   -4.6694914    0.0000000    0.0000000    0.2285440
   16   -1.1230439   -2.3549479    1.7782295    0.0000000    1.4294291
   17   -2.2159446   -3.6244000    0.8964107    0.0000000    0.7888057
   18   -1.1230439   -2.3549479   -1.7782295    0.0000000    1.4294291
   19   -2.2159446   -3.6244000   -0.8964107    0.0000000    0.7888057

                 6            7            8            9           10

    1   -5.3717156    0.0000000    0.0000000    0.0037757   -1.1014024
    2   -7.3893093    0.0000000    0.0000000    0.1192144   -4.7046102
    3    0.0000000   -3.8205341    0.0000000    0.0000000    0.0000000
    4    0.0000000    0.0000000   -3.7239530    0.0000000    0.0000000
    5    0.1758765    0.0000000    0.0000000   -3.7839245    0.1205188
    6   -7.2662638    0.0000000    0.0000000    0.2485265   -4.8453282
    7    0.0000000   -4.7928391    0.0000000    0.0000000    0.0000000
    8    0.0000000    0.0000000   -4.5718834    0.0000000    0.0000000
    9    0.2485265    0.0000000    0.0000000   -4.7090847    0.1728741
   10   -4.8453282    0.0000000    0.0000000    0.1728741   -5.5811186
   11    0.0000000    0.0000000    0.0000000    0.0000000    0.0000000
   12    0.0000000    0.1728741    0.0000000    0.0000000    0.0000000
   13   -4.6866012    0.0000000    0.0000000    0.0761784   -2.5059970
   14    0.0000000    0.0000000    0.0761784    0.0000000    0.0000000
   15   -4.7851619    0.0000000    0.0000000    0.2885779   -2.5846250
   16   -2.9072125    2.4386952    0.0000000    1.9553849   -2.5911436
   17   -4.3744547    1.6659170    0.0000000    1.4582902   -2.9495732
   18   -2.9072125   -2.4386952    0.0000000    1.9553849   -2.5911436
   19   -4.3744547   -1.6659170    0.0000000    1.4582902   -2.9495732

                11           12           13           14           15

    1    0.0000000    0.0000000   -1.1000374    0.0000000   -1.1008850
    2    0.0000000    0.0000000   -4.6119620    0.0000000   -4.6694914
    3    0.0000000    0.1205188    0.0000000    0.0000000    0.0000000
    4    0.0000000    0.0000000    0.0000000    0.0646090    0.0000000
    5    0.0000000    0.0000000    0.0646090    0.0000000    0.2285440
    6    0.0000000    0.0000000   -4.6866012    0.0000000   -4.7851619
    7    0.0000000    0.1728741    0.0000000    0.0000000    0.0000000
    8    0.0000000    0.0000000    0.0000000    0.0761784    0.0000000
    9    0.0000000    0.0000000    0.0761784    0.0000000    0.2885779
   10    0.0000000    0.0000000   -2.5059970    0.0000000   -2.5846250
   11   -1.4393303    0.0000000    0.0000000    0.0000000    0.0000000
   12    0.0000000   -1.5179583    0.0000000    0.0000000    0.0000000
   13    0.0000000    0.0000000   -5.2799056    0.0000000   -2.4927614
   14    0.0000000    0.0000000    0.0000000   -1.4260947    0.0000000
   15    0.0000000    0.0000000   -2.4927614    0.0000000   -5.4453565
   16    0.0000000   -1.0334185   -1.2887779    0.0000000   -2.1268924
   17    0.0000000   -0.2225971   -2.6122768    0.0000000   -2.8506116
   18    0.0000000    1.0334185   -1.2887779    0.0000000   -2.1268924
   19    0.0000000    0.2225971   -2.6122768    0.0000000   -2.8506116

                16           17           18           19

    1   -1.1230439   -2.2159446   -1.1230439   -2.2159446
    2   -2.3549479   -3.6244000   -2.3549479   -3.6244000
    3    1.7782295    0.8964107   -1.7782295   -0.8964107
    4    0.0000000    0.0000000    0.0000000    0.0000000
    5    1.4294291    0.7888057    1.4294291    0.7888057
    6   -2.9072125   -4.3744547   -2.9072125   -4.3744547
    7    2.4386952    1.6659170   -2.4386952   -1.6659170
    8    0.0000000    0.0000000    0.0000000    0.0000000
    9    1.9553849    1.4582902    1.9553849    1.4582902
   10   -2.5911436   -2.9495732   -2.5911436   -2.9495732
   11    0.0000000    0.0000000    0.0000000    0.0000000
   12   -1.0334185   -0.2225971    1.0334185    0.2225971
   13   -1.2887779   -2.6122768   -1.2887779   -2.6122768
   14    0.0000000    0.0000000    0.0000000    0.0000000
   15   -2.1268924   -2.8506116   -2.1268924   -2.8506116
   16   -5.0119586   -3.5633508   -0.4704492   -1.4884850
   17   -3.5633508   -4.5142896   -1.4884850   -2.8209093
   18   -0.4704492   -1.4884850   -5.0119586   -3.5633508
   19   -1.4884850   -2.8209093   -3.5633508   -4.5142896



  ## EFP contribution to the Fock Matrix (Symmetry 0) ##
  Irrep: 1 Size: 19 x 19

                 1            2            3            4            5

    1   -0.0251495   -0.0058772   -0.0001017   -0.0006287   -0.0001821
    2   -0.0058772   -0.0251495   -0.0006938   -0.0042897   -0.0012421
    3   -0.0001017   -0.0006938   -0.0245613    0.0003493    0.0003015
    4   -0.0006287   -0.0042897    0.0003493   -0.0254981    0.0000754
    5   -0.0001821   -0.0012421    0.0003015    0.0000754   -0.0250896
    6   -0.0042070   -0.0192052   -0.0006749   -0.0041731   -0.0012084
    7   -0.0000140   -0.0004603   -0.0120907    0.0003594    0.0003102
    8   -0.0000866   -0.0028458    0.0003594   -0.0130545    0.0000776
    9   -0.0000251   -0.0008240    0.0003102    0.0000776   -0.0125513
   10   -0.0008377   -0.0133667   -0.0010879   -0.0019875   -0.0007412
   11    0.0000044    0.0003121   -0.0019694   -0.0001847   -0.0000053
   12    0.0000038    0.0002694   -0.0007581   -0.0000053   -0.0003491
   13   -0.0008496   -0.0142038   -0.0001760   -0.0057677   -0.0005092
   14    0.0000010    0.0000674   -0.0000053   -0.0005261   -0.0019252
   15   -0.0008425   -0.0137049   -0.0003491   -0.0019252   -0.0015610
   16   -0.0008613   -0.0053403    0.0043391   -0.0010984    0.0033981
   17   -0.0017260   -0.0092410    0.0022716   -0.0022960    0.0014982
   18   -0.0008727   -0.0061159   -0.0056168   -0.0008711    0.0041707
   19   -0.0017314   -0.0095061   -0.0031969   -0.0021113    0.0017207

                 6            7            8            9           10

    1   -0.0042070   -0.0000140   -0.0000866   -0.0000251   -0.0008377
    2   -0.0192052   -0.0004603   -0.0028458   -0.0008240   -0.0133667
    3   -0.0006749   -0.0120907    0.0003594    0.0003102   -0.0010625
    4   -0.0041731    0.0003594   -0.0130545    0.0000776   -0.0019875
    5   -0.0012084    0.0003102    0.0000776   -0.0125513   -0.0007412
    6   -0.0251494   -0.0013463   -0.0083203   -0.0024095   -0.0167526
    7   -0.0013463   -0.0226848    0.0018667    0.0016131   -0.0017259
    8   -0.0083203    0.0018667   -0.0276959    0.0004031   -0.0030593
    9   -0.0024095    0.0016131    0.0004031   -0.0248281   -0.0013354
   10   -0.0167526   -0.0017622   -0.0030593   -0.0013354   -0.0233950
   11    0.0006592   -0.0030345   -0.0001114   -0.0000145    0.0006121
   12    0.0005691   -0.0013589   -0.0000145   -0.0005699    0.0006609
   13   -0.0185204   -0.0001003   -0.0086886   -0.0007059   -0.0085020
   14    0.0001424   -0.0000145   -0.0007295   -0.0028904   -0.0000031
   15   -0.0174667   -0.0005699   -0.0028904   -0.0022086   -0.0080472
   16   -0.0069684    0.0049016   -0.0022717    0.0044799   -0.0065838
   17   -0.0152409    0.0045324   -0.0081130    0.0033657   -0.0094462
   18   -0.0102608   -0.0108894   -0.0015640    0.0083134   -0.0098839
   19   -0.0169208   -0.0097610   -0.0064038    0.0058288   -0.0107434

                11           12           13           14           15

    1    0.0000044    0.0000038   -0.0008496    0.0000010   -0.0008425
    2    0.0003121    0.0002694   -0.0142038    0.0000674   -0.0137049
    3   -0.0019769   -0.0007412   -0.0001760   -0.0000053   -0.0003491
    4   -0.0001847   -0.0000053   -0.0057753   -0.0005092   -0.0019252
    5   -0.0000053   -0.0003491   -0.0005092   -0.0019252   -0.0015610
    6    0.0006592    0.0005691   -0.0185204    0.0001424   -0.0174667
    7   -0.0030454   -0.0013354   -0.0001003   -0.0000145   -0.0005699
    8   -0.0001114   -0.0000145   -0.0086994   -0.0007059   -0.0028904
    9   -0.0000145   -0.0005699   -0.0007059   -0.0028904   -0.0022086
   10    0.0006061    0.0006463   -0.0085020   -0.0000031   -0.0080472
   11   -0.0084459   -0.0000031    0.0006452    0.0001434    0.0001953
   12   -0.0000096   -0.0080031    0.0001434    0.0001953    0.0004805
   13    0.0006455    0.0001434   -0.0267522    0.0001414   -0.0086501
   14    0.0001507    0.0001953    0.0001284   -0.0086061    0.0001796
   15    0.0001953    0.0004805   -0.0086501    0.0001796   -0.0249659
   16    0.0011693   -0.0024805   -0.0038703    0.0008539   -0.0058120
   17    0.0013201    0.0002106   -0.0104325    0.0007682   -0.0098511
   18   -0.0007151    0.0044677   -0.0042161    0.0006567   -0.0074720
   19   -0.0003940    0.0009713   -0.0105101    0.0006954   -0.0103630

                16           17           18           19

    1   -0.0008613   -0.0017260   -0.0008727   -0.0017314
    2   -0.0053403   -0.0092410   -0.0061159   -0.0095061
    3    0.0043391    0.0022716   -0.0056168   -0.0031969
    4   -0.0010984   -0.0022960   -0.0008711   -0.0021113
    5    0.0033981    0.0014982    0.0041707    0.0017207
    6   -0.0069684   -0.0152409   -0.0102608   -0.0169208
    7    0.0049016    0.0045324   -0.0108894   -0.0097610
    8   -0.0022717   -0.0081130   -0.0015640   -0.0064038
    9    0.0044799    0.0033657    0.0083134    0.0058288
   10   -0.0065838   -0.0094462   -0.0098839   -0.0107434
   11    0.0011693    0.0013201   -0.0007151   -0.0003940
   12   -0.0024805    0.0002106    0.0044677    0.0009713
   13   -0.0038703   -0.0104325   -0.0042161   -0.0105101
   14    0.0008539    0.0007682    0.0006567    0.0006954
   15   -0.0058120   -0.0098511   -0.0074720   -0.0103630
   16   -0.0080983   -0.0053344   -0.0011979   -0.0037374
   17   -0.0053344   -0.0091648   -0.0053689   -0.0117547
   18   -0.0011979   -0.0053689   -0.0231772   -0.0152574
   19   -0.0037374   -0.0117547   -0.0152574   -0.0231736



  Wfn dependent Energy =        0.0483278449338025 [H]
   @RHF iter   2:   -71.92539725144499   -2.74579e+00   1.25869e-01 
  ## One-electron Hamiltonion (Symmetry 0) ##
  Irrep: 1 Size: 19 x 19

                 1            2            3            4            5

    1  -33.0445795   -7.3671274    0.0000000    0.0000000    0.0274001
    2   -7.3671274   -9.9231184    0.0000000    0.0000000    0.1863327
    3    0.0000000    0.0000000   -8.5356517    0.0000000    0.0000000
    4    0.0000000    0.0000000    0.0000000   -8.4296986    0.0000000
    5    0.0274001    0.1863327    0.0000000    0.0000000   -8.4954896
    6   -5.3717156   -7.3893093    0.0000000    0.0000000    0.1758765
    7    0.0000000    0.0000000   -3.8205341    0.0000000    0.0000000
    8    0.0000000    0.0000000    0.0000000   -3.7239530    0.0000000
    9    0.0037757    0.1192144    0.0000000    0.0000000   -3.7839245
   10   -1.1014024   -4.7046102    0.0000000    0.0000000    0.1205188
   11    0.0000000    0.0000000    0.0000000    0.0000000    0.0000000
   12    0.0000000    0.0000000    0.1205188    0.0000000    0.0000000
   13   -1.1000374   -4.6119620    0.0000000    0.0000000    0.0646090
   14    0.0000000    0.0000000    0.0000000    0.0646090    0.0000000
   15   -1.1008850   -4.6694914    0.0000000    0.0000000    0.2285440
   16   -1.1230439   -2.3549479    1.7782295    0.0000000    1.4294291
   17   -2.2159446   -3.6244000    0.8964107    0.0000000    0.7888057
   18   -1.1230439   -2.3549479   -1.7782295    0.0000000    1.4294291
   19   -2.2159446   -3.6244000   -0.8964107    0.0000000    0.7888057

                 6            7            8            9           10

    1   -5.3717156    0.0000000    0.0000000    0.0037757   -1.1014024
    2   -7.3893093    0.0000000    0.0000000    0.1192144   -4.7046102
    3    0.0000000   -3.8205341    0.0000000    0.0000000    0.0000000
    4    0.0000000    0.0000000   -3.7239530    0.0000000    0.0000000
    5    0.1758765    0.0000000    0.0000000   -3.7839245    0.1205188
    6   -7.2662638    0.0000000    0.0000000    0.2485265   -4.8453282
    7    0.0000000   -4.7928391    0.0000000    0.0000000    0.0000000
    8    0.0000000    0.0000000   -4.5718834    0.0000000    0.0000000
    9    0.2485265    0.0000000    0.0000000   -4.7090847    0.1728741
   10   -4.8453282    0.0000000    0.0000000    0.1728741   -5.5811186
   11    0.0000000    0.0000000    0.0000000    0.0000000    0.0000000
   12    0.0000000    0.1728741    0.0000000    0.0000000    0.0000000
   13   -4.6866012    0.0000000    0.0000000    0.0761784   -2.5059970
   14    0.0000000    0.0000000    0.0761784    0.0000000    0.0000000
   15   -4.7851619    0.0000000    0.0000000    0.2885779   -2.5846250
   16   -2.9072125    2.4386952    0.0000000    1.9553849   -2.5911436
   17   -4.3744547    1.6659170    0.0000000    1.4582902   -2.9495732
   18   -2.9072125   -2.4386952    0.0000000    1.9553849   -2.5911436
   19   -4.3744547   -1.6659170    0.0000000    1.4582902   -2.9495732

                11           12           13           14           15

    1    0.0000000    0.0000000   -1.1000374    0.0000000   -1.1008850
    2    0.0000000    0.0000000   -4.6119620    0.0000000   -4.6694914
    3    0.0000000    0.1205188    0.0000000    0.0000000    0.0000000
    4    0.0000000    0.0000000    0.0000000    0.0646090    0.0000000
    5    0.0000000    0.0000000    0.0646090    0.0000000    0.2285440
    6    0.0000000    0.0000000   -4.6866012    0.0000000   -4.7851619
    7    0.0000000    0.1728741    0.0000000    0.0000000    0.0000000
    8    0.0000000    0.0000000    0.0000000    0.0761784    0.0000000
    9    0.0000000    0.0000000    0.0761784    0.0000000    0.2885779
   10    0.0000000    0.0000000   -2.5059970    0.0000000   -2.5846250
   11   -1.4393303    0.0000000    0.0000000    0.0000000    0.0000000
   12    0.0000000   -1.5179583    0.0000000    0.0000000    0.0000000
   13    0.0000000    0.0000000   -5.2799056    0.0000000   -2.4927614
   14    0.0000000    0.0000000    0.0000000   -1.4260947    0.0000000
   15    0.0000000    0.0000000   -2.4927614    0.0000000   -5.4453565
   16    0.0000000   -1.0334185   -1.2887779    0.0000000   -2.1268924
   17    0.0000000   -0.2225971   -2.6122768    0.0000000   -2.8506116
   18    0.0000000    1.0334185   -1.2887779    0.0000000   -2.1268924
   19    0.0000000    0.2225971   -2.6122768    0.0000000   -2.8506116

                16           17           18           19

    1   -1.1230439   -2.2159446   -1.1230439   -2.2159446
    2   -2.3549479   -3.6244000   -2.3549479   -3.6244000
    3    1.7782295    0.8964107   -1.7782295   -0.8964107
    4    0.0000000    0.0000000    0.0000000    0.0000000
    5    1.4294291    0.7888057    1.4294291    0.7888057
    6   -2.9072125   -4.3744547   -2.9072125   -4.3744547
    7    2.4386952    1.6659170   -2.4386952   -1.6659170
    8    0.0000000    0.0000000    0.0000000    0.0000000
    9    1.9553849    1.4582902    1.9553849    1.4582902
   10   -2.5911436   -2.9495732   -2.5911436   -2.9495732
   11    0.0000000    0.0000000    0.0000000    0.0000000
   12   -1.0334185   -0.2225971    1.0334185    0.2225971
   13   -1.2887779   -2.6122768   -1.2887779   -2.6122768
   14    0.0000000    0.0000000    0.0000000    0.0000000
   15   -2.1268924   -2.8506116   -2.1268924   -2.8506116
   16   -5.0119586   -3.5633508   -0.4704492   -1.4884850
   17   -3.5633508   -4.5142896   -1.4884850   -2.8209093
   18   -0.4704492   -1.4884850   -5.0119586   -3.5633508
   19   -1.4884850   -2.8209093   -3.5633508   -4.5142896



  ## EFP contribution to the Fock Matrix (Symmetry 0) ##
  Irrep: 1 Size: 19 x 19

                 1            2            3            4            5

    1   -0.0290108   -0.0067795    0.0001628   -0.0004702    0.0003378
    2   -0.0067795   -0.0290108    0.0011109   -0.0032080    0.0023049
    3    0.0001628    0.0011109   -0.0286284    0.0003334   -0.0001362
    4   -0.0004702   -0.0032080    0.0003334   -0.0290380    0.0003588
    5    0.0003378    0.0023049   -0.0001362    0.0003588   -0.0290663
    6   -0.0048529   -0.0221538    0.0010807   -0.0031208    0.0022422
    7    0.0000224    0.0007370   -0.0142390    0.0003430   -0.0001401
    8   -0.0000648   -0.0021281    0.0003430   -0.0146604    0.0003692
    9    0.0000466    0.0015290   -0.0001401    0.0003692   -0.0146066
   10   -0.0009698   -0.0156630    0.0013517   -0.0014925    0.0009568
   11    0.0000042    0.0002979   -0.0014744    0.0005621   -0.0000496
   12   -0.0000017   -0.0001217    0.0009398   -0.0000496    0.0005491
   13   -0.0009750   -0.0160290    0.0005708   -0.0042711    0.0010761
   14    0.0000046    0.0003206   -0.0000496    0.0010592   -0.0014685
   15   -0.0009735   -0.0159204    0.0005491   -0.0014685    0.0031839
   16   -0.0010303   -0.0080424    0.0073765   -0.0009661    0.0063041
   17   -0.0020095   -0.0114807    0.0040061   -0.0018069    0.0039747
   18   -0.0010137   -0.0072737   -0.0062297   -0.0006940    0.0056562
   19   -0.0020011   -0.0111112   -0.0027337   -0.0016191    0.0038143

                 6            7            8            9           10

    1   -0.0048529    0.0000224   -0.0000648    0.0000466   -0.0009698
    2   -0.0221538    0.0007370   -0.0021281    0.0015290   -0.0156630
    3    0.0010807   -0.0142390    0.0003430   -0.0001401    0.0013771
    4   -0.0031208    0.0003430   -0.0146604    0.0003692   -0.0014925
    5    0.0022422   -0.0001401    0.0003692   -0.0146066    0.0009568
    6   -0.0290106    0.0021542   -0.0062220    0.0044705   -0.0198401
    7    0.0021542   -0.0276468    0.0017815   -0.0007277    0.0019485
    8   -0.0062220    0.0017815   -0.0298380    0.0019184   -0.0023047
    9    0.0044705   -0.0007277    0.0019184   -0.0293066    0.0013422
   10   -0.0198401    0.0019122   -0.0023047    0.0013422   -0.0279898
   11    0.0006292   -0.0022799    0.0009333   -0.0001347    0.0005753
   12   -0.0002570    0.0013187   -0.0001347    0.0008856   -0.0001652
   13   -0.0206130    0.0009445   -0.0063929    0.0016661   -0.0096879
   14    0.0006771   -0.0001347    0.0016426   -0.0022396    0.0001953
   15   -0.0203837    0.0008856   -0.0022396    0.0048777   -0.0095690
   16   -0.0145721    0.0152640   -0.0024611    0.0136858   -0.0132009
   17   -0.0218953    0.0130487   -0.0071013    0.0138598   -0.0133883
   18   -0.0123268   -0.0122905   -0.0012941    0.0111452   -0.0110816
   19   -0.0200704   -0.0083594   -0.0051107    0.0121003   -0.0122266

                11           12           13           14           15

    1    0.0000042   -0.0000017   -0.0009750    0.0000046   -0.0009735
    2    0.0002979   -0.0001217   -0.0160290    0.0003206   -0.0159204
    3   -0.0014819    0.0009568    0.0005708   -0.0000496    0.0005491
    4    0.0005621   -0.0000496   -0.0042786    0.0010761   -0.0014685
    5   -0.0000496    0.0005491    0.0010761   -0.0014685    0.0031839
    6    0.0006292   -0.0002570   -0.0206130    0.0006771   -0.0203837
    7   -0.0022907    0.0013422    0.0009445   -0.0001347    0.0008856
    8    0.0009333   -0.0001347   -0.0064038    0.0016661   -0.0022396
    9   -0.0001347    0.0008856    0.0016661   -0.0022396    0.0048777
   10    0.0005693   -0.0001798   -0.0096879    0.0001953   -0.0095690
   11   -0.0096319    0.0001953    0.0005879   -0.0001097    0.0002224
   12    0.0001888   -0.0095249   -0.0001097    0.0002224   -0.0002841
   13    0.0005883   -0.0001097   -0.0294784    0.0006266   -0.0098195
   14   -0.0001024    0.0002224    0.0006137   -0.0097755    0.0006896
   15    0.0002224   -0.0002841   -0.0098195    0.0006896   -0.0291967
   16    0.0011342   -0.0068638   -0.0056007    0.0009639   -0.0113800
   17    0.0011631   -0.0017782   -0.0124621    0.0010464   -0.0138686
   18   -0.0005471    0.0055336   -0.0049227    0.0006061   -0.0098937
   19   -0.0002052    0.0009739   -0.0118747    0.0008740   -0.0132156

                16           17           18           19

    1   -0.0010303   -0.0020095   -0.0010137   -0.0020011
    2   -0.0080424   -0.0114807   -0.0072737   -0.0111112
    3    0.0073765    0.0040061   -0.0062297   -0.0027337
    4   -0.0009661   -0.0018069   -0.0006940   -0.0016191
    5    0.0063041    0.0039747    0.0056562    0.0038143
    6   -0.0145721   -0.0218953   -0.0123268   -0.0200704
    7    0.0152640    0.0130487   -0.0122905   -0.0083594
    8   -0.0024611   -0.0071013   -0.0012941   -0.0051107
    9    0.0136858    0.0138598    0.0111452    0.0121003
   10   -0.0132009   -0.0133883   -0.0110816   -0.0122266
   11    0.0011342    0.0011631   -0.0005471   -0.0002052
   12   -0.0068638   -0.0017782    0.0055336    0.0009739
   13   -0.0056007   -0.0124621   -0.0049227   -0.0118747
   14    0.0009639    0.0010464    0.0006061    0.0008740
   15   -0.0113800   -0.0138686   -0.0098937   -0.0132156
   16   -0.0345613   -0.0227512   -0.0018395   -0.0082492
   17   -0.0227512   -0.0344308   -0.0069349   -0.0179288
   18   -0.0018395   -0.0069349   -0.0279965   -0.0184299
   19   -0.0082492   -0.0179288   -0.0184299   -0.0279921



  Wfn dependent Energy =       -0.0201428309949214 [H]
   @RHF iter   3:   -74.31666526679980   -2.39127e+00   1.14680e-01 
  ## One-electron Hamiltonion (Symmetry 0) ##
  Irrep: 1 Size: 19 x 19

                 1            2            3            4            5

    1  -33.0445795   -7.3671274    0.0000000    0.0000000    0.0274001
    2   -7.3671274   -9.9231184    0.0000000    0.0000000    0.1863327
    3    0.0000000    0.0000000   -8.5356517    0.0000000    0.0000000
    4    0.0000000    0.0000000    0.0000000   -8.4296986    0.0000000
    5    0.0274001    0.1863327    0.0000000    0.0000000   -8.4954896
    6   -5.3717156   -7.3893093    0.0000000    0.0000000    0.1758765
    7    0.0000000    0.0000000   -3.8205341    0.0000000    0.0000000
    8    0.0000000    0.0000000    0.0000000   -3.7239530    0.0000000
    9    0.0037757    0.1192144    0.0000000    0.0000000   -3.7839245
   10   -1.1014024   -4.7046102    0.0000000    0.0000000    0.1205188
   11    0.0000000    0.0000000    0.0000000    0.0000000    0.0000000
   12    0.0000000    0.0000000    0.1205188    0.0000000    0.0000000
   13   -1.1000374   -4.6119620    0.0000000    0.0000000    0.0646090
   14    0.0000000    0.0000000    0.0000000    0.0646090    0.0000000
   15   -1.1008850   -4.6694914    0.0000000    0.0000000    0.2285440
   16   -1.1230439   -2.3549479    1.7782295    0.0000000    1.4294291
   17   -2.2159446   -3.6244000    0.8964107    0.0000000    0.7888057
   18   -1.1230439   -2.3549479   -1.7782295    0.0000000    1.4294291
   19   -2.2159446   -3.6244000   -0.8964107    0.0000000    0.7888057

                 6            7            8            9           10

    1   -5.3717156    0.0000000    0.0000000    0.0037757   -1.1014024
    2   -7.3893093    0.0000000    0.0000000    0.1192144   -4.7046102
    3    0.0000000   -3.8205341    0.0000000    0.0000000    0.0000000
    4    0.0000000    0.0000000   -3.7239530    0.0000000    0.0000000
    5    0.1758765    0.0000000    0.0000000   -3.7839245    0.1205188
    6   -7.2662638    0.0000000    0.0000000    0.2485265   -4.8453282
    7    0.0000000   -4.7928391    0.0000000    0.0000000    0.0000000
    8    0.0000000    0.0000000   -4.5718834    0.0000000    0.0000000
    9    0.2485265    0.0000000    0.0000000   -4.7090847    0.1728741
   10   -4.8453282    0.0000000    0.0000000    0.1728741   -5.5811186
   11    0.0000000    0.0000000    0.0000000    0.0000000    0.0000000
   12    0.0000000    0.1728741    0.0000000    0.0000000    0.0000000
   13   -4.6866012    0.0000000    0.0000000    0.0761784   -2.5059970
   14    0.0000000    0.0000000    0.0761784    0.0000000    0.0000000
   15   -4.7851619    0.0000000    0.0000000    0.2885779   -2.5846250
   16   -2.9072125    2.4386952    0.0000000    1.9553849   -2.5911436
   17   -4.3744547    1.6659170    0.0000000    1.4582902   -2.9495732
   18   -2.9072125   -2.4386952    0.0000000    1.9553849   -2.5911436
   19   -4.3744547   -1.6659170    0.0000000    1.4582902   -2.9495732

                11           12           13           14           15

    1    0.0000000    0.0000000   -1.1000374    0.0000000   -1.1008850
    2    0.0000000    0.0000000   -4.6119620    0.0000000   -4.6694914
    3    0.0000000    0.1205188    0.0000000    0.0000000    0.0000000
    4    0.0000000    0.0000000    0.0000000    0.0646090    0.0000000
    5    0.0000000    0.0000000    0.0646090    0.0000000    0.2285440
    6    0.0000000    0.0000000   -4.6866012    0.0000000   -4.7851619
    7    0.0000000    0.1728741    0.0000000    0.0000000    0.0000000
    8    0.0000000    0.0000000    0.0000000    0.0761784    0.0000000
    9    0.0000000    0.0000000    0.0761784    0.0000000    0.2885779
   10    0.0000000    0.0000000   -2.5059970    0.0000000   -2.5846250
   11   -1.4393303    0.0000000    0.0000000    0.0000000    0.0000000
   12    0.0000000   -1.5179583    0.0000000    0.0000000    0.0000000
   13    0.0000000    0.0000000   -5.2799056    0.0000000   -2.4927614
   14    0.0000000    0.0000000    0.0000000   -1.4260947    0.0000000
   15    0.0000000    0.0000000   -2.4927614    0.0000000   -5.4453565
   16    0.0000000   -1.0334185   -1.2887779    0.0000000   -2.1268924
   17    0.0000000   -0.2225971   -2.6122768    0.0000000   -2.8506116
   18    0.0000000    1.0334185   -1.2887779    0.0000000   -2.1268924
   19    0.0000000    0.2225971   -2.6122768    0.0000000   -2.8506116

                16           17           18           19

    1   -1.1230439   -2.2159446   -1.1230439   -2.2159446
    2   -2.3549479   -3.6244000   -2.3549479   -3.6244000
    3    1.7782295    0.8964107   -1.7782295   -0.8964107
    4    0.0000000    0.0000000    0.0000000    0.0000000
    5    1.4294291    0.7888057    1.4294291    0.7888057
    6   -2.9072125   -4.3744547   -2.9072125   -4.3744547
    7    2.4386952    1.6659170   -2.4386952   -1.6659170
    8    0.0000000    0.0000000    0.0000000    0.0000000
    9    1.9553849    1.4582902    1.9553849    1.4582902
   10   -2.5911436   -2.9495732   -2.5911436   -2.9495732
   11    0.0000000    0.0000000    0.0000000    0.0000000
   12   -1.0334185   -0.2225971    1.0334185    0.2225971
   13   -1.2887779   -2.6122768   -1.2887779   -2.6122768
   14    0.0000000    0.0000000    0.0000000    0.0000000
   15   -2.1268924   -2.8506116   -2.1268924   -2.8506116
   16   -5.0119586   -3.5633508   -0.4704492   -1.4884850
   17   -3.5633508   -4.5142896   -1.4884850   -2.8209093
   18   -0.4704492   -1.4884850   -5.0119586   -3.5633508
   19   -1.4884850   -2.8209093   -3.5633508   -4.5142896



  ## EFP contribution to the Fock Matrix (Symmetry 0) ##
  Irrep: 1 Size: 19 x 19

                 1            2            3            4            5

    1   -0.0254325   -0.0059433   -0.0000882   -0.0006240   -0.0001655
    2   -0.0059433   -0.0254325   -0.0006016   -0.0042573   -0.0011294
    3   -0.0000882   -0.0006016   -0.0248562    0.0003519    0.0002856
    4   -0.0006240   -0.0042573    0.0003519   -0.0257679    0.0000846
    5   -0.0001655   -0.0011294    0.0002856    0.0000846   -0.0253738
    6   -0.0042543   -0.0194213   -0.0005852   -0.0041415   -0.0010987
    7   -0.0000122   -0.0003991   -0.0122449    0.0003621    0.0002939
    8   -0.0000860   -0.0028243    0.0003621   -0.0131828    0.0000870
    9   -0.0000228   -0.0007493    0.0002939    0.0000870   -0.0126946
   10   -0.0008474   -0.0135322   -0.0009622   -0.0019736   -0.0006863
   11    0.0000045    0.0003144   -0.0019555   -0.0001454   -0.0000069
   12    0.0000036    0.0002552   -0.0007033   -0.0000069   -0.0003054
   13   -0.0008589   -0.0143467   -0.0001368   -0.0057222   -0.0004589
   14    0.0000011    0.0000756   -0.0000069   -0.0004758   -0.0019113
   15   -0.0008520   -0.0138608   -0.0003054   -0.0019113   -0.0014110
   16   -0.0008725   -0.0054788    0.0044936   -0.0010961    0.0035275
   17   -0.0017462   -0.0093789    0.0023666   -0.0022824    0.0015928
   18   -0.0008825   -0.0061823   -0.0056573   -0.0008651    0.0042385
   19   -0.0017509   -0.0096125   -0.0031826   -0.0020959    0.0017998

                 6            7            8            9           10

    1   -0.0042543   -0.0000122   -0.0000860   -0.0000228   -0.0008474
    2   -0.0194213   -0.0003991   -0.0028243   -0.0007493   -0.0135322
    3   -0.0005852   -0.0122449    0.0003621    0.0002939   -0.0009368
    4   -0.0041415    0.0003621   -0.0131828    0.0000870   -0.0019736
    5   -0.0010987    0.0002939    0.0000870   -0.0126946   -0.0006863
    6   -0.0254323   -0.0011674   -0.0082574   -0.0021909   -0.0169728
    7   -0.0011674   -0.0230314    0.0018807    0.0015280   -0.0015354
    8   -0.0082574    0.0018807   -0.0279081    0.0004520   -0.0030393
    9   -0.0021909    0.0015280    0.0004520   -0.0251180   -0.0012480
   10   -0.0169728   -0.0015717   -0.0030393   -0.0012480   -0.0237207
   11    0.0006641   -0.0030145   -0.0000550   -0.0000188    0.0006170
   12    0.0005390   -0.0012715   -0.0000188   -0.0005013    0.0006306
   13   -0.0186933   -0.0000439   -0.0086178   -0.0006309   -0.0085945
   14    0.0001597   -0.0000188   -0.0006544   -0.0028704    0.0000035
   15   -0.0176670   -0.0005013   -0.0028704   -0.0019855   -0.0081506
   16   -0.0073209    0.0053800   -0.0022863    0.0048652   -0.0069102
   17   -0.0155917    0.0049591   -0.0080948    0.0037588   -0.0096737
   18   -0.0103667   -0.0109669   -0.0015535    0.0084345   -0.0099580
   19   -0.0171057   -0.0097164   -0.0063595    0.0060577   -0.0108481

                11           12           13           14           15

    1    0.0000045    0.0000036   -0.0008589    0.0000011   -0.0008520
    2    0.0003144    0.0002552   -0.0143467    0.0000756   -0.0138608
    3   -0.0019631   -0.0006863   -0.0001368   -0.0000069   -0.0003054
    4   -0.0001454   -0.0000069   -0.0057297   -0.0004589   -0.0019113
    5   -0.0000069   -0.0003054   -0.0004589   -0.0019113   -0.0014110
    6    0.0006641    0.0005390   -0.0186933    0.0001597   -0.0176670
    7   -0.0030253   -0.0012480   -0.0000439   -0.0000188   -0.0005013
    8   -0.0000550   -0.0000188   -0.0086286   -0.0006309   -0.0028704
    9   -0.0000188   -0.0005013   -0.0006309   -0.0028704   -0.0019855
   10    0.0006110    0.0006160   -0.0085945    0.0000035   -0.0081506
   11   -0.0085385    0.0000035    0.0006487    0.0001343    0.0001979
   12   -0.0000029   -0.0081066    0.0001343    0.0001979    0.0004530
   13    0.0006490    0.0001343   -0.0269882    0.0001570   -0.0087374
   14    0.0001416    0.0001979    0.0001440   -0.0086934    0.0001959
   15    0.0001979    0.0004530   -0.0087374    0.0001959   -0.0252523
   16    0.0011727   -0.0026722   -0.0039601    0.0008592   -0.0060566
   17    0.0013209    0.0001324   -0.0105643    0.0007778   -0.0100509
   18   -0.0007086    0.0045169   -0.0042572    0.0006546   -0.0075826
   19   -0.0003850    0.0009697   -0.0106074    0.0007010   -0.0105115

                16           17           18           19

    1   -0.0008725   -0.0017462   -0.0008825   -0.0017509
    2   -0.0054788   -0.0093789   -0.0061823   -0.0096125
    3    0.0044936    0.0023666   -0.0056573   -0.0031826
    4   -0.0010961   -0.0022824   -0.0008651   -0.0020959
    5    0.0035275    0.0015928    0.0042385    0.0017998
    6   -0.0073209   -0.0155917   -0.0103667   -0.0171057
    7    0.0053800    0.0049591   -0.0109669   -0.0097164
    8   -0.0022863   -0.0080948   -0.0015535   -0.0063595
    9    0.0048652    0.0037588    0.0084345    0.0060577
   10   -0.0069102   -0.0096737   -0.0099580   -0.0108481
   11    0.0011727    0.0013209   -0.0007086   -0.0003850
   12   -0.0026722    0.0001324    0.0045169    0.0009697
   13   -0.0039601   -0.0105643   -0.0042572   -0.0106074
   14    0.0008592    0.0007778    0.0006546    0.0007010
   15   -0.0060566   -0.0100509   -0.0075826   -0.0105115
   16   -0.0092535   -0.0060947   -0.0012263   -0.0039346
   17   -0.0060947   -0.0102685   -0.0054406   -0.0120283
   18   -0.0012263   -0.0054406   -0.0234052   -0.0154075
   19   -0.0039346   -0.0120283   -0.0154075   -0.0234016



  Wfn dependent Energy =        0.0092885088058372 [H]
   @RHF iter   4:   -75.31082265948010   -9.94157e-01   7.92371e-02 
  ## One-electron Hamiltonion (Symmetry 0) ##
  Irrep: 1 Size: 19 x 19

                 1            2            3            4            5

    1  -33.0445795   -7.3671274    0.0000000    0.0000000    0.0274001
    2   -7.3671274   -9.9231184    0.0000000    0.0000000    0.1863327
    3    0.0000000    0.0000000   -8.5356517    0.0000000    0.0000000
    4    0.0000000    0.0000000    0.0000000   -8.4296986    0.0000000
    5    0.0274001    0.1863327    0.0000000    0.0000000   -8.4954896
    6   -5.3717156   -7.3893093    0.0000000    0.0000000    0.1758765
    7    0.0000000    0.0000000   -3.8205341    0.0000000    0.0000000
    8    0.0000000    0.0000000    0.0000000   -3.7239530    0.0000000
    9    0.0037757    0.1192144    0.0000000    0.0000000   -3.7839245
   10   -1.1014024   -4.7046102    0.0000000    0.0000000    0.1205188
   11    0.0000000    0.0000000    0.0000000    0.0000000    0.0000000
   12    0.0000000    0.0000000    0.1205188    0.0000000    0.0000000
   13   -1.1000374   -4.6119620    0.0000000    0.0000000    0.0646090
   14    0.0000000    0.0000000    0.0000000    0.0646090    0.0000000
   15   -1.1008850   -4.6694914    0.0000000    0.0000000    0.2285440
   16   -1.1230439   -2.3549479    1.7782295    0.0000000    1.4294291
   17   -2.2159446   -3.6244000    0.8964107    0.0000000    0.7888057
   18   -1.1230439   -2.3549479   -1.7782295    0.0000000    1.4294291
   19   -2.2159446   -3.6244000   -0.8964107    0.0000000    0.7888057

                 6            7            8            9           10

    1   -5.3717156    0.0000000    0.0000000    0.0037757   -1.1014024
    2   -7.3893093    0.0000000    0.0000000    0.1192144   -4.7046102
    3    0.0000000   -3.8205341    0.0000000    0.0000000    0.0000000
    4    0.0000000    0.0000000   -3.7239530    0.0000000    0.0000000
    5    0.1758765    0.0000000    0.0000000   -3.7839245    0.1205188
    6   -7.2662638    0.0000000    0.0000000    0.2485265   -4.8453282
    7    0.0000000   -4.7928391    0.0000000    0.0000000    0.0000000
    8    0.0000000    0.0000000   -4.5718834    0.0000000    0.0000000
    9    0.2485265    0.0000000    0.0000000   -4.7090847    0.1728741
   10   -4.8453282    0.0000000    0.0000000    0.1728741   -5.5811186
   11    0.0000000    0.0000000    0.0000000    0.0000000    0.0000000
   12    0.0000000    0.1728741    0.0000000    0.0000000    0.0000000
   13   -4.6866012    0.0000000    0.0000000    0.0761784   -2.5059970
   14    0.0000000    0.0000000    0.0761784    0.0000000    0.0000000
   15   -4.7851619    0.0000000    0.0000000    0.2885779   -2.5846250
   16   -2.9072125    2.4386952    0.0000000    1.9553849   -2.5911436
   17   -4.3744547    1.6659170    0.0000000    1.4582902   -2.9495732
   18   -2.9072125   -2.4386952    0.0000000    1.9553849   -2.5911436
   19   -4.3744547   -1.6659170    0.0000000    1.4582902   -2.9495732

                11           12           13           14           15

    1    0.0000000    0.0000000   -1.1000374    0.0000000   -1.1008850
    2    0.0000000    0.0000000   -4.6119620    0.0000000   -4.6694914
    3    0.0000000    0.1205188    0.0000000    0.0000000    0.0000000
    4    0.0000000    0.0000000    0.0000000    0.0646090    0.0000000
    5    0.0000000    0.0000000    0.0646090    0.0000000    0.2285440
    6    0.0000000    0.0000000   -4.6866012    0.0000000   -4.7851619
    7    0.0000000    0.1728741    0.0000000    0.0000000    0.0000000
    8    0.0000000    0.0000000    0.0000000    0.0761784    0.0000000
    9    0.0000000    0.0000000    0.0761784    0.0000000    0.2885779
   10    0.0000000    0.0000000   -2.5059970    0.0000000   -2.5846250
   11   -1.4393303    0.0000000    0.0000000    0.0000000    0.0000000
   12    0.0000000   -1.5179583    0.0000000    0.0000000    0.0000000
   13    0.0000000    0.0000000   -5.2799056    0.0000000   -2.4927614
   14    0.0000000    0.0000000    0.0000000   -1.4260947    0.0000000
   15    0.0000000    0.0000000   -2.4927614    0.0000000   -5.4453565
   16    0.0000000   -1.0334185   -1.2887779    0.0000000   -2.1268924
   17    0.0000000   -0.2225971   -2.6122768    0.0000000   -2.8506116
   18    0.0000000    1.0334185   -1.2887779    0.0000000   -2.1268924
   19    0.0000000    0.2225971   -2.6122768    0.0000000   -2.8506116

                16           17           18           19

    1   -1.1230439   -2.2159446   -1.1230439   -2.2159446
    2   -2.3549479   -3.6244000   -2.3549479   -3.6244000
    3    1.7782295    0.8964107   -1.7782295   -0.8964107
    4    0.0000000    0.0000000    0.0000000    0.0000000
    5    1.4294291    0.7888057    1.4294291    0.7888057
    6   -2.9072125   -4.3744547   -2.9072125   -4.3744547
    7    2.4386952    1.6659170   -2.4386952   -1.6659170
    8    0.0000000    0.0000000    0.0000000    0.0000000
    9    1.9553849    1.4582902    1.9553849    1.4582902
   10   -2.5911436   -2.9495732   -2.5911436   -2.9495732
   11    0.0000000    0.0000000    0.0000000    0.0000000
   12   -1.0334185   -0.2225971    1.0334185    0.2225971
   13   -1.2887779   -2.6122768   -1.2887779   -2.6122768
   14    0.0000000    0.0000000    0.0000000    0.0000000
   15   -2.1268924   -2.8506116   -2.1268924   -2.8506116
   16   -5.0119586   -3.5633508   -0.4704492   -1.4884850
   17   -3.5633508   -4.5142896   -1.4884850   -2.8209093
   18   -0.4704492   -1.4884850   -5.0119586   -3.5633508
   19   -1.4884850   -2.8209093   -3.5633508   -4.5142896



  ## EFP contribution to the Fock Matrix (Symmetry 0) ##
  Irrep: 1 Size: 19 x 19

                 1            2            3            4            5

    1   -0.0276739   -0.0064671    0.0000263   -0.0005923    0.0000726
    2   -0.0064671   -0.0276739    0.0001794   -0.0040413    0.0004951
    3    0.0000263    0.0001794   -0.0271618    0.0003774    0.0000965
    4   -0.0005923   -0.0040413    0.0003774   -0.0279026    0.0002297
    5    0.0000726    0.0004951    0.0000965    0.0002297   -0.0276576
    6   -0.0046293   -0.0211329    0.0001745   -0.0039313    0.0004816
    7    0.0000036    0.0001190   -0.0134351    0.0003883    0.0000993
    8   -0.0000816   -0.0026809    0.0003883   -0.0141972    0.0002364
    9    0.0000100    0.0003284    0.0000993    0.0002364   -0.0138622
   10   -0.0009234   -0.0148157    0.0000839   -0.0018766    0.0000856
   11    0.0000048    0.0003373   -0.0018586    0.0001864   -0.0000310
   12    0.0000012    0.0000862    0.0000687   -0.0000310    0.0000844
   13   -0.0009327   -0.0154777    0.0001950   -0.0054137    0.0002714
   14    0.0000029    0.0002053   -0.0000310    0.0002545   -0.0018277
   15   -0.0009277   -0.0151248    0.0000844   -0.0018277    0.0007635
   16   -0.0009660   -0.0067989    0.0059295   -0.0011159    0.0049090
   17   -0.0019084   -0.0105745    0.0031782   -0.0022133    0.0027625
   18   -0.0009638   -0.0068385   -0.0060555   -0.0008392    0.0050088
   19   -0.0019072   -0.0105336   -0.0030448   -0.0020072    0.0028038

                 6            7            8            9           10

    1   -0.0046293    0.0000036   -0.0000816    0.0000100   -0.0009234
    2   -0.0211329    0.0001190   -0.0026809    0.0003284   -0.0148157
    3    0.0001745   -0.0134351    0.0003883    0.0000993    0.0001093
    4   -0.0039313    0.0003883   -0.0141972    0.0002364   -0.0018766
    5    0.0004816    0.0000993    0.0002364   -0.0138622    0.0000856
    6   -0.0276737    0.0003474   -0.0078382    0.0009600   -0.0186608
    7    0.0003474   -0.0256161    0.0020170    0.0005167    0.0000286
    8   -0.0078382    0.0020170   -0.0295790    0.0012282   -0.0028937
    9    0.0009600    0.0005167    0.0012282   -0.0275857   -0.0000371
   10   -0.0186608   -0.0000077   -0.0028937   -0.0000371   -0.0261855
   11    0.0007123   -0.0028689    0.0004205   -0.0000842    0.0006585
   12    0.0001821   -0.0000607   -0.0000842    0.0001314    0.0002768
   13   -0.0200588    0.0004316   -0.0081334    0.0004671   -0.0093069
   14    0.0004336   -0.0000842    0.0004435   -0.0027610    0.0001041
   15   -0.0193137    0.0001314   -0.0027610    0.0012638   -0.0089797
   16   -0.0108423    0.0100277   -0.0025694    0.0090660   -0.0099571
   17   -0.0188894    0.0087724   -0.0082224    0.0086071   -0.0115948
   18   -0.0115305   -0.0118400   -0.0015255    0.0099144   -0.0107111
   19   -0.0188940   -0.0092918   -0.0061731    0.0090825   -0.0117259

                11           12           13           14           15

    1    0.0000048    0.0000012   -0.0009327    0.0000029   -0.0009277
    2    0.0003373    0.0000862   -0.0154777    0.0002053   -0.0151248
    3   -0.0018661    0.0000856    0.0001950   -0.0000310    0.0000844
    4    0.0001864   -0.0000310   -0.0054212    0.0002714   -0.0018277
    5   -0.0000310    0.0000844    0.0002714   -0.0018277    0.0007635
    6    0.0007123    0.0001821   -0.0200588    0.0004336   -0.0193137
    7   -0.0028797   -0.0000371    0.0004316   -0.0000842    0.0001314
    8    0.0004205   -0.0000842   -0.0081442    0.0004671   -0.0027610
    9   -0.0000842    0.0001314    0.0004671   -0.0027610    0.0012638
   10    0.0006525    0.0002623   -0.0093069    0.0001041   -0.0089797
   11   -0.0092508    0.0001041    0.0006828    0.0000218    0.0002299
   12    0.0000976   -0.0089357    0.0000218    0.0002299    0.0001225
   13    0.0006831    0.0000218   -0.0288504    0.0004072   -0.0094494
   14    0.0000290    0.0002299    0.0003942   -0.0094054    0.0004566
   15    0.0002299    0.0001225   -0.0094494    0.0004566   -0.0276253
   16    0.0012526   -0.0046772   -0.0048326    0.0009811   -0.0086772
   17    0.0013535   -0.0007588   -0.0117326    0.0009735   -0.0120620
   18   -0.0006731    0.0051044   -0.0046748    0.0006744   -0.0088498
   19   -0.0003105    0.0010026   -0.0114716    0.0008376   -0.0120170

                16           17           18           19

    1   -0.0009660   -0.0019084   -0.0009638   -0.0019072
    2   -0.0067989   -0.0105745   -0.0068385   -0.0105336
    3    0.0059295    0.0031782   -0.0060555   -0.0030448
    4   -0.0011159   -0.0022133   -0.0008392   -0.0020072
    5    0.0049090    0.0027625    0.0050088    0.0028038
    6   -0.0108423   -0.0188894   -0.0115305   -0.0188940
    7    0.0100277    0.0087724   -0.0118400   -0.0092918
    8   -0.0025694   -0.0082224   -0.0015255   -0.0061731
    9    0.0090660    0.0086071    0.0099144    0.0090825
   10   -0.0099571   -0.0115948   -0.0107111   -0.0117259
   11    0.0012526    0.0013535   -0.0006731   -0.0003105
   12   -0.0046772   -0.0007588    0.0051044    0.0010026
   13   -0.0048326   -0.0117326   -0.0046748   -0.0114716
   14    0.0009811    0.0009735    0.0006744    0.0008376
   15   -0.0086772   -0.0120620   -0.0088498   -0.0120170
   16   -0.0210526   -0.0138603   -0.0015432   -0.0060285
   17   -0.0138603   -0.0215223   -0.0062727   -0.0150832
   18   -0.0015432   -0.0062727   -0.0261107   -0.0171885
   19   -0.0060285   -0.0150832   -0.0171885   -0.0261067



  Wfn dependent Energy =       -0.0151558716039172 [H]
   @RHF iter   5:   -75.93872349034068   -6.27901e-01   5.40972e-02 
  ## One-electron Hamiltonion (Symmetry 0) ##
  Irrep: 1 Size: 19 x 19

                 1            2            3            4            5

    1  -33.0445795   -7.3671274    0.0000000    0.0000000    0.0274001
    2   -7.3671274   -9.9231184    0.0000000    0.0000000    0.1863327
    3    0.0000000    0.0000000   -8.5356517    0.0000000    0.0000000
    4    0.0000000    0.0000000    0.0000000   -8.4296986    0.0000000
    5    0.0274001    0.1863327    0.0000000    0.0000000   -8.4954896
    6   -5.3717156   -7.3893093    0.0000000    0.0000000    0.1758765
    7    0.0000000    0.0000000   -3.8205341    0.0000000    0.0000000
    8    0.0000000    0.0000000    0.0000000   -3.7239530    0.0000000
    9    0.0037757    0.1192144    0.0000000    0.0000000   -3.7839245
   10   -1.1014024   -4.7046102    0.0000000    0.0000000    0.1205188
   11    0.0000000    0.0000000    0.0000000    0.0000000    0.0000000
   12    0.0000000    0.0000000    0.1205188    0.0000000    0.0000000
   13   -1.1000374   -4.6119620    0.0000000    0.0000000    0.0646090
   14    0.0000000    0.0000000    0.0000000    0.0646090    0.0000000
   15   -1.1008850   -4.6694914    0.0000000    0.0000000    0.2285440
   16   -1.1230439   -2.3549479    1.7782295    0.0000000    1.4294291
   17   -2.2159446   -3.6244000    0.8964107    0.0000000    0.7888057
   18   -1.1230439   -2.3549479   -1.7782295    0.0000000    1.4294291
   19   -2.2159446   -3.6244000   -0.8964107    0.0000000    0.7888057

                 6            7            8            9           10

    1   -5.3717156    0.0000000    0.0000000    0.0037757   -1.1014024
    2   -7.3893093    0.0000000    0.0000000    0.1192144   -4.7046102
    3    0.0000000   -3.8205341    0.0000000    0.0000000    0.0000000
    4    0.0000000    0.0000000   -3.7239530    0.0000000    0.0000000
    5    0.1758765    0.0000000    0.0000000   -3.7839245    0.1205188
    6   -7.2662638    0.0000000    0.0000000    0.2485265   -4.8453282
    7    0.0000000   -4.7928391    0.0000000    0.0000000    0.0000000
    8    0.0000000    0.0000000   -4.5718834    0.0000000    0.0000000
    9    0.2485265    0.0000000    0.0000000   -4.7090847    0.1728741
   10   -4.8453282    0.0000000    0.0000000    0.1728741   -5.5811186
   11    0.0000000    0.0000000    0.0000000    0.0000000    0.0000000
   12    0.0000000    0.1728741    0.0000000    0.0000000    0.0000000
   13   -4.6866012    0.0000000    0.0000000    0.0761784   -2.5059970
   14    0.0000000    0.0000000    0.0761784    0.0000000    0.0000000
   15   -4.7851619    0.0000000    0.0000000    0.2885779   -2.5846250
   16   -2.9072125    2.4386952    0.0000000    1.9553849   -2.5911436
   17   -4.3744547    1.6659170    0.0000000    1.4582902   -2.9495732
   18   -2.9072125   -2.4386952    0.0000000    1.9553849   -2.5911436
   19   -4.3744547   -1.6659170    0.0000000    1.4582902   -2.9495732

                11           12           13           14           15

    1    0.0000000    0.0000000   -1.1000374    0.0000000   -1.1008850
    2    0.0000000    0.0000000   -4.6119620    0.0000000   -4.6694914
    3    0.0000000    0.1205188    0.0000000    0.0000000    0.0000000
    4    0.0000000    0.0000000    0.0000000    0.0646090    0.0000000
    5    0.0000000    0.0000000    0.0646090    0.0000000    0.2285440
    6    0.0000000    0.0000000   -4.6866012    0.0000000   -4.7851619
    7    0.0000000    0.1728741    0.0000000    0.0000000    0.0000000
    8    0.0000000    0.0000000    0.0000000    0.0761784    0.0000000
    9    0.0000000    0.0000000    0.0761784    0.0000000    0.2885779
   10    0.0000000    0.0000000   -2.5059970    0.0000000   -2.5846250
   11   -1.4393303    0.0000000    0.0000000    0.0000000    0.0000000
   12    0.0000000   -1.5179583    0.0000000    0.0000000    0.0000000
   13    0.0000000    0.0000000   -5.2799056    0.0000000   -2.4927614
   14    0.0000000    0.0000000    0.0000000   -1.4260947    0.0000000
   15    0.0000000    0.0000000   -2.4927614    0.0000000   -5.4453565
   16    0.0000000   -1.0334185   -1.2887779    0.0000000   -2.1268924
   17    0.0000000   -0.2225971   -2.6122768    0.0000000   -2.8506116
   18    0.0000000    1.0334185   -1.2887779    0.0000000   -2.1268924
   19    0.0000000    0.2225971   -2.6122768    0.0000000   -2.8506116

                16           17           18           19

    1   -1.1230439   -2.2159446   -1.1230439   -2.2159446
    2   -2.3549479   -3.6244000   -2.3549479   -3.6244000
    3    1.7782295    0.8964107   -1.7782295   -0.8964107
    4    0.0000000    0.0000000    0.0000000    0.0000000
    5    1.4294291    0.7888057    1.4294291    0.7888057
    6   -2.9072125   -4.3744547   -2.9072125   -4.3744547
    7    2.4386952    1.6659170   -2.4386952   -1.6659170
    8    0.0000000    0.0000000    0.0000000    0.0000000
    9    1.9553849    1.4582902    1.9553849    1.4582902
   10   -2.5911436   -2.9495732   -2.5911436   -2.9495732
   11    0.0000000    0.0000000    0.0000000    0.0000000
   12   -1.0334185   -0.2225971    1.0334185    0.2225971
   13   -1.2887779   -2.6122768   -1.2887779   -2.6122768
   14    0.0000000    0.0000000    0.0000000    0.0000000
   15   -2.1268924   -2.8506116   -2.1268924   -2.8506116
   16   -5.0119586   -3.5633508   -0.4704492   -1.4884850
   17   -3.5633508   -4.5142896   -1.4884850   -2.8209093
   18   -0.4704492   -1.4884850   -5.0119586   -3.5633508
   19   -1.4884850   -2.8209093   -3.5633508   -4.5142896



  ## EFP contribution to the Fock Matrix (Symmetry 0) ##
  Irrep: 1 Size: 19 x 19

                 1            2            3            4            5

    1   -0.0258685   -0.0060452   -0.0000650   -0.0006197   -0.0001080
    2   -0.0060452   -0.0258685   -0.0004434   -0.0042281   -0.0007369
    3   -0.0000650   -0.0004434   -0.0253015    0.0003596    0.0002429
    4   -0.0006197   -0.0042281    0.0003596   -0.0261839    0.0001217
    5   -0.0001080   -0.0007369    0.0002429    0.0001217   -0.0258204
    6   -0.0043273   -0.0197542   -0.0004313   -0.0041131   -0.0007169
    7   -0.0000090   -0.0002941   -0.0124731    0.0003700    0.0002499
    8   -0.0000854   -0.0028049    0.0003700   -0.0133810    0.0001252
    9   -0.0000149   -0.0004889    0.0002499    0.0001252   -0.0129241
   10   -0.0008621   -0.0137790   -0.0007523   -0.0019604   -0.0005011
   11    0.0000046    0.0003213   -0.0019423   -0.0000778   -0.0000130
   12    0.0000031    0.0002170   -0.0005180   -0.0000130   -0.0002248
   13   -0.0008733   -0.0145675   -0.0000691   -0.0056790   -0.0002818
   14    0.0000015    0.0001088   -0.0000130   -0.0002987   -0.0019015
   15   -0.0008668   -0.0141088   -0.0002248   -0.0019015   -0.0008849
   16   -0.0008912   -0.0057585    0.0047944   -0.0011071    0.0038325
   17   -0.0017780   -0.0096224    0.0025310   -0.0022782    0.0018639
   18   -0.0008987   -0.0063233   -0.0057425   -0.0008639    0.0044125
   19   -0.0017815   -0.0097997   -0.0031527   -0.0020862    0.0020345

                 6            7            8            9           10

    1   -0.0043273   -0.0000090   -0.0000854   -0.0000149   -0.0008621
    2   -0.0197542   -0.0002941   -0.0028049   -0.0004889   -0.0137790
    3   -0.0004313   -0.0124731    0.0003700    0.0002499   -0.0007269
    4   -0.0041131    0.0003700   -0.0133810    0.0001252   -0.0019604
    5   -0.0007169    0.0002499    0.0001252   -0.0129241   -0.0005011
    6   -0.0258683   -0.0008605   -0.0082007   -0.0014295   -0.0172951
    7   -0.0008605   -0.0235170    0.0019216    0.0012993   -0.0012241
    8   -0.0082007    0.0019216   -0.0282376    0.0006505   -0.0030193
    9   -0.0014295    0.0012993    0.0006505   -0.0256107   -0.0009589
   10   -0.0172951   -0.0012604   -0.0030193   -0.0009589   -0.0241877
   11    0.0006786   -0.0029945    0.0000425   -0.0000352    0.0006294
   12    0.0004583   -0.0009825   -0.0000352   -0.0003687    0.0005511
   13   -0.0189605    0.0000536   -0.0085485   -0.0003638   -0.0087318
   14    0.0002297   -0.0000352   -0.0003874   -0.0028597    0.0000289
   15   -0.0179918   -0.0003687   -0.0028597   -0.0011985   -0.0083122
   16   -0.0080782    0.0063663   -0.0023677    0.0057955   -0.0075482
   17   -0.0162868    0.0057436   -0.0081711    0.0048780   -0.0100595
   18   -0.0106265   -0.0111632   -0.0015563    0.0087761   -0.0101213
   19   -0.0174868   -0.0096253   -0.0063518    0.0067722   -0.0110234

                11           12           13           14           15

    1    0.0000046    0.0000031   -0.0008733    0.0000015   -0.0008668
    2    0.0003213    0.0002170   -0.0145675    0.0001088   -0.0141088
    3   -0.0019498   -0.0005011   -0.0000691   -0.0000130   -0.0002248
    4   -0.0000778   -0.0000130   -0.0056865   -0.0002818   -0.0019015
    5   -0.0000130   -0.0002248   -0.0002818   -0.0019015   -0.0008849
    6    0.0006786    0.0004583   -0.0189605    0.0002297   -0.0179918
    7   -0.0030053   -0.0009589    0.0000536   -0.0000352   -0.0003687
    8    0.0000425   -0.0000352   -0.0085593   -0.0003638   -0.0028597
    9   -0.0000352   -0.0003687   -0.0003638   -0.0028597   -0.0011985
   10    0.0006234    0.0005365   -0.0087318    0.0000289   -0.0083122
   11   -0.0086757    0.0000289    0.0006600    0.0001085    0.0002066
   12    0.0000224   -0.0082681    0.0001085    0.0002066    0.0003781
   13    0.0006603    0.0001085   -0.0273531    0.0002212   -0.0088781
   14    0.0001157    0.0002066    0.0002082   -0.0088340    0.0002627
   15    0.0002066    0.0003781   -0.0088781    0.0002627   -0.0257215
   16    0.0011982   -0.0031104   -0.0041473    0.0008943   -0.0066350
   17    0.0013352   -0.0000681   -0.0108066    0.0008315   -0.0104853
   18   -0.0007042    0.0046517   -0.0043481    0.0006637   -0.0078694
   19   -0.0003693    0.0009814   -0.0107861    0.0007397   -0.0108376

                16           17           18           19

    1   -0.0008912   -0.0017780   -0.0008987   -0.0017815
    2   -0.0057585   -0.0096224   -0.0063233   -0.0097997
    3    0.0047944    0.0025310   -0.0057425   -0.0031527
    4   -0.0011071   -0.0022782   -0.0008639   -0.0020862
    5    0.0038325    0.0018639    0.0044125    0.0020345
    6   -0.0080782   -0.0162868   -0.0106265   -0.0174868
    7    0.0063663    0.0057436   -0.0111632   -0.0096253
    8   -0.0023677   -0.0081711   -0.0015563   -0.0063518
    9    0.0057955    0.0048780    0.0087761    0.0067722
   10   -0.0075482   -0.0100595   -0.0101213   -0.0110234
   11    0.0011982    0.0013352   -0.0007042   -0.0003693
   12   -0.0031104   -0.0000681    0.0046517    0.0009814
   13   -0.0041473   -0.0108066   -0.0043481   -0.0107861
   14    0.0008943    0.0008315    0.0006637    0.0007397
   15   -0.0066350   -0.0104853   -0.0078694   -0.0108376
   16   -0.0118005   -0.0077710   -0.0012974   -0.0043949
   17   -0.0077710   -0.0126920   -0.0056296   -0.0127135
   18   -0.0012974   -0.0056296   -0.0240240   -0.0158148
   19   -0.0043949   -0.0127135   -0.0158148   -0.0240202



  Wfn dependent Energy =       -0.0074308036356966 [H]
   @RHF iter   6:   -76.13498385986188   -1.96260e-01   3.21485e-02 
  ## One-electron Hamiltonion (Symmetry 0) ##
  Irrep: 1 Size: 19 x 19

                 1            2            3            4            5

    1  -33.0445795   -7.3671274    0.0000000    0.0000000    0.0274001
    2   -7.3671274   -9.9231184    0.0000000    0.0000000    0.1863327
    3    0.0000000    0.0000000   -8.5356517    0.0000000    0.0000000
    4    0.0000000    0.0000000    0.0000000   -8.4296986    0.0000000
    5    0.0274001    0.1863327    0.0000000    0.0000000   -8.4954896
    6   -5.3717156   -7.3893093    0.0000000    0.0000000    0.1758765
    7    0.0000000    0.0000000   -3.8205341    0.0000000    0.0000000
    8    0.0000000    0.0000000    0.0000000   -3.7239530    0.0000000
    9    0.0037757    0.1192144    0.0000000    0.0000000   -3.7839245
   10   -1.1014024   -4.7046102    0.0000000    0.0000000    0.1205188
   11    0.0000000    0.0000000    0.0000000    0.0000000    0.0000000
   12    0.0000000    0.0000000    0.1205188    0.0000000    0.0000000
   13   -1.1000374   -4.6119620    0.0000000    0.0000000    0.0646090
   14    0.0000000    0.0000000    0.0000000    0.0646090    0.0000000
   15   -1.1008850   -4.6694914    0.0000000    0.0000000    0.2285440
   16   -1.1230439   -2.3549479    1.7782295    0.0000000    1.4294291
   17   -2.2159446   -3.6244000    0.8964107    0.0000000    0.7888057
   18   -1.1230439   -2.3549479   -1.7782295    0.0000000    1.4294291
   19   -2.2159446   -3.6244000   -0.8964107    0.0000000    0.7888057

                 6            7            8            9           10

    1   -5.3717156    0.0000000    0.0000000    0.0037757   -1.1014024
    2   -7.3893093    0.0000000    0.0000000    0.1192144   -4.7046102
    3    0.0000000   -3.8205341    0.0000000    0.0000000    0.0000000
    4    0.0000000    0.0000000   -3.7239530    0.0000000    0.0000000
    5    0.1758765    0.0000000    0.0000000   -3.7839245    0.1205188
    6   -7.2662638    0.0000000    0.0000000    0.2485265   -4.8453282
    7    0.0000000   -4.7928391    0.0000000    0.0000000    0.0000000
    8    0.0000000    0.0000000   -4.5718834    0.0000000    0.0000000
    9    0.2485265    0.0000000    0.0000000   -4.7090847    0.1728741
   10   -4.8453282    0.0000000    0.0000000    0.1728741   -5.5811186
   11    0.0000000    0.0000000    0.0000000    0.0000000    0.0000000
   12    0.0000000    0.1728741    0.0000000    0.0000000    0.0000000
   13   -4.6866012    0.0000000    0.0000000    0.0761784   -2.5059970
   14    0.0000000    0.0000000    0.0761784    0.0000000    0.0000000
   15   -4.7851619    0.0000000    0.0000000    0.2885779   -2.5846250
   16   -2.9072125    2.4386952    0.0000000    1.9553849   -2.5911436
   17   -4.3744547    1.6659170    0.0000000    1.4582902   -2.9495732
   18   -2.9072125   -2.4386952    0.0000000    1.9553849   -2.5911436
   19   -4.3744547   -1.6659170    0.0000000    1.4582902   -2.9495732

                11           12           13           14           15

    1    0.0000000    0.0000000   -1.1000374    0.0000000   -1.1008850
    2    0.0000000    0.0000000   -4.6119620    0.0000000   -4.6694914
    3    0.0000000    0.1205188    0.0000000    0.0000000    0.0000000
    4    0.0000000    0.0000000    0.0000000    0.0646090    0.0000000
    5    0.0000000    0.0000000    0.0646090    0.0000000    0.2285440
    6    0.0000000    0.0000000   -4.6866012    0.0000000   -4.7851619
    7    0.0000000    0.1728741    0.0000000    0.0000000    0.0000000
    8    0.0000000    0.0000000    0.0000000    0.0761784    0.0000000
    9    0.0000000    0.0000000    0.0761784    0.0000000    0.2885779
[...]
   22   -0.7703261   -3.8634163    0.6139831    0.0000000
   23    1.0501409    0.6139831   -4.2034546    0.0000000
   24    0.0000000    0.0000000    0.0000000   -3.3795973



   @RHF iter  20:   -76.02665171927819   -2.41105e-07   2.47864e-05 
  ## One-electron Hamiltonion (Symmetry 0) ##
  Irrep: 1 Size: 24 x 24

                 1            2            3            4            5

    1  -33.0246439    7.8684190   -5.9290132    0.0308747    0.0000000
    2    7.8684190  -10.2765610   -5.0430503    0.1717496    0.0000000
    3   -5.9290132   -5.0430503   -7.6180764    0.1793170    0.0000000
    4    0.0308747    0.1717496    0.1793170   -8.5192932    0.0000000
    5    0.0000000    0.0000000    0.0000000    0.0000000   -8.5588516
    6    0.0000000    0.0000000    0.0000000    0.0000000    0.0000000
    7    0.0057751    0.1168346    0.2445292   -3.8100423    0.0000000
    8    0.0000000    0.0000000    0.0000000    0.0000000   -3.8462219
    9    0.0000000    0.0000000    0.0000000    0.0000000    0.0000000
   10   -0.0004603   -0.0112128   -0.0154166    0.1498435    0.0000000
   11    0.0000000    0.0000000    0.0000000    0.0000000    0.2116975
   12    0.0000000    0.0000000    0.0000000    0.0000000    0.0000000
   13   -0.0032961   -0.0802890   -0.1103905    0.0436013    0.0000000
   14    0.0000000    0.0000000    0.0000000    0.0000000    0.0000000
   15   -1.6142122   -2.1347277   -3.4567153    1.4181842    1.7458458
   16   -2.1026840   -2.4389161   -4.2149330    0.5921073    0.6495635
   17   -2.0832301   -1.7706894   -2.2078396    0.2377350    2.1440371
   18   -2.6458297   -2.2847827   -2.8704353    2.2126004    1.2523943
   19    0.0000000    0.0000000    0.0000000    0.0000000    0.0000000
   20   -1.6142122   -2.1347277   -3.4567153    1.4181842   -1.7458458
   21   -2.1026840   -2.4389161   -4.2149330    0.5921073   -0.6495635
   22   -2.0832301   -1.7706894   -2.2078396    0.2377350   -2.1440371
   23    2.6458297    2.2847827    2.8704353   -2.2126004    1.2523943
   24    0.0000000    0.0000000    0.0000000    0.0000000    0.0000000

                 6            7            8            9           10

    1    0.0000000    0.0057751    0.0000000    0.0000000   -0.0004603
    2    0.0000000    0.1168346    0.0000000    0.0000000   -0.0112128
    3    0.0000000    0.2445292    0.0000000    0.0000000   -0.0154166
    4    0.0000000   -3.8100423    0.0000000    0.0000000    0.1498435
    5    0.0000000    0.0000000   -3.8462219    0.0000000    0.0000000
    6   -8.4544912    0.0000000    0.0000000   -3.7507751    0.0000000
    7    0.0000000   -4.7441495    0.0000000    0.0000000    0.1296083
    8    0.0000000    0.0000000   -4.8285318    0.0000000    0.0000000
    9   -3.7507751    0.0000000    0.0000000   -4.6059196    0.0000000
   10    0.0000000    0.1296083    0.0000000    0.0000000   -4.3440406
   11    0.0000000    0.0000000    0.2207126    0.0000000    0.0000000
   12    0.1244949    0.0000000    0.0000000    0.1052625    0.0000000
   13    0.0000000    0.0577251    0.0000000    0.0000000    0.0456411
   14    0.0000000    0.0000000    0.0000000    0.0000000    0.0000000
   15    0.0000000    2.0314149    2.5073953    0.0000000   -0.1366136
   16    0.0000000    1.2055653    1.3320893    0.0000000   -0.0362348
   17    0.0000000   -0.6917238    1.5205837    0.0000000    1.0788459
   18    0.0000000    1.6023318    0.0588631    0.0000000   -0.9786720
   19   -1.4798969    0.0000000    0.0000000   -1.9034235    0.0000000
   20    0.0000000    2.0314149   -2.5073953    0.0000000   -0.1366136
   21    0.0000000    1.2055653   -1.3320893    0.0000000   -0.0362348
   22    0.0000000   -0.6917238   -1.5205837    0.0000000    1.0788459
   23    0.0000000   -1.6023318    0.0588631    0.0000000    0.9786720
   24   -1.4798969    0.0000000    0.0000000   -1.9034235    0.0000000

                11           12           13           14           15

    1    0.0000000    0.0000000   -0.0032961    0.0000000   -1.6142122
    2    0.0000000    0.0000000   -0.0802890    0.0000000   -2.1347277
    3    0.0000000    0.0000000   -0.1103905    0.0000000   -3.4567153
    4    0.0000000    0.0000000    0.0436013    0.0000000    1.4181842
    5    0.2116975    0.0000000    0.0000000    0.0000000    1.7458458
    6    0.0000000    0.1244949    0.0000000    0.0000000    0.0000000
    7    0.0000000    0.0000000    0.0577251    0.0000000    2.0314149
    8    0.2207126    0.0000000    0.0000000    0.0000000    2.5073953
    9    0.0000000    0.1052625    0.0000000    0.0000000    0.0000000
   10    0.0000000    0.0000000    0.0456411    0.0000000   -0.1366136
   11   -4.4885583    0.0000000    0.0000000    0.0000000   -1.2182016
   12    0.0000000   -4.2950183    0.0000000    0.0000000    0.0000000
   13    0.0000000    0.0000000   -4.3708383    0.0000000   -0.7734329
   14    0.0000000    0.0000000    0.0000000   -4.3288349    0.0000000
   15   -1.2182016    0.0000000   -0.7734329    0.0000000   -5.1278616
   16   -0.1641614    0.0000000   -0.1453218    0.0000000   -3.5677157
   17   -0.1105957    0.0000000   -0.8994680    0.0000000   -0.9033143
   18   -0.7628979    0.0000000    0.1725804    0.0000000   -1.2239328
   19    0.0000000    1.0665387    0.0000000    1.3224521    0.0000000
   20    1.2182016    0.0000000   -0.7734329    0.0000000   -0.9547194
   21    0.1641614    0.0000000   -0.1453218    0.0000000   -1.8973868
   22    0.1105957    0.0000000   -0.8994680    0.0000000   -0.2192101
   23   -0.7628979    0.0000000   -0.1725804    0.0000000    1.3083960
   24    0.0000000    1.0665387    0.0000000   -1.3224521    0.0000000

                16           17           18           19           20

    1   -2.1026840   -2.0832301   -2.6458297    0.0000000   -1.6142122
    2   -2.4389161   -1.7706894   -2.2847827    0.0000000   -2.1347277
    3   -4.2149330   -2.2078396   -2.8704353    0.0000000   -3.4567153
    4    0.5921073    0.2377350    2.2126004    0.0000000    1.4181842
    5    0.6495635    2.1440371    1.2523943    0.0000000   -1.7458458
    6    0.0000000    0.0000000    0.0000000   -1.4798969    0.0000000
    7    1.2055653   -0.6917238    1.6023318    0.0000000    2.0314149
    8    1.3320893    1.5205837    0.0588631    0.0000000   -2.5073953
    9    0.0000000    0.0000000    0.0000000   -1.9034235    0.0000000
   10   -0.0362348    1.0788459   -0.9786720    0.0000000   -0.1366136
   11   -0.1641614   -0.1105957   -0.7628979    0.0000000    1.2182016
   12    0.0000000    0.0000000    0.0000000    1.0665387    0.0000000
   13   -0.1453218   -0.8994680    0.1725804    0.0000000   -0.7734329
   14    0.0000000    0.0000000    0.0000000    1.3224521    0.0000000
   15   -3.5677157   -0.9033143   -1.2239328    0.0000000   -0.9547194
   16   -4.2162561   -0.7703261   -1.0501409    0.0000000   -1.8973868
   17   -0.7703261   -3.8634163   -0.6139831    0.0000000   -0.2192101
   18   -1.0501409   -0.6139831   -4.2034546    0.0000000   -1.3083960
   19    0.0000000    0.0000000    0.0000000   -3.3795973    0.0000000
   20   -1.8973868   -0.2192101   -1.3083960    0.0000000   -5.1278616
   21   -2.9729845   -0.4763910   -1.4869140    0.0000000   -3.5677157
   22   -0.4763910   -0.4838106   -0.3324402    0.0000000   -0.9033143
   23    1.4869140    0.3324402    2.0016584    0.0000000    1.2239328
   24    0.0000000    0.0000000    0.0000000   -0.3607925    0.0000000

                21           22           23           24

    1   -2.1026840   -2.0832301    2.6458297    0.0000000
    2   -2.4389161   -1.7706894    2.2847827    0.0000000
    3   -4.2149330   -2.2078396    2.8704353    0.0000000
    4    0.5921073    0.2377350   -2.2126004    0.0000000
    5   -0.6495635   -2.1440371    1.2523943    0.0000000
    6    0.0000000    0.0000000    0.0000000   -1.4798969
    7    1.2055653   -0.6917238   -1.6023318    0.0000000
    8   -1.3320893   -1.5205837    0.0588631    0.0000000
    9    0.0000000    0.0000000    0.0000000   -1.9034235
   10   -0.0362348    1.0788459    0.9786720    0.0000000
   11    0.1641614    0.1105957   -0.7628979    0.0000000
   12    0.0000000    0.0000000    0.0000000    1.0665387
   13   -0.1453218   -0.8994680   -0.1725804    0.0000000
   14    0.0000000    0.0000000    0.0000000   -1.3224521
   15   -1.8973868   -0.2192101    1.3083960    0.0000000
   16   -2.9729845   -0.4763910    1.4869140    0.0000000
   17   -0.4763910   -0.4838106    0.3324402    0.0000000
   18   -1.4869140   -0.3324402    2.0016584    0.0000000
   19    0.0000000    0.0000000    0.0000000   -0.3607925
   20   -3.5677157   -0.9033143    1.2239328    0.0000000
   21   -4.2162561   -0.7703261    1.0501409    0.0000000
   22   -0.7703261   -3.8634163    0.6139831    0.0000000
   23    1.0501409    0.6139831   -4.2034546    0.0000000
   24    0.0000000    0.0000000    0.0000000   -3.3795973



   @RHF iter  21:   -76.02665179982078   -8.05426e-08   1.43289e-05 
  ## One-electron Hamiltonion (Symmetry 0) ##
  Irrep: 1 Size: 24 x 24

                 1            2            3            4            5

    1  -33.0246439    7.8684190   -5.9290132    0.0308747    0.0000000
    2    7.8684190  -10.2765610   -5.0430503    0.1717496    0.0000000
    3   -5.9290132   -5.0430503   -7.6180764    0.1793170    0.0000000
    4    0.0308747    0.1717496    0.1793170   -8.5192932    0.0000000
    5    0.0000000    0.0000000    0.0000000    0.0000000   -8.5588516
    6    0.0000000    0.0000000    0.0000000    0.0000000    0.0000000
    7    0.0057751    0.1168346    0.2445292   -3.8100423    0.0000000
    8    0.0000000    0.0000000    0.0000000    0.0000000   -3.8462219
    9    0.0000000    0.0000000    0.0000000    0.0000000    0.0000000
   10   -0.0004603   -0.0112128   -0.0154166    0.1498435    0.0000000
   11    0.0000000    0.0000000    0.0000000    0.0000000    0.2116975
   12    0.0000000    0.0000000    0.0000000    0.0000000    0.0000000
   13   -0.0032961   -0.0802890   -0.1103905    0.0436013    0.0000000
   14    0.0000000    0.0000000    0.0000000    0.0000000    0.0000000
   15   -1.6142122   -2.1347277   -3.4567153    1.4181842    1.7458458
   16   -2.1026840   -2.4389161   -4.2149330    0.5921073    0.6495635
   17   -2.0832301   -1.7706894   -2.2078396    0.2377350    2.1440371
   18   -2.6458297   -2.2847827   -2.8704353    2.2126004    1.2523943
   19    0.0000000    0.0000000    0.0000000    0.0000000    0.0000000
   20   -1.6142122   -2.1347277   -3.4567153    1.4181842   -1.7458458
   21   -2.1026840   -2.4389161   -4.2149330    0.5921073   -0.6495635
   22   -2.0832301   -1.7706894   -2.2078396    0.2377350   -2.1440371
   23    2.6458297    2.2847827    2.8704353   -2.2126004    1.2523943
   24    0.0000000    0.0000000    0.0000000    0.0000000    0.0000000

                 6            7            8            9           10

    1    0.0000000    0.0057751    0.0000000    0.0000000   -0.0004603
    2    0.0000000    0.1168346    0.0000000    0.0000000   -0.0112128
    3    0.0000000    0.2445292    0.0000000    0.0000000   -0.0154166
    4    0.0000000   -3.8100423    0.0000000    0.0000000    0.1498435
    5    0.0000000    0.0000000   -3.8462219    0.0000000    0.0000000
    6   -8.4544912    0.0000000    0.0000000   -3.7507751    0.0000000
    7    0.0000000   -4.7441495    0.0000000    0.0000000    0.1296083
    8    0.0000000    0.0000000   -4.8285318    0.0000000    0.0000000
    9   -3.7507751    0.0000000    0.0000000   -4.6059196    0.0000000
   10    0.0000000    0.1296083    0.0000000    0.0000000   -4.3440406
   11    0.0000000    0.0000000    0.2207126    0.0000000    0.0000000
   12    0.1244949    0.0000000    0.0000000    0.1052625    0.0000000
   13    0.0000000    0.0577251    0.0000000    0.0000000    0.0456411
   14    0.0000000    0.0000000    0.0000000    0.0000000    0.0000000
   15    0.0000000    2.0314149    2.5073953    0.0000000   -0.1366136
   16    0.0000000    1.2055653    1.3320893    0.0000000   -0.0362348
   17    0.0000000   -0.6917238    1.5205837    0.0000000    1.0788459
   18    0.0000000    1.6023318    0.0588631    0.0000000   -0.9786720
   19   -1.4798969    0.0000000    0.0000000   -1.9034235    0.0000000
   20    0.0000000    2.0314149   -2.5073953    0.0000000   -0.1366136
   21    0.0000000    1.2055653   -1.3320893    0.0000000   -0.0362348
   22    0.0000000   -0.6917238   -1.5205837    0.0000000    1.0788459
   23    0.0000000   -1.6023318    0.0588631    0.0000000    0.9786720
   24   -1.4798969    0.0000000    0.0000000   -1.9034235    0.0000000

                11           12           13           14           15

    1    0.0000000    0.0000000   -0.0032961    0.0000000   -1.6142122
    2    0.0000000    0.0000000   -0.0802890    0.0000000   -2.1347277
    3    0.0000000    0.0000000   -0.1103905    0.0000000   -3.4567153
    4    0.0000000    0.0000000    0.0436013    0.0000000    1.4181842
    5    0.2116975    0.0000000    0.0000000    0.0000000    1.7458458
    6    0.0000000    0.1244949    0.0000000    0.0000000    0.0000000
    7    0.0000000    0.0000000    0.0577251    0.0000000    2.0314149
    8    0.2207126    0.0000000    0.0000000    0.0000000    2.5073953
    9    0.0000000    0.1052625    0.0000000    0.0000000    0.0000000
   10    0.0000000    0.0000000    0.0456411    0.0000000   -0.1366136
   11   -4.4885583    0.0000000    0.0000000    0.0000000   -1.2182016
   12    0.0000000   -4.2950183    0.0000000    0.0000000    0.0000000
   13    0.0000000    0.0000000   -4.3708383    0.0000000   -0.7734329
   14    0.0000000    0.0000000    0.0000000   -4.3288349    0.0000000
   15   -1.2182016    0.0000000   -0.7734329    0.0000000   -5.1278616
   16   -0.1641614    0.0000000   -0.1453218    0.0000000   -3.5677157
   17   -0.1105957    0.0000000   -0.8994680    0.0000000   -0.9033143
   18   -0.7628979    0.0000000    0.1725804    0.0000000   -1.2239328
   19    0.0000000    1.0665387    0.0000000    1.3224521    0.0000000
   20    1.2182016    0.0000000   -0.7734329    0.0000000   -0.9547194
   21    0.1641614    0.0000000   -0.1453218    0.0000000   -1.8973868
   22    0.1105957    0.0000000   -0.8994680    0.0000000   -0.2192101
   23   -0.7628979    0.0000000   -0.1725804    0.0000000    1.3083960
   24    0.0000000    1.0665387    0.0000000   -1.3224521    0.0000000

                16           17           18           19           20

    1   -2.1026840   -2.0832301   -2.6458297    0.0000000   -1.6142122
    2   -2.4389161   -1.7706894   -2.2847827    0.0000000   -2.1347277
    3   -4.2149330   -2.2078396   -2.8704353    0.0000000   -3.4567153
    4    0.5921073    0.2377350    2.2126004    0.0000000    1.4181842
    5    0.6495635    2.1440371    1.2523943    0.0000000   -1.7458458
    6    0.0000000    0.0000000    0.0000000   -1.4798969    0.0000000
    7    1.2055653   -0.6917238    1.6023318    0.0000000    2.0314149
    8    1.3320893    1.5205837    0.0588631    0.0000000   -2.5073953
    9    0.0000000    0.0000000    0.0000000   -1.9034235    0.0000000
   10   -0.0362348    1.0788459   -0.9786720    0.0000000   -0.1366136
   11   -0.1641614   -0.1105957   -0.7628979    0.0000000    1.2182016
   12    0.0000000    0.0000000    0.0000000    1.0665387    0.0000000
   13   -0.1453218   -0.8994680    0.1725804    0.0000000   -0.7734329
   14    0.0000000    0.0000000    0.0000000    1.3224521    0.0000000
   15   -3.5677157   -0.9033143   -1.2239328    0.0000000   -0.9547194
   16   -4.2162561   -0.7703261   -1.0501409    0.0000000   -1.8973868
   17   -0.7703261   -3.8634163   -0.6139831    0.0000000   -0.2192101
   18   -1.0501409   -0.6139831   -4.2034546    0.0000000   -1.3083960
   19    0.0000000    0.0000000    0.0000000   -3.3795973    0.0000000
   20   -1.8973868   -0.2192101   -1.3083960    0.0000000   -5.1278616
   21   -2.9729845   -0.4763910   -1.4869140    0.0000000   -3.5677157
   22   -0.4763910   -0.4838106   -0.3324402    0.0000000   -0.9033143
   23    1.4869140    0.3324402    2.0016584    0.0000000    1.2239328
   24    0.0000000    0.0000000    0.0000000   -0.3607925    0.0000000

                21           22           23           24

    1   -2.1026840   -2.0832301    2.6458297    0.0000000
    2   -2.4389161   -1.7706894    2.2847827    0.0000000
    3   -4.2149330   -2.2078396    2.8704353    0.0000000
    4    0.5921073    0.2377350   -2.2126004    0.0000000
    5   -0.6495635   -2.1440371    1.2523943    0.0000000
    6    0.0000000    0.0000000    0.0000000   -1.4798969
    7    1.2055653   -0.6917238   -1.6023318    0.0000000
    8   -1.3320893   -1.5205837    0.0588631    0.0000000
    9    0.0000000    0.0000000    0.0000000   -1.9034235
   10   -0.0362348    1.0788459    0.9786720    0.0000000
   11    0.1641614    0.1105957   -0.7628979    0.0000000
   12    0.0000000    0.0000000    0.0000000    1.0665387
   13   -0.1453218   -0.8994680   -0.1725804    0.0000000
   14    0.0000000    0.0000000    0.0000000   -1.3224521
   15   -1.8973868   -0.2192101    1.3083960    0.0000000
   16   -2.9729845   -0.4763910    1.4869140    0.0000000
   17   -0.4763910   -0.4838106    0.3324402    0.0000000
   18   -1.4869140   -0.3324402    2.0016584    0.0000000
   19    0.0000000    0.0000000    0.0000000   -0.3607925
   20   -3.5677157   -0.9033143    1.2239328    0.0000000
   21   -4.2162561   -0.7703261    1.0501409    0.0000000
   22   -0.7703261   -3.8634163    0.6139831    0.0000000
   23    1.0501409    0.6139831   -4.2034546    0.0000000
   24    0.0000000    0.0000000    0.0000000   -3.3795973



   @RHF iter  22:   -76.02665182672570   -2.69049e-08   8.28032e-06 

  ==> Post-Iterations <==

	Orbital Energies (a.u.)
	-----------------------

	Doubly Occupied:                                                      

	   1A    -20.551437     2A     -1.336602     3A     -0.696475  
	   4A     -0.568335     5A     -0.493426  

	Virtual:                                                              

	   6A      0.185088     7A      0.256110     8A      0.784722  
	   9A      0.857118    10A      1.164613    11A      1.200066  
	  12A      1.254491    13A      1.435737    14A      1.479069  
	  15A      1.668767    16A      1.865879    17A      1.938774  
	  18A      2.446013    19A      2.487765    20A      3.289176  
	  21A      3.333319    22A      3.512183    23A      3.856666  
	  24A      4.151321  

	Final Occupation by Irrep:
	          A 
	DOCC [     5 ]

  Energy converged.

  @RHF Final Energy:   -76.02665182672570

   => Energetics <=

    Nuclear Repulsion Energy =              9.1793878830234998
    One-Electron Energy =                -123.1195289751908319
    Two-Electron Energy =                  37.9134892654416120
    DFT Exchange-Correlation Energy =       0.0000000000000000
    Empirical Dispersion Energy =           0.0000000000000000
    Total Energy =                        -76.0266518267257254



Properties will be evaluated at   0.000000,   0.000000,   0.000000 Bohr
  ==> Properties <==


Properties computed using the SCF density density matrix
  Nuclear Dipole Moment: (a.u.)
     X:     0.0000      Y:     0.0000      Z:    -0.9881

  Electronic Dipole Moment: (a.u.)
     X:    -0.0000      Y:    -0.0000      Z:     0.1724

  Dipole Moment: (a.u.)
     X:    -0.0000      Y:    -0.0000      Z:    -0.8157     Total:     0.8157

  Dipole Moment: (Debye)
     X:    -0.0000      Y:    -0.0000      Z:    -2.0732     Total:     2.0732


  Saving occupied orbitals to File 180.

*** tstop() called on john2 at Thu Aug 15 16:59:46 2013
Module time:
	user time   =       0.69 seconds =       0.01 minutes
	system time =       0.02 seconds =       0.00 minutes
	total time  =          0 seconds =       0.00 minutes
Total time:
	user time   =      11.80 seconds =       0.20 minutes
	system time =       0.41 seconds =       0.01 minutes
	total time  =          7 seconds =       0.12 minutes

*** PSI4 exiting successfully. Buy a developer a beer!
