
    -----------------------------------------------------------------------
          Psi4: An Open-Source Ab Initio Electronic Structure Package
                               Psi4 undefined 

                         Git: Rev {sto-ng} 7a76e79 


    D. G. A. Smith, L. A. Burns, A. C. Simmonett, R. M. Parrish,
    M. C. Schieber, R. Galvelis, P. Kraus, H. Kruse, R. Di Remigio,
    A. Alenaizan, A. M. James, S. Lehtola, J. P. Misiewicz, M. Scheurer,
    R. A. Shaw, J. B. Schriber, Y. Xie, Z. L. Glick, D. A. Sirianni,
    J. S. O'Brien, J. M. Waldrop, A. Kumar, E. G. Hohenstein,
    B. P. Pritchard, B. R. Brooks, H. F. Schaefer III, A. Yu. Sokolov,
    K. Patkowski, A. E. DePrince III, U. Bozkaya, R. A. King,
    F. A. Evangelista, J. M. Turney, T. D. Crawford, C. D. Sherrill,
    J. Chem. Phys. 152(18) 184108 (2020). https://doi.org/10.1063/5.0006002

                            Additional Code Authors
    E. T. Seidl, C. L. Janssen, E. F. Valeev, M. L. Leininger,
    J. F. Gonthier, R. M. Richard, H. R. McAlexander, M. Saitow, X. Wang,
    P. Verma, and M. H. Lechner

             Previous Authors, Complete List of Code Contributors,
                       and Citations for Specific Modules
    https://github.com/psi4/psi4/blob/master/codemeta.json
    https://github.com/psi4/psi4/graphs/contributors
    http://psicode.org/psi4manual/master/introduction.html#citing-psifour

    -----------------------------------------------------------------------


    Psi4 started on: Saturday, 03 July 2021 12:57AM

    Process ID: 118683
    Host:       thinkpad
    PSIDATADIR: /home/work/psi4/install/share/psi4
    Memory:     500.0 MiB
    Threads:    4
    
  ==> Input File <==

--------------------------------------------------------------------------
#! DF-SCF cc-pVDZ of benzene-hydronium ion, scanning the dissociation coordinate with
#! Python's built-in loop mechanism. The geometry is specified by a Z-matrix with dummy
#! atoms, fixed parameters, updated parameters, and separate charge/multiplicity
#! specifiers for each monomer. One-electron properties computed for dimer and one monomer.
 
import warnings  #TEST
refENuc   = [ 268.6171792624, 13.021346350778909,  #TEST
              258.850942303987608, 13.0213463507789093 ] #TEST
refESCF   = [ -303.20625699560, -75.32040649421,  #TEST
              -303.20499965837, -75.32040649421 ] #TEST
refDipY   = [ 17.7759552887,  2.2770512884, 21.6845920985,  2.2770512884 ]  #TEST
refQuadYY = [ 25.4523671288, -5.5116358496, 57.3954213176, -5.5116358496 ]  #TEST
 
Rvals = [ 4.0, 5.0 ]

set {
    DIIS True
    DIIS_MIN_VECS 5
    DIIS_MAX_VECS 9
    MAXITER 1000
    E_CONVERGENCE 11
    D_CONVERGENCE 11
    GUESS SAD
    SCF_TYPE DF
    REFERENCE RHF
}

count = 0                                                                                            #TEST

for R in Rvals:
    molecule dimer {
    0 1
               C          0.710500000000    Bz    -1.230622098778
               C          1.421000000000    Bz     0.000000000000
               C          0.710500000000    Bz     1.230622098778
               C         -0.710500000000    Bz     1.230622098778
               H          1.254500000000    Bz    -2.172857738095
               H         -1.254500000000    Bz     2.172857738095
               C         -0.710500000000    Bz    -1.230622098778
               C         -1.421000000000    Bz     0.000000000000
               H          2.509000000000    Bz     0.000000000000
               H          1.254500000000    Bz     2.172857738095
               H         -1.254500000000    Bz    -2.172857738095
               H         -2.509000000000    Bz     0.000000000000
    --
    1 1
               O          0.000000000000    Oy     0.000000000000
               H          0.494974746831    Hy    -0.857321409974
               H          0.494974746831    Hy     0.857321409974
               H         -0.989949493661    Hy     0.000000000000
    units angstrom
    no_reorient
    }
    #dimer.Bz = -4.794637665924 + R
    #dimer.Oy = -0.794637665924 + R
    #dimer.Hy = -0.444637665924 + R
    dimer.Bz = 0.0
    dimer.Oy = R
    dimer.Hy = R + 0.35
    
    # Force COM translation so multipole origin (0, 0, 0) and COM will be identical
    dimer.move_to_com()

    set BASIS sto-3g
    set DF_BASIS_SCF cc-pVDZ-JKFIT

    activate(dimer)

    eehf, hf_wfn = energy('scf', return_wfn=True)
    oeprop(hf_wfn, "DIPOLE", "QUADRUPOLE", title='BZH3O+ SCF')

    compare_values(refENuc[count], dimer.nuclear_repulsion_energy(),                                 #TEST
                      9, "Nuclear repulsion energy %d" % count)                                      #TEST
    compare_values(refESCF[count], eehf, 9, "Reference energy %d" % count)                           #TEST
    with warnings.catch_warnings():  #TEST
        warnings.simplefilter("ignore")  #TEST
        compare_values(refDipY[count], variable("SCF DIPOLE Y"),                                     #TEST
                          5, "Y Component of Dipole %d" % count)                                     #TEST
        compare_values(refQuadYY[count], variable("BZH3O+ SCF QUADRUPOLE YY"),                       #TEST
                          5, "YY Component of Quadrupole %d" % count)                                #TEST
    compare_values(refDipY[count], variable("SCF DIPOLE")[1] * constants.dipmom_au2debye,     #TEST
                      5, "Y Component of Dipole %d" % count)                                         #TEST
    compare_values(refQuadYY[count], variable("BZH3O+ SCF QUADRUPOLE")[1][1] * constants.dipmom_au2debye * constants.bohr2angstroms,  #TEST
                      5, "YY Component of Quadrupole %d" % count)                                    #TEST

    clean()
    count = count + 1                                                                                #TEST

    monoB = dimer.extract_subsets(2)

    # Force COM translation so multipole origin (0, 0, 0) and COM will be identical
    monoB.move_to_com()

    eehf, hf_wfn = energy('scf', return_wfn=True)
    oeprop(hf_wfn, "DIPOLE", "QUADRUPOLE",title="H3O+ SCF")
    
    compare_values(refENuc[count], monoB.nuclear_repulsion_energy(),                                 #TEST
                      9, "Nuclear repulsion energy %d" % count)                                      #TEST
    compare_values(refESCF[count], eehf, 9, "Reference energy %d" % count)                           #TEST
    with warnings.catch_warnings():  #TEST
        warnings.simplefilter("ignore")  #TEST
        compare_values(refDipY[count], variable("SCF DIPOLE Y"),                                     #TEST
                          5, "Y Component of Dipole %d" % count)                                     #TEST
        compare_values(refQuadYY[count], variable("H3O+ SCF QUADRUPOLE YY"),                         #TEST
                          5, "YY Component of Quadrupole %d" % count)                                #TEST
    compare_values(refDipY[count], variable("SCF DIPOLE")[1] * constants.dipmom_au2debye,     #TEST
                      5, "Y Component of Dipole %d" % count)                                         #TEST
    compare_values(refQuadYY[count], variable("H3O+ SCF QUADRUPOLE")[1][1] * constants.dipmom_au2debye * constants.bohr2angstroms,  #TEST
                      5, "YY Component of Quadrupole %d" % count)                                    #TEST

    clean()
    count = count + 1                                                                                #TEST

--------------------------------------------------------------------------
Molecule: geometry: Molecule is not complete, please use 'update_geometry'
                    once all variables are set.

Molecule: Setting a variable updates the molecular geometry, for
          cartesian molecules this can lead to surprising behaviour.
          Freezing COM and orientation to prevent this.

Molecule: Setting geometry variable Bz to 0.000000
Molecule: Setting geometry variable Oy to 4.000000
Molecule: Setting geometry variable Hy to 4.350000

Scratch directory: /home/work/scratch/

*** tstart() called on thinkpad
*** at Sat Jul  3 00:57:09 2021

   => Loading Basis Set <=

    Name: STO-3G
    Role: ORBITAL
    Keyword: BASIS
    atoms 1-4, 7-8         entry C          line    59 file /home/work/psi4/install/share/psi4/basis/sto-3g.gbs 
    atoms 5-6, 9-12, 14-16 entry H          line    17 file /home/work/psi4/install/share/psi4/basis/sto-3g.gbs 
    atoms 13               entry O          line    79 file /home/work/psi4/install/share/psi4/basis/sto-3g.gbs 


         ---------------------------------------------------------
                                   SCF
               by Justin Turney, Rob Parrish, Andy Simmonett
                          and Daniel G. A. Smith
                              RHF Reference
                        4 Threads,    500 MiB Core
         ---------------------------------------------------------

  ==> Geometry <==

    Molecular point group: cs
    Full point group: C3v

    Geometry (in Angstrom), charge = 1, multiplicity = 1:

       Center              X                  Y                   Z               Mass       
    ------------   -----------------  -----------------  -----------------  -----------------
         C            0.710500000000    -0.794637665934    -1.230622098778    12.000000000000
         C            1.421000000000    -0.794637665934     0.000000000000    12.000000000000
         C            0.710500000000    -0.794637665934     1.230622098778    12.000000000000
         C           -0.710500000000    -0.794637665934     1.230622098778    12.000000000000
         H            1.254500000000    -0.794637665934    -2.172857738095     1.007825032230
         H           -1.254500000000    -0.794637665934     2.172857738095     1.007825032230
         C           -0.710500000000    -0.794637665934    -1.230622098778    12.000000000000
         C           -1.421000000000    -0.794637665934     0.000000000000    12.000000000000
         H            2.509000000000    -0.794637665934     0.000000000000     1.007825032230
         H            1.254500000000    -0.794637665934     2.172857738095     1.007825032230
         H           -1.254500000000    -0.794637665934    -2.172857738095     1.007825032230
         H           -2.509000000000    -0.794637665934     0.000000000000     1.007825032230
         O           -0.000000000000     3.205362334066     0.000000000000    15.994914619570
         H            0.494974746831     3.555362334066    -0.857321409974     1.007825032230
         H            0.494974746831     3.555362334066     0.857321409974     1.007825032230
         H           -0.989949493661     3.555362334066     0.000000000000     1.007825032230

  Running in cs symmetry.

  Rotational constants: A =      0.09043  B =      0.04886  C =      0.04886 [cm^-1]
  Rotational constants: A =   2711.05136  B =   1464.67256  C =   1464.67256 [MHz]
  Nuclear repulsion =  268.617179262407603

  Charge       = 1
  Multiplicity = 1
  Electrons    = 52
  Nalpha       = 26
  Nbeta        = 26

  ==> Algorithm <==

  SCF Algorithm Type is DF.
  DIIS enabled.
  MOM disabled.
  Fractional occupation disabled.
  Guess Type is SAD.
  Energy threshold   = 1.00e-11
  Density threshold  = 1.00e-11
  Integral threshold = 1.00e-12

  ==> Primary Basis <==

  Basis Set: STO-3G
    Blend: STO-3G
    Number of shells: 30
    Number of basis functions: 44
    Number of Cartesian functions: 44
    Spherical Harmonics?: true
    Max angular momentum: 1

   => Loading Basis Set <=

    Name: CC-PVDZ-JKFIT
    Role: JKFIT
    Keyword: DF_BASIS_SCF
    atoms 1-4, 7-8         entry C          line   121 file /home/work/psi4/install/share/psi4/basis/cc-pvdz-jkfit.gbs 
    atoms 5-6, 9-12, 14-16 entry H          line    51 file /home/work/psi4/install/share/psi4/basis/cc-pvdz-jkfit.gbs 
    atoms 13               entry O          line   221 file /home/work/psi4/install/share/psi4/basis/cc-pvdz-jkfit.gbs 

  ==> Integral Setup <==

  DFHelper Memory: AOs need 0.014 GiB; user supplied 0.366 GiB. Using in-core AOs.

  ==> MemDFJK: Density-Fitted J/K Matrices <==

    J tasked:                   Yes
    K tasked:                   Yes
    wK tasked:                   No
    OpenMP threads:               4
    Memory [MiB]:               375
    Algorithm:                 Core
    Schwarz Cutoff:           1E-12
    Mask sparsity (%):       1.5496
    Fitting Condition:        1E-10

   => Auxiliary Basis Set <=

  Basis Set: CC-PVDZ-JKFIT
    Blend: CC-PVDZ-JKFIT
    Number of shells: 249
    Number of basis functions: 697
    Number of Cartesian functions: 792
    Spherical Harmonics?: true
    Max angular momentum: 3

  Minimum eigenvalue in the overlap matrix is 1.7808783967E-01.
  Reciprocal condition number of the overlap matrix is 7.4417197115E-02.
    Using symmetric orthogonalization.

  ==> Pre-Iterations <==

  SCF Guess: Superposition of Atomic Densities via on-the-fly atomic UHF (no occupation information).

   -------------------------
    Irrep   Nso     Nmo    
   -------------------------
     A'        28      28 
     A"        16      16 
   -------------------------
    Total      44      44
   -------------------------

  ==> Iterations <==

                           Total Energy        Delta E     RMS |[F,P]|

   @DF-RHF iter SAD:  -298.09181559815727   -2.98092e+02   0.00000e+00 
   @DF-RHF iter   1:  -303.18692629548980   -5.09511e+00   4.95856e-03 DIIS
   @DF-RHF iter   2:  -303.20519763015812   -1.82713e-02   1.06616e-03 DIIS
   @DF-RHF iter   3:  -303.20622538629186   -1.02776e-03   2.02100e-04 DIIS
   @DF-RHF iter   4:  -303.20625574100086   -3.03547e-05   2.95060e-05 DIIS
   @DF-RHF iter   5:  -303.20625682104844   -1.08005e-06   9.50934e-06 DIIS
   @DF-RHF iter   6:  -303.20625699046224   -1.69414e-07   1.73297e-06 DIIS
   @DF-RHF iter   7:  -303.20625699557502   -5.11278e-09   1.06245e-07 DIIS
   @DF-RHF iter   8:  -303.20625699559190   -1.68825e-11   4.05189e-08 DIIS
   @DF-RHF iter   9:  -303.20625699559417   -2.27374e-12   1.92968e-08 DIIS
   @DF-RHF iter  10:  -303.20625699559531   -1.13687e-12   8.53605e-09 DIIS
   @DF-RHF iter  11:  -303.20625699559560   -2.84217e-13   9.30131e-10 DIIS
   @DF-RHF iter  12:  -303.20625699559548    1.13687e-13   1.30413e-10 DIIS
   @DF-RHF iter  13:  -303.20625699559560   -1.13687e-13   1.73837e-11 DIIS
   @DF-RHF iter  14:  -303.20625699559571   -1.13687e-13   4.78830e-12 DIIS
  Energy and wave function converged.


  ==> Post-Iterations <==

    Orbital Energies [Eh]
    ---------------------

    Doubly Occupied:                                                      

       1Ap   -20.841022     2Ap   -11.131451     1App  -11.131451  
       3Ap   -11.131382     2App  -11.131216     4Ap   -11.131216  
       5Ap   -11.131131     6Ap    -1.735966     7Ap    -1.177220  
       3App   -1.048347     8Ap    -1.048347     9Ap    -1.040704  
       4App   -1.040704    10Ap    -0.888139     5App   -0.863988  
      11Ap    -0.863988    12Ap    -0.754290    13Ap    -0.699787  
       6App   -0.643866     7App   -0.631087    14Ap    -0.631087  
      15Ap    -0.546821    16Ap    -0.532754     8App   -0.532754  
       9App   -0.376469    17Ap    -0.376469  

    Virtual:                                                              

      18Ap     0.051961    10App    0.157002    19Ap     0.157002  
      20Ap     0.209699    11App    0.209699    21Ap     0.381297  
      22Ap     0.481209    23Ap     0.545968    12App    0.545968  
      24Ap     0.594357    25Ap     0.603442    13App    0.603442  
      14App    0.764591    26Ap     0.764591    27Ap     0.767006  
      15App    0.767006    16App    0.943364    28Ap     1.006810  

    Final Occupation by Irrep:
             Ap   App 
    DOCC [    17,    9 ]

  @DF-RHF Final Energy:  -303.20625699559571

   => Energetics <=

    Nuclear Repulsion Energy =            268.6171792624076033
    One-Electron Energy =                -937.5235597174079203
    Two-Electron Energy =                 365.7001234594046082
    Total Energy =                       -303.2062569955957088

Computation Completed


Properties will be evaluated at   0.000000,   0.000000,   0.000000 [a0]

Properties computed using the SCF density matrix

  Nuclear Dipole Moment: [e a0]
     X:     0.0000      Y:     5.5448      Z:    -0.0000

  Electronic Dipole Moment: [e a0]
     X:    -0.0000      Y:     1.4488      Z:     0.0000

  Dipole Moment: [e a0]
     X:    -0.0000      Y:     6.9936      Z:    -0.0000     Total:     6.9936

  Dipole Moment: [D]
     X:    -0.0000      Y:    17.7760      Z:    -0.0000     Total:    17.7760


*** tstop() called on thinkpad at Sat Jul  3 00:57:10 2021
Module time:
	user time   =       2.67 seconds =       0.04 minutes
	system time =       0.07 seconds =       0.00 minutes
	total time  =          1 seconds =       0.02 minutes
Total time:
	user time   =       2.67 seconds =       0.04 minutes
	system time =       0.07 seconds =       0.00 minutes
	total time  =          1 seconds =       0.02 minutes


Properties will be evaluated at   0.000000,   0.000000,   0.000000 [a0]

Properties computed using the BZH3O+ SCF density matrix

  Nuclear Dipole Moment: [e a0]
     X:     0.0000      Y:     5.5448      Z:    -0.0000

  Electronic Dipole Moment: [e a0]
     X:    -0.0000      Y:     1.4488      Z:     0.0000

  Dipole Moment: [e a0]
     X:    -0.0000      Y:     6.9936      Z:    -0.0000     Total:     6.9936

  Dipole Moment: [D]
     X:    -0.0000      Y:    17.7760      Z:    -0.0000     Total:    17.7760

  Quadrupole Moment: [D A]
    XX:   -33.2696     YY:    25.4524     ZZ:   -33.2696
    XY:    -0.0000     XZ:    -0.0000     YZ:    -0.0000

  Traceless Quadrupole Moment: [D A]
    XX:   -19.5740     YY:    39.1480     ZZ:   -19.5740
    XY:    -0.0000     XZ:    -0.0000     YZ:    -0.0000

    Nuclear repulsion energy 0............................................................PASSED
    Reference energy 0....................................................................PASSED
    Y Component of Dipole 0...............................................................PASSED
    YY Component of Quadrupole 0..........................................................PASSED
    Y Component of Dipole 0...............................................................PASSED
    YY Component of Quadrupole 0..........................................................PASSED

Scratch directory: /home/work/scratch/

*** tstart() called on thinkpad
*** at Sat Jul  3 00:57:10 2021

   => Loading Basis Set <=

    Name: STO-3G
    Role: ORBITAL
    Keyword: BASIS
    atoms 1   entry O          line    79 file /home/work/psi4/install/share/psi4/basis/sto-3g.gbs 
    atoms 2-4 entry H          line    17 file /home/work/psi4/install/share/psi4/basis/sto-3g.gbs 


         ---------------------------------------------------------
                                   SCF
               by Justin Turney, Rob Parrish, Andy Simmonett
                          and Daniel G. A. Smith
                              RHF Reference
                        4 Threads,    500 MiB Core
         ---------------------------------------------------------

  ==> Geometry <==

    Molecular point group: cs
    Full point group: C3v

    Geometry (in Angstrom), charge = 1, multiplicity = 1:

       Center              X                  Y                   Z               Mass       
    ------------   -----------------  -----------------  -----------------  -----------------
         O           -0.000000000000    -0.055641739371     0.000000000000    15.994914619570
         H            0.494974746831     0.294358260629    -0.857321409974     1.007825032230
         H            0.494974746831     0.294358260629     0.857321409974     1.007825032230
         H           -0.989949493661     0.294358260629     0.000000000000     1.007825032230

  Running in cs symmetry.

  Rotational constants: A =      9.40193  B =      9.40193  C =      5.68937 [cm^-1]
  Rotational constants: A = 281862.63967  B = 281862.63967  C = 170562.96139 [MHz]
  Nuclear repulsion =   13.021346350778909

  Charge       = 1
  Multiplicity = 1
  Electrons    = 10
  Nalpha       = 5
  Nbeta        = 5

  ==> Algorithm <==

  SCF Algorithm Type is DF.
  DIIS enabled.
  MOM disabled.
  Fractional occupation disabled.
  Guess Type is SAD.
  Energy threshold   = 1.00e-11
  Density threshold  = 1.00e-11
  Integral threshold = 1.00e-12

  ==> Primary Basis <==

  Basis Set: STO-3G
    Blend: STO-3G
    Number of shells: 6
    Number of basis functions: 8
    Number of Cartesian functions: 8
    Spherical Harmonics?: true
    Max angular momentum: 1

   => Loading Basis Set <=

    Name: CC-PVDZ-JKFIT
    Role: JKFIT
    Keyword: DF_BASIS_SCF
    atoms 1   entry O          line   221 file /home/work/psi4/install/share/psi4/basis/cc-pvdz-jkfit.gbs 
    atoms 2-4 entry H          line    51 file /home/work/psi4/install/share/psi4/basis/cc-pvdz-jkfit.gbs 

  ==> Integral Setup <==

  DFHelper Memory: AOs need 0.000 GiB; user supplied 0.366 GiB. Using in-core AOs.

  ==> MemDFJK: Density-Fitted J/K Matrices <==

    J tasked:                   Yes
    K tasked:                   Yes
    wK tasked:                   No
    OpenMP threads:               4
    Memory [MiB]:               375
    Algorithm:                 Core
    Schwarz Cutoff:           1E-12
    Mask sparsity (%):       0.0000
    Fitting Condition:        1E-10

   => Auxiliary Basis Set <=

  Basis Set: CC-PVDZ-JKFIT
    Blend: CC-PVDZ-JKFIT
    Number of shells: 51
    Number of basis functions: 139
    Number of Cartesian functions: 156
    Spherical Harmonics?: true
    Max angular momentum: 3

  Minimum eigenvalue in the overlap matrix is 3.6594970919E-01.
  Reciprocal condition number of the overlap matrix is 1.9392548146E-01.
    Using symmetric orthogonalization.

  ==> Pre-Iterations <==

  SCF Guess: Superposition of Atomic Densities via on-the-fly atomic UHF (no occupation information).

   -------------------------
    Irrep   Nso     Nmo    
   -------------------------
     A'         6       6 
     A"         2       2 
   -------------------------
    Total       8       8
   -------------------------

  ==> Iterations <==

                           Total Energy        Delta E     RMS |[F,P]|

   @DF-RHF iter SAD:   -74.62535137581530   -7.46254e+01   0.00000e+00 
   @DF-RHF iter   1:   -75.30994741930627   -6.84596e-01   1.88784e-02 DIIS
   @DF-RHF iter   2:   -75.31970920105576   -9.76178e-03   4.43870e-03 DIIS
   @DF-RHF iter   3:   -75.32038305623533   -6.73855e-04   9.08762e-04 DIIS
   @DF-RHF iter   4:   -75.32040551231597   -2.24561e-05   1.16071e-04 DIIS
   @DF-RHF iter   5:   -75.32040638569521   -8.73379e-07   3.89132e-05 DIIS
   @DF-RHF iter   6:   -75.32040649420590   -1.08511e-07   1.97104e-07 DIIS
   @DF-RHF iter   7:   -75.32040649420694   -1.03739e-12   2.86949e-10 DIIS
   @DF-RHF iter   8:   -75.32040649420699   -5.68434e-14   1.04999e-13 DIIS
  Energy and wave function converged.


  ==> Post-Iterations <==

    Orbital Energies [Eh]
    ---------------------

    Doubly Occupied:                                                      

       1Ap   -20.845305     2Ap    -1.740778     3Ap    -1.045562  
       1App   -1.045562     4Ap    -0.893667  

    Virtual:                                                              

       5Ap     0.047800     2App    0.205207     6Ap     0.205207  

    Final Occupation by Irrep:
             Ap   App 
    DOCC [     4,    1 ]

  @DF-RHF Final Energy:   -75.32040649420699

   => Energetics <=

    Nuclear Repulsion Energy =             13.0213463507789093
    One-Electron Energy =                -125.5417601228481317
    Two-Electron Energy =                  37.2000072778622197
    Total Energy =                        -75.3204064942069920

Computation Completed


Properties will be evaluated at   0.000000,   0.000000,   0.000000 [a0]

Properties computed using the SCF density matrix

  Nuclear Dipole Moment: [e a0]
     X:     0.0000      Y:     0.8276      Z:     0.0000

  Electronic Dipole Moment: [e a0]
     X:    -0.0000      Y:     0.0683      Z:     0.0000

  Dipole Moment: [e a0]
     X:     0.0000      Y:     0.8959      Z:     0.0000     Total:     0.8959

  Dipole Moment: [D]
     X:     0.0000      Y:     2.2771      Z:     0.0000     Total:     2.2771


*** tstop() called on thinkpad at Sat Jul  3 00:57:10 2021
Module time:
	user time   =       0.66 seconds =       0.01 minutes
	system time =       0.01 seconds =       0.00 minutes
	total time  =          0 seconds =       0.00 minutes
Total time:
	user time   =       3.39 seconds =       0.06 minutes
	system time =       0.08 seconds =       0.00 minutes
	total time  =          1 seconds =       0.02 minutes


Properties will be evaluated at   0.000000,   0.000000,   0.000000 [a0]

Properties computed using the H3O+ SCF density matrix

  Nuclear Dipole Moment: [e a0]
     X:     0.0000      Y:     0.8276      Z:     0.0000

  Electronic Dipole Moment: [e a0]
     X:    -0.0000      Y:     0.0683      Z:     0.0000

  Dipole Moment: [e a0]
     X:     0.0000      Y:     0.8959      Z:     0.0000     Total:     0.8959

  Dipole Moment: [D]
     X:     0.0000      Y:     2.2771      Z:     0.0000     Total:     2.2771

  Quadrupole Moment: [D A]
    XX:    -2.5134     YY:    -5.5116     ZZ:    -2.5134
    XY:     0.0000     XZ:    -0.0000     YZ:     0.0000

  Traceless Quadrupole Moment: [D A]
    XX:     0.9994     YY:    -1.9989     ZZ:     0.9994
    XY:     0.0000     XZ:    -0.0000     YZ:     0.0000

    Nuclear repulsion energy 1............................................................PASSED
    Reference energy 1....................................................................PASSED
    Y Component of Dipole 1...............................................................PASSED
    YY Component of Quadrupole 1..........................................................PASSED
    Y Component of Dipole 1...............................................................PASSED
    YY Component of Quadrupole 1..........................................................PASSED
Molecule: geometry: Molecule is not complete, please use 'update_geometry'
                    once all variables are set.

Molecule: Setting a variable updates the molecular geometry, for
          cartesian molecules this can lead to surprising behaviour.
          Freezing COM and orientation to prevent this.

Molecule: Setting geometry variable Bz to 0.000000
Molecule: Setting geometry variable Oy to 5.000000
Molecule: Setting geometry variable Hy to 5.350000

Scratch directory: /home/work/scratch/

*** tstart() called on thinkpad
*** at Sat Jul  3 00:57:10 2021

   => Loading Basis Set <=

    Name: STO-3G
    Role: ORBITAL
    Keyword: BASIS
    atoms 1-4, 7-8         entry C          line    59 file /home/work/psi4/install/share/psi4/basis/sto-3g.gbs 
    atoms 5-6, 9-12, 14-16 entry H          line    17 file /home/work/psi4/install/share/psi4/basis/sto-3g.gbs 
    atoms 13               entry O          line    79 file /home/work/psi4/install/share/psi4/basis/sto-3g.gbs 


         ---------------------------------------------------------
                                   SCF
               by Justin Turney, Rob Parrish, Andy Simmonett
                          and Daniel G. A. Smith
                              RHF Reference
                        4 Threads,    500 MiB Core
         ---------------------------------------------------------

  ==> Geometry <==

    Molecular point group: cs
    Full point group: C3v

    Geometry (in Angstrom), charge = 1, multiplicity = 1:

       Center              X                  Y                   Z               Mass       
    ------------   -----------------  -----------------  -----------------  -----------------
         C            0.710500000000    -0.990571556795    -1.230622098778    12.000000000000
         C            1.421000000000    -0.990571556795     0.000000000000    12.000000000000
         C            0.710500000000    -0.990571556795     1.230622098778    12.000000000000
         C           -0.710500000000    -0.990571556795     1.230622098778    12.000000000000
         H            1.254500000000    -0.990571556795    -2.172857738095     1.007825032230
         H           -1.254500000000    -0.990571556795     2.172857738095     1.007825032230
         C           -0.710500000000    -0.990571556795    -1.230622098778    12.000000000000
         C           -1.421000000000    -0.990571556795     0.000000000000    12.000000000000
         H            2.509000000000    -0.990571556795     0.000000000000     1.007825032230
         H            1.254500000000    -0.990571556795     2.172857738095     1.007825032230
         H           -1.254500000000    -0.990571556795    -2.172857738095     1.007825032230
         H           -2.509000000000    -0.990571556795     0.000000000000     1.007825032230
         O           -0.000000000000     4.009428443205     0.000000000000    15.994914619570
         H            0.494974746831     4.359428443205    -0.857321409974     1.007825032230
         H            0.494974746831     4.359428443205     0.857321409974     1.007825032230
         H           -0.989949493661     4.359428443205     0.000000000000     1.007825032230

  Running in cs symmetry.

  Rotational constants: A =      0.09043  B =      0.03480  C =      0.03480 [cm^-1]
  Rotational constants: A =   2711.05136  B =   1043.36126  C =   1043.36126 [MHz]
  Nuclear repulsion =  258.850942303987608

  Charge       = 1
  Multiplicity = 1
  Electrons    = 52
  Nalpha       = 26
  Nbeta        = 26

  ==> Algorithm <==

  SCF Algorithm Type is DF.
  DIIS enabled.
  MOM disabled.
  Fractional occupation disabled.
  Guess Type is SAD.
  Energy threshold   = 1.00e-11
  Density threshold  = 1.00e-11
  Integral threshold = 1.00e-12

  ==> Primary Basis <==

  Basis Set: STO-3G
    Blend: STO-3G
    Number of shells: 30
    Number of basis functions: 44
    Number of Cartesian functions: 44
    Spherical Harmonics?: true
    Max angular momentum: 1

   => Loading Basis Set <=

    Name: CC-PVDZ-JKFIT
    Role: JKFIT
    Keyword: DF_BASIS_SCF
    atoms 1-4, 7-8         entry C          line   121 file /home/work/psi4/install/share/psi4/basis/cc-pvdz-jkfit.gbs 
    atoms 5-6, 9-12, 14-16 entry H          line    51 file /home/work/psi4/install/share/psi4/basis/cc-pvdz-jkfit.gbs 
    atoms 13               entry O          line   221 file /home/work/psi4/install/share/psi4/basis/cc-pvdz-jkfit.gbs 

  ==> Integral Setup <==

  DFHelper Memory: AOs need 0.014 GiB; user supplied 0.366 GiB. Using in-core AOs.

  ==> MemDFJK: Density-Fitted J/K Matrices <==

    J tasked:                   Yes
    K tasked:                   Yes
    wK tasked:                   No
    OpenMP threads:               4
    Memory [MiB]:               375
    Algorithm:                 Core
    Schwarz Cutoff:           1E-12
    Mask sparsity (%):       4.0289
    Fitting Condition:        1E-10

   => Auxiliary Basis Set <=

  Basis Set: CC-PVDZ-JKFIT
    Blend: CC-PVDZ-JKFIT
    Number of shells: 249
    Number of basis functions: 697
    Number of Cartesian functions: 792
    Spherical Harmonics?: true
    Max angular momentum: 3

  Minimum eigenvalue in the overlap matrix is 1.7808783995E-01.
  Reciprocal condition number of the overlap matrix is 7.4417245600E-02.
    Using symmetric orthogonalization.

  ==> Pre-Iterations <==

  SCF Guess: Superposition of Atomic Densities via on-the-fly atomic UHF (no occupation information).

   -------------------------
    Irrep   Nso     Nmo    
   -------------------------
     A'        28      28 
     A"        16      16 
   -------------------------
    Total      44      44
   -------------------------

  ==> Iterations <==

                           Total Energy        Delta E     RMS |[F,P]|

   @DF-RHF iter SAD:  -298.09181193261605   -2.98092e+02   0.00000e+00 
   @DF-RHF iter   1:  -303.18619878022906   -5.09439e+00   4.89486e-03 DIIS
   @DF-RHF iter   2:  -303.20395614677017   -1.77574e-02   1.05857e-03 DIIS
   @DF-RHF iter   3:  -303.20496972725925   -1.01358e-03   1.96703e-04 DIIS
   @DF-RHF iter   4:  -303.20499843670137   -2.87094e-05   2.89534e-05 DIIS
   @DF-RHF iter   5:  -303.20499948954495   -1.05284e-06   9.37334e-06 DIIS
   @DF-RHF iter   6:  -303.20499965361989   -1.64075e-07   1.67240e-06 DIIS
   @DF-RHF iter   7:  -303.20499965835523   -4.73534e-09   9.09947e-08 DIIS
   @DF-RHF iter   8:  -303.20499965836518   -9.94760e-12   1.42190e-08 DIIS
   @DF-RHF iter   9:  -303.20499965836552   -3.41061e-13   4.62161e-09 DIIS
   @DF-RHF iter  10:  -303.20499965836558   -5.68434e-14   3.30949e-09 DIIS
   @DF-RHF iter  11:  -303.20499965836547    1.13687e-13   9.88350e-10 DIIS
   @DF-RHF iter  12:  -303.20499965836552   -5.68434e-14   1.23960e-10 DIIS
   @DF-RHF iter  13:  -303.20499965836564   -1.13687e-13   1.50726e-11 DIIS
   @DF-RHF iter  14:  -303.20499965836552    1.13687e-13   3.89430e-12 DIIS
  Energy and wave function converged.


  ==> Post-Iterations <==

    Orbital Energies [Eh]
    ---------------------

    Doubly Occupied:                                                      

       1Ap   -20.842792     1App  -11.116006     2Ap   -11.116006  
       3Ap   -11.115938     4Ap   -11.115777     2App  -11.115777  
       5Ap   -11.115691     6Ap    -1.738008     7Ap    -1.160812  
       8Ap    -1.042766     3App   -1.042766     4App   -1.032314  
       9Ap    -1.032314    10Ap    -0.890551    11Ap    -0.848420  
       5App   -0.848420    12Ap    -0.738806    13Ap    -0.684785  
       6App   -0.628139     7App   -0.615618    14Ap    -0.615618  
      15Ap    -0.530248     8App   -0.517440    16Ap    -0.517440  
      17Ap    -0.360022     9App   -0.360022  

    Virtual:                                                              

      18Ap     0.050251    19Ap     0.173305    10App    0.173305  
      11App    0.207824    20Ap     0.207824    21Ap     0.397550  
      22Ap     0.495914    12App    0.561009    23Ap     0.561009  
      24Ap     0.609503    13App    0.619013    25Ap     0.619013  
      14App    0.780123    26Ap     0.780123    27Ap     0.782444  
      15App    0.782444    16App    0.958966    28Ap     1.022689  

    Final Occupation by Irrep:
             Ap   App 
    DOCC [    17,    9 ]

  @DF-RHF Final Energy:  -303.20499965836552

   => Energetics <=

    Nuclear Repulsion Energy =            258.8509423039876083
    One-Electron Energy =                -918.6268962257011026
    Two-Electron Energy =                 356.5709542633479714
    Total Energy =                       -303.2049996583655229

Computation Completed


Properties will be evaluated at   0.000000,   0.000000,   0.000000 [a0]

Properties computed using the SCF density matrix

  Nuclear Dipole Moment: [e a0]
     X:     0.0000      Y:     6.7080      Z:    -0.0000

  Electronic Dipole Moment: [e a0]
     X:    -0.0000      Y:     1.8234      Z:     0.0000

  Dipole Moment: [e a0]
     X:    -0.0000      Y:     8.5314      Z:    -0.0000     Total:     8.5314

  Dipole Moment: [D]
     X:    -0.0000      Y:    21.6846      Z:    -0.0000     Total:    21.6846


*** tstop() called on thinkpad at Sat Jul  3 00:57:11 2021
Module time:
	user time   =       2.33 seconds =       0.04 minutes
	system time =       0.03 seconds =       0.00 minutes
	total time  =          1 seconds =       0.02 minutes
Total time:
	user time   =       5.77 seconds =       0.10 minutes
	system time =       0.11 seconds =       0.00 minutes
	total time  =          2 seconds =       0.03 minutes


Properties will be evaluated at   0.000000,   0.000000,   0.000000 [a0]

Properties computed using the BZH3O+ SCF density matrix

  Nuclear Dipole Moment: [e a0]
     X:     0.0000      Y:     6.7080      Z:    -0.0000

  Electronic Dipole Moment: [e a0]
     X:    -0.0000      Y:     1.8234      Z:     0.0000

  Dipole Moment: [e a0]
     X:    -0.0000      Y:     8.5314      Z:    -0.0000     Total:     8.5314

  Dipole Moment: [D]
     X:    -0.0000      Y:    21.6846      Z:    -0.0000     Total:    21.6846

  Quadrupole Moment: [D A]
    XX:   -33.3919     YY:    57.3954     ZZ:   -33.3919
    XY:     0.0000     XZ:    -0.0000     YZ:    -0.0000

  Traceless Quadrupole Moment: [D A]
    XX:   -30.2624     YY:    60.5249     ZZ:   -30.2624
    XY:     0.0000     XZ:    -0.0000     YZ:    -0.0000

    Nuclear repulsion energy 2............................................................PASSED
    Reference energy 2....................................................................PASSED
    Y Component of Dipole 2...............................................................PASSED
    YY Component of Quadrupole 2..........................................................PASSED
    Y Component of Dipole 2...............................................................PASSED
    YY Component of Quadrupole 2..........................................................PASSED

Scratch directory: /home/work/scratch/

*** tstart() called on thinkpad
*** at Sat Jul  3 00:57:11 2021

   => Loading Basis Set <=

    Name: STO-3G
    Role: ORBITAL
    Keyword: BASIS
    atoms 1   entry O          line    79 file /home/work/psi4/install/share/psi4/basis/sto-3g.gbs 
    atoms 2-4 entry H          line    17 file /home/work/psi4/install/share/psi4/basis/sto-3g.gbs 


         ---------------------------------------------------------
                                   SCF
               by Justin Turney, Rob Parrish, Andy Simmonett
                          and Daniel G. A. Smith
                              RHF Reference
                        4 Threads,    500 MiB Core
         ---------------------------------------------------------

  ==> Geometry <==

    Molecular point group: cs
    Full point group: C3v

    Geometry (in Angstrom), charge = 1, multiplicity = 1:

       Center              X                  Y                   Z               Mass       
    ------------   -----------------  -----------------  -----------------  -----------------
         O           -0.000000000000    -0.055641739371     0.000000000000    15.994914619570
         H            0.494974746831     0.294358260629    -0.857321409974     1.007825032230
         H            0.494974746831     0.294358260629     0.857321409974     1.007825032230
         H           -0.989949493661     0.294358260629     0.000000000000     1.007825032230

  Running in cs symmetry.

  Rotational constants: A =      9.40193  B =      9.40193  C =      5.68937 [cm^-1]
  Rotational constants: A = 281862.63967  B = 281862.63967  C = 170562.96139 [MHz]
  Nuclear repulsion =   13.021346350778909

  Charge       = 1
  Multiplicity = 1
  Electrons    = 10
  Nalpha       = 5
  Nbeta        = 5

  ==> Algorithm <==

  SCF Algorithm Type is DF.
  DIIS enabled.
  MOM disabled.
  Fractional occupation disabled.
  Guess Type is SAD.
  Energy threshold   = 1.00e-11
  Density threshold  = 1.00e-11
  Integral threshold = 1.00e-12

  ==> Primary Basis <==

  Basis Set: STO-3G
    Blend: STO-3G
    Number of shells: 6
    Number of basis functions: 8
    Number of Cartesian functions: 8
    Spherical Harmonics?: true
    Max angular momentum: 1

   => Loading Basis Set <=

    Name: CC-PVDZ-JKFIT
    Role: JKFIT
    Keyword: DF_BASIS_SCF
    atoms 1   entry O          line   221 file /home/work/psi4/install/share/psi4/basis/cc-pvdz-jkfit.gbs 
    atoms 2-4 entry H          line    51 file /home/work/psi4/install/share/psi4/basis/cc-pvdz-jkfit.gbs 

  ==> Integral Setup <==

  DFHelper Memory: AOs need 0.000 GiB; user supplied 0.366 GiB. Using in-core AOs.

  ==> MemDFJK: Density-Fitted J/K Matrices <==

    J tasked:                   Yes
    K tasked:                   Yes
    wK tasked:                   No
    OpenMP threads:               4
    Memory [MiB]:               375
    Algorithm:                 Core
    Schwarz Cutoff:           1E-12
    Mask sparsity (%):       0.0000
    Fitting Condition:        1E-10

   => Auxiliary Basis Set <=

  Basis Set: CC-PVDZ-JKFIT
    Blend: CC-PVDZ-JKFIT
    Number of shells: 51
    Number of basis functions: 139
    Number of Cartesian functions: 156
    Spherical Harmonics?: true
    Max angular momentum: 3

  Minimum eigenvalue in the overlap matrix is 3.6594970919E-01.
  Reciprocal condition number of the overlap matrix is 1.9392548146E-01.
    Using symmetric orthogonalization.

  ==> Pre-Iterations <==

  SCF Guess: Superposition of Atomic Densities via on-the-fly atomic UHF (no occupation information).

   -------------------------
    Irrep   Nso     Nmo    
   -------------------------
     A'         6       6 
     A"         2       2 
   -------------------------
    Total       8       8
   -------------------------

  ==> Iterations <==

                           Total Energy        Delta E     RMS |[F,P]|

   @DF-RHF iter SAD:   -74.62535137581534   -7.46254e+01   0.00000e+00 
   @DF-RHF iter   1:   -75.30994741930604   -6.84596e-01   1.88784e-02 DIIS
   @DF-RHF iter   2:   -75.31970920105547   -9.76178e-03   4.43870e-03 DIIS
   @DF-RHF iter   3:   -75.32038305623497   -6.73855e-04   9.08762e-04 DIIS
   @DF-RHF iter   4:   -75.32040551231574   -2.24561e-05   1.16071e-04 DIIS
   @DF-RHF iter   5:   -75.32040638569495   -8.73379e-07   3.89132e-05 DIIS
   @DF-RHF iter   6:   -75.32040649420559   -1.08511e-07   1.97104e-07 DIIS
   @DF-RHF iter   7:   -75.32040649420667   -1.08002e-12   2.86952e-10 DIIS
   @DF-RHF iter   8:   -75.32040649420671   -4.26326e-14   1.05383e-13 DIIS
  Energy and wave function converged.


  ==> Post-Iterations <==

    Orbital Energies [Eh]
    ---------------------

    Doubly Occupied:                                                      

       1Ap   -20.845305     2Ap    -1.740778     3Ap    -1.045562  
       1App   -1.045562     4Ap    -0.893667  

    Virtual:                                                              

       5Ap     0.047800     2App    0.205207     6Ap     0.205207  

    Final Occupation by Irrep:
             Ap   App 
    DOCC [     4,    1 ]

  @DF-RHF Final Energy:   -75.32040649420671

   => Energetics <=

    Nuclear Repulsion Energy =             13.0213463507789093
    One-Electron Energy =                -125.5417601228472080
    Two-Electron Energy =                  37.2000072778615802
    Total Energy =                        -75.3204064942067077

Computation Completed


Properties will be evaluated at   0.000000,   0.000000,   0.000000 [a0]

Properties computed using the SCF density matrix

  Nuclear Dipole Moment: [e a0]
     X:     0.0000      Y:     0.8276      Z:     0.0000

  Electronic Dipole Moment: [e a0]
     X:    -0.0000      Y:     0.0683      Z:     0.0000

  Dipole Moment: [e a0]
     X:     0.0000      Y:     0.8959      Z:     0.0000     Total:     0.8959

  Dipole Moment: [D]
     X:     0.0000      Y:     2.2771      Z:     0.0000     Total:     2.2771


*** tstop() called on thinkpad at Sat Jul  3 00:57:11 2021
Module time:
	user time   =       0.70 seconds =       0.01 minutes
	system time =       0.00 seconds =       0.00 minutes
	total time  =          0 seconds =       0.00 minutes
Total time:
	user time   =       6.53 seconds =       0.11 minutes
	system time =       0.11 seconds =       0.00 minutes
	total time  =          2 seconds =       0.03 minutes


Properties will be evaluated at   0.000000,   0.000000,   0.000000 [a0]

Properties computed using the H3O+ SCF density matrix

  Nuclear Dipole Moment: [e a0]
     X:     0.0000      Y:     0.8276      Z:     0.0000

  Electronic Dipole Moment: [e a0]
     X:    -0.0000      Y:     0.0683      Z:     0.0000

  Dipole Moment: [e a0]
     X:     0.0000      Y:     0.8959      Z:     0.0000     Total:     0.8959

  Dipole Moment: [D]
     X:     0.0000      Y:     2.2771      Z:     0.0000     Total:     2.2771

  Quadrupole Moment: [D A]
    XX:    -2.5134     YY:    -5.5116     ZZ:    -2.5134
    XY:     0.0000     XZ:    -0.0000     YZ:     0.0000

  Traceless Quadrupole Moment: [D A]
    XX:     0.9994     YY:    -1.9989     ZZ:     0.9994
    XY:     0.0000     XZ:    -0.0000     YZ:     0.0000

    Nuclear repulsion energy 3............................................................PASSED
    Reference energy 3....................................................................PASSED
    Y Component of Dipole 3...............................................................PASSED
    YY Component of Quadrupole 3..........................................................PASSED
    Y Component of Dipole 3...............................................................PASSED
    YY Component of Quadrupole 3..........................................................PASSED

    Psi4 stopped on: Saturday, 03 July 2021 12:57AM
    Psi4 wall time for execution: 0:00:01.78

*** Psi4 exiting successfully. Buy a developer a beer!
