
    -----------------------------------------------------------------------
          Psi4: An Open-Source Ab Initio Electronic Structure Package
                               Psi4 1.1rc3.dev5 

                         Git: Rev {master} 3fbd859 


    R. M. Parrish, L. A. Burns, D. G. A. Smith, A. C. Simmonett,
    A. E. DePrince III, E. G. Hohenstein, U. Bozkaya, A. Yu. Sokolov,
    R. Di Remigio, R. M. Richard, J. F. Gonthier, A. M. James,
    H. R. McAlexander, A. Kumar, M. Saitow, X. Wang, B. P. Pritchard,
    P. Verma, H. F. Schaefer III, K. Patkowski, R. A. King, E. F. Valeev,
    F. A. Evangelista, J. M. Turney, T. D. Crawford, and C. D. Sherrill,
    J. Chem. Theory Comput. in press (2017).
    (doi: 10.1021/acs.jctc.7b00174)

    -----------------------------------------------------------------------


    Psi4 started on: Monday, 15 May 2017 03:35PM

    Process ID:  13362
    PSIDATADIR: /home/psilocaluser/gits/hrw-direct/objdir4/stage/usr/local/psi4/share/psi4
    Memory:     500.0 MiB
    Threads:    1
    
  ==> Input File <==

--------------------------------------------------------------------------
#! H2O CISD/6-31G** Optimize Geometry by Energies

refnuc   =   9.1938886868  #TEST
refscf   = -76.0231440654  #TEST
refci    = -76.2231165692  #TEST
refcorr  = refci - refscf  #TEST

molecule h2o {
    O
    H 1 1.00
    H 1 1.00 2 103.1
}

set {
  basis 6-31G**
  max_force_g_convergence 0.000001
  max_disp_g_convergence  0.0001
}

set qc_module detci
thisenergy = optimize('cisd', dertype = 0)

compare_values(refnuc, h2o.nuclear_repulsion_energy(),         4, "Nuclear repulsion energy") #TEST 
compare_values(refscf, get_variable("SCF total energy"),       7, "SCF energy") #TEST
compare_values(refci, thisenergy,                              7, "CI energy") #TEST
compare_values(refcorr, get_variable("CIsd CORRELATION ENERGY"), 6, "CI correlation energy") #TEST
--------------------------------------------------------------------------
gradient() will perform gradient computation by finite difference of analytic energies.

-------------------------------------------------------------

  Using finite-differences of energies to determine gradients (fd_geoms_1_0).
	Generating geometries for use with 3-point formula.
	Displacement size will be 5.00e-03.
	Number of atoms is 3.
	Number of symmetric SALC's is 2.
	Number of displacements (including reference) is 5.

-------------------------------------------------------------

  //>>>>>>>>>>>>>>>>>>>>>>>>>>>>>>>>>>>//
  //    Loading displacement 1 of 5    //
  //<<<<<<<<<<<<<<<<<<<<<<<<<<<<<<<<<<<//

*** tstart() called on psinet
*** at Mon May 15 15:35:09 2017

   => Loading Basis Set <=

    Name: 6-31G**
    Role: ORBITAL
    Keyword: BASIS
    atoms 1   entry O          line   140 file /home/psilocaluser/gits/hrw-direct/objdir4/stage/usr/local/psi4/share/psi4/basis/6-31gss.gbs 
    atoms 2-3 entry H          line    35 file /home/psilocaluser/gits/hrw-direct/objdir4/stage/usr/local/psi4/share/psi4/basis/6-31gss.gbs 

    There are an even number of electrons - assuming singlet.
    Specify the multiplicity in the molecule input block.


         ---------------------------------------------------------
                                   SCF
            by Justin Turney, Rob Parrish, and Andy Simmonett
                              RHF Reference
                        1 Threads,    500 MiB Core
         ---------------------------------------------------------

  ==> Geometry <==

    Molecular point group: c2v
    Full point group: C2v

    Geometry (in Angstrom), charge = 0, multiplicity = 1:

       Center              X                  Y                   Z               Mass       
    ------------   -----------------  -----------------  -----------------  -----------------
           O          0.000000000000     0.000000000000    -0.069813509130    15.994914619560
           H          0.000000000000    -0.783151105291     0.553995526155     1.007825032070
           H          0.000000000000     0.783151105291     0.553995526155     1.007825032070

  Running in c2v symmetry.

  Rotational constants: A =     24.20045  B =     13.63610  C =      8.72172 [cm^-1]
  Rotational constants: A = 725511.23301  B = 408800.03934  C = 261470.57499 [MHz]
  Nuclear repulsion =    8.794277387917013

  Charge       = 0
  Multiplicity = 1
  Electrons    = 10
  Nalpha       = 5
  Nbeta        = 5

  ==> Algorithm <==

  SCF Algorithm Type is PK.
  DIIS enabled.
  MOM disabled.
  Fractional occupation disabled.
  Guess Type is SAD.
  Energy threshold   = 1.00e-10
  Density threshold  = 1.00e-10
  Integral threshold = 0.00e+00

  ==> Primary Basis <==

  Basis Set: 6-31G**
    Blend: 6-31G**
    Number of shells: 12
    Number of basis function: 25
    Number of Cartesian functions: 25
    Spherical Harmonics?: false
    Max angular momentum: 2

  ==> Pre-Iterations <==

   -------------------------------------------------------
    Irrep   Nso     Nmo     Nalpha   Nbeta   Ndocc  Nsocc
   -------------------------------------------------------
     A1        12      12       0       0       0       0
     A2         2       2       0       0       0       0
     B1         4       4       0       0       0       0
     B2         7       7       0       0       0       0
   -------------------------------------------------------
    Total      25      25       5       5       5       0
   -------------------------------------------------------

  ==> Integral Setup <==

  Using in-core PK algorithm.
   Calculation information:
      Number of atoms:                   3
      Number of AO shells:              12
      Number of primitives:             25
      Number of atomic orbitals:        25
      Number of basis functions:        25

      Integral cutoff                 1.00e-12
      Number of threads:                 1

  Performing in-core PK
  Using 105950 doubles for integral storage.
  We computed 3081 shell quartets total.
  Whereas there are 3081 unique shell quartets.
  ==> DiskJK: Disk-Based J/K Matrices <==

    J tasked:                  Yes
    K tasked:                  Yes
    wK tasked:                  No
    Memory (MB):               375
    Schwarz Cutoff:          1E-12

    OpenMP threads:              1
  Minimum eigenvalue in the overlap matrix is 2.3400300044E-02.
  Using Symmetric Orthogonalization.

  SCF Guess: Superposition of Atomic Densities via on-the-fly atomic UHF.

  ==> Iterations <==

                        Total Energy        Delta E     RMS |[F,P]|

   @RHF iter   0:   -75.89833960678752   -7.58983e+01   1.07547e-01 
   @RHF iter   1:   -75.98004309390105   -8.17035e-02   1.95587e-02 
   @RHF iter   2:   -76.00829710291205   -2.82540e-02   1.04840e-02 DIIS
   @RHF iter   3:   -76.01642924193689   -8.13214e-03   1.59840e-03 DIIS
   @RHF iter   4:   -76.01695604495967   -5.26803e-04   5.14197e-04 DIIS
   @RHF iter   5:   -76.01702860834627   -7.25634e-05   1.04038e-04 DIIS
   @RHF iter   6:   -76.01703221472178   -3.60638e-06   1.59372e-05 DIIS
   @RHF iter   7:   -76.01703229333094   -7.86092e-08   2.61389e-06 DIIS
   @RHF iter   8:   -76.01703229501538   -1.68444e-09   3.40599e-07 DIIS
   @RHF iter   9:   -76.01703229503909   -2.37037e-11   2.85205e-08 DIIS
   @RHF iter  10:   -76.01703229503914   -5.68434e-14   2.97059e-09 DIIS
   @RHF iter  11:   -76.01703229503909    5.68434e-14   3.17519e-10 DIIS
   @RHF iter  12:   -76.01703229503920   -1.13687e-13   3.01067e-11 DIIS

  ==> Post-Iterations <==

    Orbital Energies (a.u.)
    -----------------------

    Doubly Occupied:                                                      

       1A1   -20.569322     2A1    -1.320187     1B2    -0.677805  
       3A1    -0.564067     1B1    -0.495011  

    Virtual:                                                              

       4A1     0.202170     2B2     0.292324     3B2     0.980096  
       5A1     1.055888     6A1     1.129008     2B1     1.168572  
       4B2     1.294996     7A1     1.414194     1A2     1.803203  
       8A1     1.805596     3B1     1.918241     9A1     2.511693  
       5B2     2.537511     6B2     2.710779     2A2     2.918605  
       4B1     2.947117    10A1     3.288935    11A1     3.618482  
       7B2     3.874147    12A1     4.076502  

    Final Occupation by Irrep:
             A1    A2    B1    B2 
    DOCC [     3,    0,    1,    1 ]

  Energy converged.

  @RHF Final Energy:   -76.01703229503920

   => Energetics <=

    Nuclear Repulsion Energy =              8.7942773879170133
    One-Electron Energy =                -122.3698336617304818
    Two-Electron Energy =                  37.5585239787742751
    DFT Exchange-Correlation Energy =       0.0000000000000000
    Empirical Dispersion Energy =           0.0000000000000000
    PCM Polarization Energy =               0.0000000000000000
    EFP Energy =                            0.0000000000000000
    Total Energy =                        -76.0170322950392006



Properties will be evaluated at   0.000000,   0.000000,   0.000000 Bohr

Properties computed using the SCF density matrix

  Nuclear Dipole Moment: (a.u.)
     X:     0.0000      Y:     0.0000      Z:     1.0384

  Electronic Dipole Moment: (a.u.)
     X:     0.0000      Y:     0.0000      Z:    -0.1550

  Dipole Moment: (a.u.)
     X:     0.0000      Y:     0.0000      Z:     0.8834     Total:     0.8834

  Dipole Moment: (Debye)
     X:     0.0000      Y:     0.0000      Z:     2.2453     Total:     2.2453


*** tstop() called on psinet at Mon May 15 15:35:13 2017
Module time:
	user time   =       0.42 seconds =       0.01 minutes
	system time =       0.02 seconds =       0.00 minutes
	total time  =          4 seconds =       0.07 minutes
Total time:
	user time   =       0.42 seconds =       0.01 minutes
	system time =       0.02 seconds =       0.00 minutes
	total time  =          4 seconds =       0.07 minutes
 MINTS: Wrapper to libmints.
   by Justin Turney

   Calculation information:
      Number of threads:                 1
      Number of atoms:                   3
      Number of AO shells:              12
      Number of SO shells:               9
      Number of primitives:             25
      Number of atomic orbitals:        25
      Number of basis functions:        25

      Number of irreps:                  4
      Integral cutoff                 0.00e+00
      Number of functions per irrep: [  12    2    4    7 ]

 OEINTS: Overlap, kinetic, potential, dipole, and quadrupole integrals
         stored in file 35.

      Computing two-electron integrals...done
      Computed 13707 non-zero two-electron integrals.
        Stored in file 33.


         ---------------------------------------------------------
                          Configuration Interaction
                            (a 'D E T C I' module)

                 C. David Sherrill, Daniel G. A. Smith, and
                              Matt L. Leininger
         ---------------------------------------------------------


   ==> Parameters <==

    EX LEVEL       =        2      H0 BLOCKSIZE  =     1000
    VAL EX LEVEL   =        0      H0 GUESS SIZE =     1000
    H0COUPLINGSIZE =        0      H0 COUPLING   =       NO
    MAXITER        =       24      NUM PRINT     =       20
    NUM ROOTS      =        1      ICORE         =        1
    PRINT LVL      =        1      FCI           =       NO
    R CONV         = 1.00e-04      MIXED         =      YES
    E CONV         = 1.00e-08      MIXED4        =      YES
    R4S            =       NO      REPL OTF      =       NO
    DIAG METHOD    =      SEM      FOLLOW ROOT   =        0
    PRECONDITIONER = DAVIDSON      UPDATE        = DAVIDSON
    S              =   0.0000      Ms0           =      YES
    GUESS VECTOR   =  H0BLOCK      OPENTYPE      =     NONE
    COLLAPSE SIZE  =        1      HD AVG        = EVANGELISTI
    MAX NUM VECS   =       25      REF SYM       =     AUTO
    IOPEN        =       NO

    EX ALLOW       =  1  1 
    STATE AVERAGE  =  0(1.00) 

   ==> CI Orbital and Space information <==

    RAS1 LVL      =        4      A RAS3 MAX    =        2
    RAS1 MIN      =        8      B RAS3 MAX    =        2
    A RAS1 LVL    =        4      RAS4 LVL      =       25
    A RAS1 MIN    =        3      A RAS4 MAX    =        0
    A RAS1 MAX    =        5      B RAS4 MAX    =        0
    B RAS1 LVL    =        4      RAS4 MAX      =        0
    B RAS1 MIN    =        3      A RAS34 MAX   =        2
    B RAS1 MAX    =        5      B RAS34 MAX   =        2
    RAS3 LVL      =        5      RAS34 MAX     =        2
    RAS3 MAX      =        2
   ------------------------------------------------------
               Space    Total    A1    A2    B1    B2
   ------------------------------------------------------
                 Nso       25    12     2     4     7
                 Nmo       25    12     2     4     7
               Ndocc        5     3     0     1     1
               Nsocc        0     0     0     0     0
   ------------------------------------------------------
                       CI Spaces
   ------------------------------------------------------
        Dropped DOCC        0     0     0     0     0
                RAS1        5     3     0     1     1
                RAS2        0     0     0     0     0
                RAS3       20     9     2     3     6
                RAS4        0     0     0     0     0
      Active (total)       25    12     2     4     7
        Dropped UOCC        0     0     0     0     0
   ------------------------------------------------------

   ==> Setting up CI strings <==

    There are 2001 alpha and 2001 beta strings
    The CI space requires 3831 (3.83E+03) determinants and 9 blocks

   ==> Transforming CI integrals <==

	Presorting SO-basis two-electron integrals.
	Sorting File: SO Ints (nn|nn) nbuckets = 1
	Transforming the one-electron integrals and constructing Fock matrices
	Starting first half-transformation.
	Sorting half-transformed integrals.
	First half integral transformation complete.
	Starting second half-transformation.
	Two-electron integral transformation complete.

   ==> Starting CI iterations <==

    H0 Block Eigenvalue = -76.17551479

    Simultaneous Expansion Method (Block Davidson Method)
    Using 1 initial trial vectors

     Iter   Root       Total Energy       Delta E      C RMS

   @CI  0:     0    -76.175514790756   -8.4970E+01   5.7096E-01  
   @CI  1:     0    -76.219255780163   -4.3741E-02   4.8579E-02  
   @CI  2:     0    -76.219618221173   -3.6244E-04   1.5039E-02  
   @CI  3:     0    -76.219665423611   -4.7202E-05   3.5371E-03  
   @CI  4:     0    -76.219668689632   -3.2660E-06   8.1119E-04  
   @CI  5:     0    -76.219668926587   -2.3696E-07   2.8308E-04  
   @CI  6:     0    -76.219668942723   -1.6136E-08   7.4986E-05  
   @CI  7:     0    -76.219668944189   -1.4661E-09   1.7646E-05 c

   ==> Energetics <==

    SCF energy =          -76.017032295039201
    Total CI energy =     -76.219668944189493

   ==> CISD root 0 information <==

    CISD Root 0 energy =   -76.219668944189493

   The 20 most important determinants:

    *   1   -0.973566  (  475,  475)  1A1X 2A1X 3A1X 1B1X 1B2X 
    *   2    0.047863  (  503,  503)  1A1X 2A1X 3A1X 1B2X 2B1X 
    *   3    0.038963  (  506,  506)  1A1X 2A1X 3A1X 1B1X 2B2X 
    *   4    0.031667  (  482,  482)  1A1X 2A1X 1B1X 1B2X 6A1X 
    *   5    0.027063  (  507,  507)  1A1X 2A1X 3A1X 1B1X 3B2X 
    *   6    0.025558  (  482,  503)  1A1X 2A1X 3A1B 1B1A 1B2X 6A1A 2B1B 
    *   7    0.025558  (  503,  482)  1A1X 2A1X 3A1A 1B1B 1B2X 6A1B 2B1A 
    *   8   -0.022983  (  503,  508)  1A1X 2A1X 3A1X 1B1B 1B2A 2B1A 4B2B 
    *   9   -0.022983  (  508,  503)  1A1X 2A1X 3A1X 1B1A 1B2B 2B1B 4B2A 
    *  10   -0.022890  (  503,  506)  1A1X 2A1X 3A1X 1B1B 1B2A 2B1A 2B2B 
    *  11   -0.022890  (  506,  503)  1A1X 2A1X 3A1X 1B1A 1B2B 2B1B 2B2A 
    *  12    0.022730  (  476,  476)  1A1X 2A1X 1B1X 1B2X 4A1X 
    *  13    0.022714  ( 1011, 1011)  1A1X 2A1X 3A1X 1B1X 5A1X 
    *  14    0.022686  (  508,  508)  1A1X 2A1X 3A1X 1B1X 4B2X 
    *  15    0.021988  (  506,  508)  1A1X 2A1X 3A1X 1B1X 2B2A 4B2B 
    *  16    0.021988  (  508,  506)  1A1X 2A1X 3A1X 1B1X 2B2B 4B2A 
    *  17   -0.021466  (  476,  506)  1A1X 2A1X 3A1B 1B1X 1B2A 4A1A 2B2B 
    *  18   -0.021466  (  506,  476)  1A1X 2A1X 3A1A 1B1X 1B2B 4A1B 2B2A 
    *  19    0.020567  ( 1024, 1024)  1A1X 2A1X 1B1X 1B2X 3B2X 
    *  20    0.018805  ( 1010, 1010)  1A1X 2A1X 3A1X 1B1X 4A1X 

		 "A good bug is a dead bug" 

			 - Starship Troopers

		 "I didn't write FORTRAN.  That's the problem."

			 - Edward Valeev

  //>>>>>>>>>>>>>>>>>>>>>>>>>>>>>>>>>>>//
  //    Loading displacement 2 of 5    //
  //<<<<<<<<<<<<<<<<<<<<<<<<<<<<<<<<<<<//

*** tstart() called on psinet
*** at Mon May 15 15:35:14 2017

   => Loading Basis Set <=

    Name: 6-31G**
    Role: ORBITAL
    Keyword: BASIS
    atoms 1   entry O          line   140 file /home/psilocaluser/gits/hrw-direct/objdir4/stage/usr/local/psi4/share/psi4/basis/6-31gss.gbs 
    atoms 2-3 entry H          line    35 file /home/psilocaluser/gits/hrw-direct/objdir4/stage/usr/local/psi4/share/psi4/basis/6-31gss.gbs 


         ---------------------------------------------------------
                                   SCF
            by Justin Turney, Rob Parrish, and Andy Simmonett
                              RHF Reference
                        1 Threads,    500 MiB Core
         ---------------------------------------------------------

  ==> Geometry <==

    Molecular point group: c2v
    Full point group: C2v

    Geometry (in Angstrom), charge = 0, multiplicity = 1:

       Center              X                  Y                   Z               Mass       
    ------------   -----------------  -----------------  -----------------  -----------------
           O          0.000000000000     0.000000000000    -0.069370865650    15.994914619560
           H          0.000000000000    -0.783151105291     0.550482989532     1.007825032070
           H          0.000000000000     0.783151105291     0.550482989532     1.007825032070

  Running in c2v symmetry.

  Rotational constants: A =     24.51027  B =     13.63610  C =      8.76163 [cm^-1]
  Rotational constants: A = 734799.49523  B = 408800.03934  C = 262667.17804 [MHz]
  Nuclear repulsion =    8.815101148035456

  Charge       = 0
  Multiplicity = 1
  Electrons    = 10
  Nalpha       = 5
  Nbeta        = 5

  ==> Algorithm <==

  SCF Algorithm Type is PK.
  DIIS enabled.
  MOM disabled.
  Fractional occupation disabled.
  Guess Type is SAD.
  Energy threshold   = 1.00e-10
  Density threshold  = 1.00e-10
  Integral threshold = 0.00e+00

  ==> Primary Basis <==

  Basis Set: 6-31G**
    Blend: 6-31G**
    Number of shells: 12
    Number of basis function: 25
    Number of Cartesian functions: 25
    Spherical Harmonics?: false
    Max angular momentum: 2

  ==> Pre-Iterations <==

   -------------------------------------------------------
    Irrep   Nso     Nmo     Nalpha   Nbeta   Ndocc  Nsocc
   -------------------------------------------------------
     A1        12      12       0       0       0       0
     A2         2       2       0       0       0       0
     B1         4       4       0       0       0       0
     B2         7       7       0       0       0       0
   -------------------------------------------------------
    Total      25      25       5       5       5       0
   -------------------------------------------------------

  ==> Integral Setup <==

  Using in-core PK algorithm.
   Calculation information:
      Number of atoms:                   3
      Number of AO shells:              12
      Number of primitives:             25
      Number of atomic orbitals:        25
      Number of basis functions:        25

      Integral cutoff                 1.00e-12
      Number of threads:                 1

  Performing in-core PK
  Using 105950 doubles for integral storage.
  We computed 3081 shell quartets total.
  Whereas there are 3081 unique shell quartets.
  ==> DiskJK: Disk-Based J/K Matrices <==

    J tasked:                  Yes
    K tasked:                  Yes
    wK tasked:                  No
    Memory (MB):               375
    Schwarz Cutoff:          1E-12

    OpenMP threads:              1
  Minimum eigenvalue in the overlap matrix is 2.3322323658E-02.
  Using Symmetric Orthogonalization.

  SCF Guess: Superposition of Atomic Densities via on-the-fly atomic UHF.

  ==> Iterations <==

                        Total Energy        Delta E     RMS |[F,P]|

   @RHF iter   0:   -75.82688569576965   -7.58269e+01   1.06625e-01 
   @RHF iter   1:   -75.99709451525503   -1.70209e-01   1.55136e-02 
   @RHF iter   2:   -76.01299059493803   -1.58961e-02   7.62816e-03 DIIS
   @RHF iter   3:   -76.01736195323235   -4.37136e-03   1.20373e-03 DIIS
   @RHF iter   4:   -76.01753496726626   -1.73014e-04   2.66388e-04 DIIS
   @RHF iter   5:   -76.01755344420714   -1.84769e-05   6.57060e-05 DIIS
   @RHF iter   6:   -76.01755483343644   -1.38923e-06   1.05074e-05 DIIS
   @RHF iter   7:   -76.01755486588087   -3.24444e-08   1.60698e-06 DIIS
   @RHF iter   8:   -76.01755486659296   -7.12092e-10   2.38970e-07 DIIS
   @RHF iter   9:   -76.01755486660585   -1.28892e-11   2.79469e-08 DIIS
   @RHF iter  10:   -76.01755486660601   -1.56319e-13   2.72523e-09 DIIS
   @RHF iter  11:   -76.01755486660595    5.68434e-14   4.43022e-10 DIIS
   @RHF iter  12:   -76.01755486660593    1.42109e-14   2.56970e-11 DIIS

  ==> Post-Iterations <==

    Orbital Energies (a.u.)
    -----------------------

    Doubly Occupied:                                                      

       1A1   -20.568677     2A1    -1.321031     1B2    -0.679645  
       3A1    -0.563793     1B1    -0.494997  

    Virtual:                                                              

       4A1     0.202761     2B2     0.293112     3B2     0.982242  
       5A1     1.056741     6A1     1.129349     2B1     1.168705  
       4B2     1.294977     7A1     1.413004     1A2     1.802549  
       8A1     1.808241     3B1     1.919505     9A1     2.514799  
       5B2     2.538103     6B2     2.716403     2A2     2.923531  
       4B1     2.947841    10A1     3.294546    11A1     3.623008  
       7B2     3.875687    12A1     4.078997  

    Final Occupation by Irrep:
             A1    A2    B1    B2 
    DOCC [     3,    0,    1,    1 ]

  Energy converged.

  @RHF Final Energy:   -76.01755486660593

   => Energetics <=

    Nuclear Repulsion Energy =              8.8151011480354562
    One-Electron Energy =                -122.4090276363132688
    Two-Electron Energy =                  37.5763716216718819
    DFT Exchange-Correlation Energy =       0.0000000000000000
    Empirical Dispersion Energy =           0.0000000000000000
    PCM Polarization Energy =               0.0000000000000000
    EFP Energy =                            0.0000000000000000
    Total Energy =                        -76.0175548666059342



Properties will be evaluated at   0.000000,   0.000000,   0.000000 Bohr

Properties computed using the SCF density matrix

  Nuclear Dipole Moment: (a.u.)
     X:     0.0000      Y:     0.0000      Z:     1.0318

  Electronic Dipole Moment: (a.u.)
     X:     0.0000      Y:     0.0000      Z:    -0.1515

  Dipole Moment: (a.u.)
     X:     0.0000      Y:     0.0000      Z:     0.8803     Total:     0.8803

  Dipole Moment: (Debye)
     X:     0.0000      Y:     0.0000      Z:     2.2376     Total:     2.2376


*** tstop() called on psinet at Mon May 15 15:35:14 2017
Module time:
	user time   =       0.34 seconds =       0.01 minutes
	system time =       0.01 seconds =       0.00 minutes
	total time  =          0 seconds =       0.00 minutes
Total time:
	user time   =       1.62 seconds =       0.03 minutes
	system time =       0.08 seconds =       0.00 minutes
	total time  =          5 seconds =       0.08 minutes
 MINTS: Wrapper to libmints.
   by Justin Turney

   Calculation information:
      Number of threads:                 1
      Number of atoms:                   3
      Number of AO shells:              12
      Number of SO shells:               9
      Number of primitives:             25
      Number of atomic orbitals:        25
      Number of basis functions:        25

      Number of irreps:                  4
      Integral cutoff                 0.00e+00
      Number of functions per irrep: [  12    2    4    7 ]

 OEINTS: Overlap, kinetic, potential, dipole, and quadrupole integrals
         stored in file 35.

      Computing two-electron integrals...done
      Computed 13711 non-zero two-electron integrals.
        Stored in file 33.


         ---------------------------------------------------------
                          Configuration Interaction
                            (a 'D E T C I' module)

                 C. David Sherrill, Daniel G. A. Smith, and
                              Matt L. Leininger
         ---------------------------------------------------------


   ==> Parameters <==

    EX LEVEL       =        2      H0 BLOCKSIZE  =     1000
    VAL EX LEVEL   =        0      H0 GUESS SIZE =     1000
    H0COUPLINGSIZE =        0      H0 COUPLING   =       NO
    MAXITER        =       24      NUM PRINT     =       20
    NUM ROOTS      =        1      ICORE         =        1
    PRINT LVL      =        1      FCI           =       NO
    R CONV         = 1.00e-04      MIXED         =      YES
    E CONV         = 1.00e-08      MIXED4        =      YES
    R4S            =       NO      REPL OTF      =       NO
    DIAG METHOD    =      SEM      FOLLOW ROOT   =        0
    PRECONDITIONER = DAVIDSON      UPDATE        = DAVIDSON
    S              =   0.0000      Ms0           =      YES
    GUESS VECTOR   =  H0BLOCK      OPENTYPE      =     NONE
    COLLAPSE SIZE  =        1      HD AVG        = EVANGELISTI
    MAX NUM VECS   =       25      REF SYM       =     AUTO
    IOPEN        =       NO

    EX ALLOW       =  1  1 
    STATE AVERAGE  =  0(1.00) 

   ==> CI Orbital and Space information <==

    RAS1 LVL      =        4      A RAS3 MAX    =        2
    RAS1 MIN      =        8      B RAS3 MAX    =        2
    A RAS1 LVL    =        4      RAS4 LVL      =       25
    A RAS1 MIN    =        3      A RAS4 MAX    =        0
    A RAS1 MAX    =        5      B RAS4 MAX    =        0
    B RAS1 LVL    =        4      RAS4 MAX      =        0
    B RAS1 MIN    =        3      A RAS34 MAX   =        2
    B RAS1 MAX    =        5      B RAS34 MAX   =        2
    RAS3 LVL      =        5      RAS34 MAX     =        2
    RAS3 MAX      =        2
   ------------------------------------------------------
               Space    Total    A1    A2    B1    B2
   ------------------------------------------------------
                 Nso       25    12     2     4     7
                 Nmo       25    12     2     4     7
               Ndocc        5     3     0     1     1
               Nsocc        0     0     0     0     0
   ------------------------------------------------------
                       CI Spaces
   ------------------------------------------------------
        Dropped DOCC        0     0     0     0     0
                RAS1        5     3     0     1     1
                RAS2        0     0     0     0     0
                RAS3       20     9     2     3     6
                RAS4        0     0     0     0     0
      Active (total)       25    12     2     4     7
        Dropped UOCC        0     0     0     0     0
   ------------------------------------------------------

   ==> Setting up CI strings <==

    There are 2001 alpha and 2001 beta strings
    The CI space requires 3831 (3.83E+03) determinants and 9 blocks

   ==> Transforming CI integrals <==

	Presorting SO-basis two-electron integrals.
	Sorting File: SO Ints (nn|nn) nbuckets = 1
	Transforming the one-electron integrals and constructing Fock matrices
	Starting first half-transformation.
	Sorting half-transformed integrals.
	First half integral transformation complete.
	Starting second half-transformation.
	Two-electron integral transformation complete.

   ==> Starting CI iterations <==

    H0 Block Eigenvalue = -76.17582947

    Simultaneous Expansion Method (Block Davidson Method)
    Using 1 initial trial vectors

     Iter   Root       Total Energy       Delta E      C RMS

   @CI  0:     0    -76.175829474853   -8.4991E+01   5.7149E-01  
   @CI  1:     0    -76.219607227458   -4.3778E-02   4.8623E-02  
   @CI  2:     0    -76.219969696475   -3.6247E-04   1.5033E-02  
   @CI  3:     0    -76.220016818916   -4.7122E-05   3.5319E-03  
   @CI  4:     0    -76.220020069964   -3.2510E-06   8.0820E-04  
   @CI  5:     0    -76.220020304843   -2.3488E-07   2.8151E-04  
   @CI  6:     0    -76.220020320773   -1.5930E-08   7.4678E-05  
   @CI  7:     0    -76.220020322221   -1.4478E-09   1.7534E-05 c

   ==> Energetics <==

    SCF energy =          -76.017554866605934
    Total CI energy =     -76.220020322221004

   ==> CISD root 0 information <==

    CISD Root 0 energy =   -76.220020322221004

   The 20 most important determinants:

    *   1   -0.973649  (  475,  475)  1A1X 2A1X 3A1X 1B1X 1B2X 
    *   2    0.047871  (  503,  503)  1A1X 2A1X 3A1X 1B2X 2B1X 
    *   3    0.038588  (  506,  506)  1A1X 2A1X 3A1X 1B1X 2B2X 
    *   4    0.031791  (  482,  482)  1A1X 2A1X 1B1X 1B2X 6A1X 
    *   5    0.027075  (  507,  507)  1A1X 2A1X 3A1X 1B1X 3B2X 
    *   6    0.025620  (  482,  503)  1A1X 2A1X 3A1B 1B1A 1B2X 6A1A 2B1B 
    *   7    0.025620  (  503,  482)  1A1X 2A1X 3A1A 1B1B 1B2X 6A1B 2B1A 
    *   8   -0.022968  (  503,  508)  1A1X 2A1X 3A1X 1B1B 1B2A 2B1A 4B2B 
    *   9   -0.022968  (  508,  503)  1A1X 2A1X 3A1X 1B1A 1B2B 2B1B 4B2A 
    *  10   -0.022838  (  503,  506)  1A1X 2A1X 3A1X 1B1B 1B2A 2B1A 2B2B 
    *  11   -0.022838  (  506,  503)  1A1X 2A1X 3A1X 1B1A 1B2B 2B1B 2B2A 
    *  12    0.022820  ( 1011, 1011)  1A1X 2A1X 3A1X 1B1X 5A1X 
    *  13    0.022676  (  508,  508)  1A1X 2A1X 3A1X 1B1X 4B2X 
    *  14    0.022445  (  476,  476)  1A1X 2A1X 1B1X 1B2X 4A1X 
    *  15    0.021930  (  506,  508)  1A1X 2A1X 3A1X 1B1X 2B2A 4B2B 
    *  16    0.021930  (  508,  506)  1A1X 2A1X 3A1X 1B1X 2B2B 4B2A 
    *  17   -0.021184  (  476,  506)  1A1X 2A1X 3A1B 1B1X 1B2A 4A1A 2B2B 
    *  18   -0.021184  (  506,  476)  1A1X 2A1X 3A1A 1B1X 1B2B 4A1B 2B2A 
    *  19    0.020592  ( 1024, 1024)  1A1X 2A1X 1B1X 1B2X 3B2X 
    *  20    0.018711  (  488,  488)  1A1X 2A1X 1B1X 1B2X 8A1X 

		 "A good bug is a dead bug" 

			 - Starship Troopers

		 "I didn't write FORTRAN.  That's the problem."

			 - Edward Valeev

  //>>>>>>>>>>>>>>>>>>>>>>>>>>>>>>>>>>>//
  //    Loading displacement 3 of 5    //
  //<<<<<<<<<<<<<<<<<<<<<<<<<<<<<<<<<<<//

*** tstart() called on psinet
*** at Mon May 15 15:35:15 2017

   => Loading Basis Set <=

    Name: 6-31G**
    Role: ORBITAL
    Keyword: BASIS
    atoms 1   entry O          line   140 file /home/psilocaluser/gits/hrw-direct/objdir4/stage/usr/local/psi4/share/psi4/basis/6-31gss.gbs 
    atoms 2-3 entry H          line    35 file /home/psilocaluser/gits/hrw-direct/objdir4/stage/usr/local/psi4/share/psi4/basis/6-31gss.gbs 


         ---------------------------------------------------------
                                   SCF
            by Justin Turney, Rob Parrish, and Andy Simmonett
                              RHF Reference
                        1 Threads,    500 MiB Core
         ---------------------------------------------------------

  ==> Geometry <==

    Molecular point group: c2v
    Full point group: C2v

    Geometry (in Angstrom), charge = 0, multiplicity = 1:

       Center              X                  Y                   Z               Mass       
    ------------   -----------------  -----------------  -----------------  -----------------
           O          0.000000000000     0.000000000000    -0.069592187390    15.994914619560
           H          0.000000000000    -0.785014751915     0.552239257844     1.007825032070
           H          0.000000000000     0.785014751915     0.552239257844     1.007825032070

  Running in c2v symmetry.

  Rotational constants: A =     24.35462  B =     13.57143  C =      8.71504 [cm^-1]
  Rotational constants: A = 730133.20983  B = 406861.33825  C = 261270.35996 [MHz]
  Nuclear repulsion =    8.791539410090563

  Charge       = 0
  Multiplicity = 1
  Electrons    = 10
  Nalpha       = 5
  Nbeta        = 5

  ==> Algorithm <==

  SCF Algorithm Type is PK.
  DIIS enabled.
  MOM disabled.
  Fractional occupation disabled.
  Guess Type is SAD.
  Energy threshold   = 1.00e-10
  Density threshold  = 1.00e-10
  Integral threshold = 0.00e+00

  ==> Primary Basis <==

  Basis Set: 6-31G**
    Blend: 6-31G**
    Number of shells: 12
    Number of basis function: 25
    Number of Cartesian functions: 25
    Spherical Harmonics?: false
    Max angular momentum: 2

  ==> Pre-Iterations <==

   -------------------------------------------------------
    Irrep   Nso     Nmo     Nalpha   Nbeta   Ndocc  Nsocc
   -------------------------------------------------------
     A1        12      12       0       0       0       0
     A2         2       2       0       0       0       0
     B1         4       4       0       0       0       0
     B2         7       7       0       0       0       0
   -------------------------------------------------------
    Total      25      25       5       5       5       0
   -------------------------------------------------------

  ==> Integral Setup <==

  Using in-core PK algorithm.
   Calculation information:
      Number of atoms:                   3
      Number of AO shells:              12
      Number of primitives:             25
      Number of atomic orbitals:        25
      Number of basis functions:        25

      Integral cutoff                 1.00e-12
      Number of threads:                 1

  Performing in-core PK
  Using 105950 doubles for integral storage.
  We computed 3081 shell quartets total.
  Whereas there are 3081 unique shell quartets.
  ==> DiskJK: Disk-Based J/K Matrices <==

    J tasked:                  Yes
    K tasked:                  Yes
    wK tasked:                  No
    Memory (MB):               375
    Schwarz Cutoff:          1E-12

    OpenMP threads:              1
  Minimum eigenvalue in the overlap matrix is 2.3415405999E-02.
  Using Symmetric Orthogonalization.

  SCF Guess: Superposition of Atomic Densities via on-the-fly atomic UHF.

  ==> Iterations <==

                        Total Energy        Delta E     RMS |[F,P]|

   @RHF iter   0:   -75.91203304623339   -7.59120e+01   1.07528e-01 
   @RHF iter   1:   -75.97805054614602   -6.60175e-02   1.99684e-02 
   @RHF iter   2:   -76.00783016422177   -2.97796e-02   1.07411e-02 DIIS
   @RHF iter   3:   -76.01635408246784   -8.52392e-03   1.65616e-03 DIIS
   @RHF iter   4:   -76.01692019932783   -5.66117e-04   5.28431e-04 DIIS
   @RHF iter   5:   -76.01699474727627   -7.45479e-05   1.04191e-04 DIIS
   @RHF iter   6:   -76.01699832353486   -3.57626e-06   1.72286e-05 DIIS
   @RHF iter   7:   -76.01699841789994   -9.43651e-08   2.91161e-06 DIIS
   @RHF iter   8:   -76.01699842005092   -2.15098e-09   3.46923e-07 DIIS
   @RHF iter   9:   -76.01699842007504   -2.41158e-11   2.95375e-08 DIIS
   @RHF iter  10:   -76.01699842007517   -1.27898e-13   3.09888e-09 DIIS
   @RHF iter  11:   -76.01699842007523   -5.68434e-14   3.34733e-10 DIIS
   @RHF iter  12:   -76.01699842007518    4.26326e-14   3.15730e-11 DIIS

  ==> Post-Iterations <==

    Orbital Energies (a.u.)
    -----------------------

    Doubly Occupied:                                                      

       1A1   -20.569175     2A1    -1.319829     1B2    -0.678223  
       3A1    -0.563400     1B1    -0.494863  

    Virtual:                                                              

       4A1     0.202138     2B2     0.292320     3B2     0.981059  
       5A1     1.054705     6A1     1.129243     2B1     1.168669  
       4B2     1.295069     7A1     1.412816     1A2     1.802501  
       8A1     1.807997     3B1     1.919318     9A1     2.511112  
       5B2     2.535560     6B2     2.710517     2A2     2.920117  
       4B1     2.944839    10A1     3.289209    11A1     3.617931  
       7B2     3.872860    12A1     4.077508  

    Final Occupation by Irrep:
             A1    A2    B1    B2 
    DOCC [     3,    0,    1,    1 ]

  Energy converged.

  @RHF Final Energy:   -76.01699842007518

   => Energetics <=

    Nuclear Repulsion Energy =              8.7915394100905626
    One-Electron Energy =                -122.3660956123828214
    Two-Electron Energy =                  37.5575577822170885
    DFT Exchange-Correlation Energy =       0.0000000000000000
    Empirical Dispersion Energy =           0.0000000000000000
    PCM Polarization Energy =               0.0000000000000000
    EFP Energy =                            0.0000000000000000
    Total Energy =                        -76.0169984200751685



Properties will be evaluated at   0.000000,   0.000000,   0.000000 Bohr

Properties computed using the SCF density matrix

  Nuclear Dipole Moment: (a.u.)
     X:     0.0000      Y:     0.0000      Z:     1.0351

  Electronic Dipole Moment: (a.u.)
     X:     0.0000      Y:     0.0000      Z:    -0.1537

  Dipole Moment: (a.u.)
     X:     0.0000      Y:     0.0000      Z:     0.8814     Total:     0.8814

  Dipole Moment: (Debye)
     X:     0.0000      Y:     0.0000      Z:     2.2402     Total:     2.2402


*** tstop() called on psinet at Mon May 15 15:35:15 2017
Module time:
	user time   =       0.34 seconds =       0.01 minutes
	system time =       0.01 seconds =       0.00 minutes
	total time  =          0 seconds =       0.00 minutes
Total time:
	user time   =       2.83 seconds =       0.05 minutes
	system time =       0.13 seconds =       0.00 minutes
	total time  =          6 seconds =       0.10 minutes
 MINTS: Wrapper to libmints.
   by Justin Turney

   Calculation information:
      Number of threads:                 1
      Number of atoms:                   3
      Number of AO shells:              12
      Number of SO shells:               9
      Number of primitives:             25
      Number of atomic orbitals:        25
      Number of basis functions:        25

      Number of irreps:                  4
      Integral cutoff                 0.00e+00
      Number of functions per irrep: [  12    2    4    7 ]

 OEINTS: Overlap, kinetic, potential, dipole, and quadrupole integrals
         stored in file 35.

      Computing two-electron integrals...done
      Computed 13689 non-zero two-electron integrals.
        Stored in file 33.


         ---------------------------------------------------------
                          Configuration Interaction
                            (a 'D E T C I' module)

                 C. David Sherrill, Daniel G. A. Smith, and
                              Matt L. Leininger
         ---------------------------------------------------------


   ==> Parameters <==

    EX LEVEL       =        2      H0 BLOCKSIZE  =     1000
    VAL EX LEVEL   =        0      H0 GUESS SIZE =     1000
    H0COUPLINGSIZE =        0      H0 COUPLING   =       NO
    MAXITER        =       24      NUM PRINT     =       20
    NUM ROOTS      =        1      ICORE         =        1
    PRINT LVL      =        1      FCI           =       NO
    R CONV         = 1.00e-04      MIXED         =      YES
    E CONV         = 1.00e-08      MIXED4        =      YES
    R4S            =       NO      REPL OTF      =       NO
    DIAG METHOD    =      SEM      FOLLOW ROOT   =        0
    PRECONDITIONER = DAVIDSON      UPDATE        = DAVIDSON
    S              =   0.0000      Ms0           =      YES
    GUESS VECTOR   =  H0BLOCK      OPENTYPE      =     NONE
    COLLAPSE SIZE  =        1      HD AVG        = EVANGELISTI
    MAX NUM VECS   =       25      REF SYM       =     AUTO
    IOPEN        =       NO

    EX ALLOW       =  1  1 
    STATE AVERAGE  =  0(1.00) 

   ==> CI Orbital and Space information <==

    RAS1 LVL      =        4      A RAS3 MAX    =        2
    RAS1 MIN      =        8      B RAS3 MAX    =        2
    A RAS1 LVL    =        4      RAS4 LVL      =       25
    A RAS1 MIN    =        3      A RAS4 MAX    =        0
    A RAS1 MAX    =        5      B RAS4 MAX    =        0
    B RAS1 LVL    =        4      RAS4 MAX      =        0
    B RAS1 MIN    =        3      A RAS34 MAX   =        2
    B RAS1 MAX    =        5      B RAS34 MAX   =        2
    RAS3 LVL      =        5      RAS34 MAX     =        2
    RAS3 MAX      =        2
   ------------------------------------------------------
               Space    Total    A1    A2    B1    B2
   ------------------------------------------------------
                 Nso       25    12     2     4     7
                 Nmo       25    12     2     4     7
               Ndocc        5     3     0     1     1
               Nsocc        0     0     0     0     0
   ------------------------------------------------------
                       CI Spaces
   ------------------------------------------------------
        Dropped DOCC        0     0     0     0     0
                RAS1        5     3     0     1     1
                RAS2        0     0     0     0     0
                RAS3       20     9     2     3     6
                RAS4        0     0     0     0     0
      Active (total)       25    12     2     4     7
        Dropped UOCC        0     0     0     0     0
   ------------------------------------------------------

   ==> Setting up CI strings <==

    There are 2001 alpha and 2001 beta strings
    The CI space requires 3831 (3.83E+03) determinants and 9 blocks

   ==> Transforming CI integrals <==

	Presorting SO-basis two-electron integrals.
	Sorting File: SO Ints (nn|nn) nbuckets = 1
	Transforming the one-electron integrals and constructing Fock matrices
	Starting first half-transformation.
	Sorting half-transformed integrals.
	First half integral transformation complete.
	Starting second half-transformation.
	Two-electron integral transformation complete.

   ==> Starting CI iterations <==

    H0 Block Eigenvalue = -76.17548788

    Simultaneous Expansion Method (Block Davidson Method)
    Using 1 initial trial vectors

     Iter   Root       Total Energy       Delta E      C RMS

   @CI  0:     0    -76.175487883003   -8.4967E+01   5.7085E-01  
   @CI  1:     0    -76.219213339642   -4.3725E-02   4.8577E-02  
   @CI  2:     0    -76.219575599950   -3.6226E-04   1.5037E-02  
   @CI  3:     0    -76.219622797088   -4.7197E-05   3.5376E-03  
   @CI  4:     0    -76.219626062112   -3.2650E-06   8.1071E-04  
   @CI  5:     0    -76.219626298836   -2.3672E-07   2.8289E-04  
   @CI  6:     0    -76.219626314959   -1.6123E-08   7.5042E-05  
   @CI  7:     0    -76.219626316428   -1.4689E-09   1.7678E-05 c

   ==> Energetics <==

    SCF energy =          -76.016998420075168
    Total CI energy =     -76.219626316428005

   ==> CISD root 0 information <==

    CISD Root 0 energy =   -76.219626316428005

   The 20 most important determinants:

    *   1    0.973566  (  475,  475)  1A1X 2A1X 3A1X 1B1X 1B2X 
    *   2   -0.047866  (  503,  503)  1A1X 2A1X 3A1X 1B2X 2B1X 
    *   3   -0.038905  (  506,  506)  1A1X 2A1X 3A1X 1B1X 2B2X 
    *   4   -0.031916  (  482,  482)  1A1X 2A1X 1B1X 1B2X 6A1X 
    *   5   -0.027072  (  507,  507)  1A1X 2A1X 3A1X 1B1X 3B2X 
    *   6   -0.025689  (  482,  503)  1A1X 2A1X 3A1B 1B1A 1B2X 6A1A 2B1B 
    *   7   -0.025689  (  503,  482)  1A1X 2A1X 3A1A 1B1B 1B2X 6A1B 2B1A 
    *   8    0.022959  (  503,  508)  1A1X 2A1X 3A1X 1B1B 1B2A 2B1A 4B2B 
    *   9    0.022959  (  508,  503)  1A1X 2A1X 3A1X 1B1A 1B2B 2B1B 4B2A 
    *  10   -0.022894  ( 1011, 1011)  1A1X 2A1X 3A1X 1B1X 5A1X 
    *  11    0.022886  (  503,  506)  1A1X 2A1X 3A1X 1B1B 1B2A 2B1A 2B2B 
    *  12    0.022886  (  506,  503)  1A1X 2A1X 3A1X 1B1A 1B2B 2B1B 2B2A 
    *  13   -0.022731  (  476,  476)  1A1X 2A1X 1B1X 1B2X 4A1X 
    *  14   -0.022650  (  508,  508)  1A1X 2A1X 3A1X 1B1X 4B2X 
    *  15   -0.021941  (  506,  508)  1A1X 2A1X 3A1X 1B1X 2B2A 4B2B 
    *  16   -0.021941  (  508,  506)  1A1X 2A1X 3A1X 1B1X 2B2B 4B2A 
    *  17    0.021439  (  476,  506)  1A1X 2A1X 3A1B 1B1X 1B2A 4A1A 2B2B 
    *  18    0.021439  (  506,  476)  1A1X 2A1X 3A1A 1B1X 1B2B 4A1B 2B2A 
    *  19   -0.020561  ( 1024, 1024)  1A1X 2A1X 1B1X 1B2X 3B2X 
    *  20   -0.018861  ( 1010, 1010)  1A1X 2A1X 3A1X 1B1X 4A1X 

		 "A good bug is a dead bug" 

			 - Starship Troopers

		 "I didn't write FORTRAN.  That's the problem."

			 - Edward Valeev

  //>>>>>>>>>>>>>>>>>>>>>>>>>>>>>>>>>>>//
  //    Loading displacement 4 of 5    //
  //<<<<<<<<<<<<<<<<<<<<<<<<<<<<<<<<<<<//

*** tstart() called on psinet
*** at Mon May 15 15:35:16 2017

   => Loading Basis Set <=

    Name: 6-31G**
    Role: ORBITAL
    Keyword: BASIS
    atoms 1   entry O          line   140 file /home/psilocaluser/gits/hrw-direct/objdir4/stage/usr/local/psi4/share/psi4/basis/6-31gss.gbs 
    atoms 2-3 entry H          line    35 file /home/psilocaluser/gits/hrw-direct/objdir4/stage/usr/local/psi4/share/psi4/basis/6-31gss.gbs 


         ---------------------------------------------------------
                                   SCF
            by Justin Turney, Rob Parrish, and Andy Simmonett
                              RHF Reference
                        1 Threads,    500 MiB Core
         ---------------------------------------------------------

  ==> Geometry <==

    Molecular point group: c2v
    Full point group: C2v

    Geometry (in Angstrom), charge = 0, multiplicity = 1:

       Center              X                  Y                   Z               Mass       
    ------------   -----------------  -----------------  -----------------  -----------------
           O          0.000000000000     0.000000000000    -0.069592187390    15.994914619560
           H          0.000000000000    -0.781287458666     0.552239257844     1.007825032070
           H          0.000000000000     0.781287458666     0.552239257844     1.007825032070

  Running in c2v symmetry.

  Rotational constants: A =     24.35462  B =     13.70123  C =      8.76838 [cm^-1]
  Rotational constants: A = 730133.20983  B = 410752.63043  C = 262869.54042 [MHz]
  Nuclear repulsion =    8.817862354624559

  Charge       = 0
  Multiplicity = 1
  Electrons    = 10
  Nalpha       = 5
  Nbeta        = 5

  ==> Algorithm <==

  SCF Algorithm Type is PK.
  DIIS enabled.
  MOM disabled.
  Fractional occupation disabled.
  Guess Type is SAD.
  Energy threshold   = 1.00e-10
  Density threshold  = 1.00e-10
  Integral threshold = 0.00e+00

  ==> Primary Basis <==

  Basis Set: 6-31G**
    Blend: 6-31G**
    Number of shells: 12
    Number of basis function: 25
    Number of Cartesian functions: 25
    Spherical Harmonics?: false
    Max angular momentum: 2

  ==> Pre-Iterations <==

   -------------------------------------------------------
    Irrep   Nso     Nmo     Nalpha   Nbeta   Ndocc  Nsocc
   -------------------------------------------------------
     A1        12      12       0       0       0       0
     A2         2       2       0       0       0       0
     B1         4       4       0       0       0       0
     B2         7       7       0       0       0       0
   -------------------------------------------------------
    Total      25      25       5       5       5       0
   -------------------------------------------------------

  ==> Integral Setup <==

  Using in-core PK algorithm.
   Calculation information:
      Number of atoms:                   3
      Number of AO shells:              12
      Number of primitives:             25
      Number of atomic orbitals:        25
      Number of basis functions:        25

      Integral cutoff                 1.00e-12
      Number of threads:                 1

  Performing in-core PK
  Using 105950 doubles for integral storage.
  We computed 3081 shell quartets total.
  Whereas there are 3081 unique shell quartets.
  ==> DiskJK: Disk-Based J/K Matrices <==

    J tasked:                  Yes
    K tasked:                  Yes
    wK tasked:                  No
    Memory (MB):               375
    Schwarz Cutoff:          1E-12

    OpenMP threads:              1
  Minimum eigenvalue in the overlap matrix is 2.3307178517E-02.
  Using Symmetric Orthogonalization.

  SCF Guess: Superposition of Atomic Densities via on-the-fly atomic UHF.

  ==> Iterations <==

                        Total Energy        Delta E     RMS |[F,P]|

   @RHF iter   0:   -75.89282110481209   -7.58928e+01   1.08050e-01 
   @RHF iter   1:   -75.98075124569178   -8.79301e-02   1.96740e-02 
   @RHF iter   2:   -76.00887349146728   -2.81222e-02   1.05564e-02 DIIS
   @RHF iter   3:   -76.01704985509630   -8.17636e-03   1.53499e-03 DIIS
   @RHF iter   4:   -76.01751902378369   -4.69169e-04   4.90210e-04 DIIS
   @RHF iter   5:   -76.01758290651742   -6.38827e-05   1.00380e-04 DIIS
   @RHF iter   6:   -76.01758623128924   -3.32477e-06   1.57902e-05 DIIS
   @RHF iter   7:   -76.01758630972063   -7.84314e-08   2.60863e-06 DIIS
   @RHF iter   8:   -76.01758631142825   -1.70762e-09   3.35276e-07 DIIS
   @RHF iter   9:   -76.01758631145169   -2.34479e-11   2.76626e-08 DIIS
   @RHF iter  10:   -76.01758631145175   -5.68434e-14   2.64435e-09 DIIS
   @RHF iter  11:   -76.01758631145177   -1.42109e-14   2.81059e-10 DIIS
   @RHF iter  12:   -76.01758631145175    1.42109e-14   2.55140e-11 DIIS

  ==> Post-Iterations <==

    Orbital Energies (a.u.)
    -----------------------

    Doubly Occupied:                                                      

       1A1   -20.568824     2A1    -1.321393     1B2    -0.679224  
       3A1    -0.564462     1B1    -0.495145  

    Virtual:                                                              

       4A1     0.202791     2B2     0.293118     3B2     0.981270  
       5A1     1.057929     6A1     1.129123     2B1     1.168608  
       4B2     1.294907     7A1     1.414378     1A2     1.803254  
       8A1     1.805830     3B1     1.918426     9A1     2.515383  
       5B2     2.540084     6B2     2.716659     2A2     2.922009  
       4B1     2.950135    10A1     3.294276    11A1     3.623541  
       7B2     3.876993    12A1     4.077973  

    Final Occupation by Irrep:
             A1    A2    B1    B2 
    DOCC [     3,    0,    1,    1 ]

  Energy converged.

  @RHF Final Energy:   -76.01758631145175

   => Energetics <=

    Nuclear Repulsion Energy =              8.8178623546245589
    One-Electron Energy =                -122.4128027730255326
    Two-Electron Energy =                  37.5773541069492296
    DFT Exchange-Correlation Energy =       0.0000000000000000
    Empirical Dispersion Energy =           0.0000000000000000
    PCM Polarization Energy =               0.0000000000000000
    EFP Energy =                            0.0000000000000000
    Total Energy =                        -76.0175863114517369



Properties will be evaluated at   0.000000,   0.000000,   0.000000 Bohr

Properties computed using the SCF density matrix

  Nuclear Dipole Moment: (a.u.)
     X:     0.0000      Y:     0.0000      Z:     1.0351

  Electronic Dipole Moment: (a.u.)
     X:     0.0000      Y:     0.0000      Z:    -0.1527

  Dipole Moment: (a.u.)
     X:     0.0000      Y:     0.0000      Z:     0.8823     Total:     0.8823

  Dipole Moment: (Debye)
     X:     0.0000      Y:     0.0000      Z:     2.2427     Total:     2.2427


*** tstop() called on psinet at Mon May 15 15:35:17 2017
Module time:
	user time   =       0.34 seconds =       0.01 minutes
	system time =       0.01 seconds =       0.00 minutes
	total time  =          1 seconds =       0.02 minutes
Total time:
	user time   =       4.02 seconds =       0.07 minutes
	system time =       0.17 seconds =       0.00 minutes
	total time  =          8 seconds =       0.13 minutes
 MINTS: Wrapper to libmints.
   by Justin Turney

   Calculation information:
      Number of threads:                 1
      Number of atoms:                   3
      Number of AO shells:              12
      Number of SO shells:               9
      Number of primitives:             25
      Number of atomic orbitals:        25
      Number of basis functions:        25

      Number of irreps:                  4
      Integral cutoff                 0.00e+00
      Number of functions per irrep: [  12    2    4    7 ]

 OEINTS: Overlap, kinetic, potential, dipole, and quadrupole integrals
         stored in file 35.

      Computing two-electron integrals...done
      Computed 13699 non-zero two-electron integrals.
        Stored in file 33.


         ---------------------------------------------------------
                          Configuration Interaction
                            (a 'D E T C I' module)

                 C. David Sherrill, Daniel G. A. Smith, and
                              Matt L. Leininger
         ---------------------------------------------------------


   ==> Parameters <==

    EX LEVEL       =        2      H0 BLOCKSIZE  =     1000
    VAL EX LEVEL   =        0      H0 GUESS SIZE =     1000
    H0COUPLINGSIZE =        0      H0 COUPLING   =       NO
    MAXITER        =       24      NUM PRINT     =       20
    NUM ROOTS      =        1      ICORE         =        1
    PRINT LVL      =        1      FCI           =       NO
    R CONV         = 1.00e-04      MIXED         =      YES
    E CONV         = 1.00e-08      MIXED4        =      YES
    R4S            =       NO      REPL OTF      =       NO
    DIAG METHOD    =      SEM      FOLLOW ROOT   =        0
    PRECONDITIONER = DAVIDSON      UPDATE        = DAVIDSON
    S              =   0.0000      Ms0           =      YES
    GUESS VECTOR   =  H0BLOCK      OPENTYPE      =     NONE
    COLLAPSE SIZE  =        1      HD AVG        = EVANGELISTI
    MAX NUM VECS   =       25      REF SYM       =     AUTO
    IOPEN        =       NO

    EX ALLOW       =  1  1 
    STATE AVERAGE  =  0(1.00) 

   ==> CI Orbital and Space information <==

    RAS1 LVL      =        4      A RAS3 MAX    =        2
    RAS1 MIN      =        8      B RAS3 MAX    =        2
    A RAS1 LVL    =        4      RAS4 LVL      =       25
    A RAS1 MIN    =        3      A RAS4 MAX    =        0
    A RAS1 MAX    =        5      B RAS4 MAX    =        0
    B RAS1 LVL    =        4      RAS4 MAX      =        0
    B RAS1 MIN    =        3      A RAS34 MAX   =        2
    B RAS1 MAX    =        5      B RAS34 MAX   =        2
    RAS3 LVL      =        5      RAS34 MAX     =        2
    RAS3 MAX      =        2
   ------------------------------------------------------
               Space    Total    A1    A2    B1    B2
   ------------------------------------------------------
                 Nso       25    12     2     4     7
                 Nmo       25    12     2     4     7
               Ndocc        5     3     0     1     1
               Nsocc        0     0     0     0     0
   ------------------------------------------------------
                       CI Spaces
   ------------------------------------------------------
        Dropped DOCC        0     0     0     0     0
                RAS1        5     3     0     1     1
                RAS2        0     0     0     0     0
                RAS3       20     9     2     3     6
                RAS4        0     0     0     0     0
      Active (total)       25    12     2     4     7
        Dropped UOCC        0     0     0     0     0
   ------------------------------------------------------

   ==> Setting up CI strings <==

    There are 2001 alpha and 2001 beta strings
    The CI space requires 3831 (3.83E+03) determinants and 9 blocks

   ==> Transforming CI integrals <==

	Presorting SO-basis two-electron integrals.
	Sorting File: SO Ints (nn|nn) nbuckets = 1
	Transforming the one-electron integrals and constructing Fock matrices
	Starting first half-transformation.
	Sorting half-transformed integrals.
	First half integral transformation complete.
	Starting second half-transformation.
	Two-electron integral transformation complete.

   ==> Starting CI iterations <==

    H0 Block Eigenvalue = -76.17585355

    Simultaneous Expansion Method (Block Davidson Method)
    Using 1 initial trial vectors

     Iter   Root       Total Energy       Delta E      C RMS

   @CI  0:     0    -76.175853549743   -8.4994E+01   5.7160E-01  
   @CI  1:     0    -76.219647064918   -4.3794E-02   4.8626E-02  
   @CI  2:     0    -76.220009717372   -3.6265E-04   1.5035E-02  
   @CI  3:     0    -76.220056845186   -4.7128E-05   3.5315E-03  
   @CI  4:     0    -76.220060097284   -3.2521E-06   8.0870E-04  
   @CI  5:     0    -76.220060332406   -2.3512E-07   2.8171E-04  
   @CI  6:     0    -76.220060348351   -1.5945E-08   7.4629E-05  
   @CI  7:     0    -76.220060349797   -1.4453E-09   1.7503E-05 c

   ==> Energetics <==

    SCF energy =          -76.017586311451737
    Total CI energy =     -76.220060349796711

   ==> CISD root 0 information <==

    CISD Root 0 energy =   -76.220060349796711

   The 20 most important determinants:

    *   1    0.973649  (  475,  475)  1A1X 2A1X 3A1X 1B1X 1B2X 
    *   2   -0.047868  (  503,  503)  1A1X 2A1X 3A1X 1B2X 2B1X 
    *   3   -0.038646  (  506,  506)  1A1X 2A1X 3A1X 1B1X 2B2X 
    *   4   -0.031527  (  482,  482)  1A1X 2A1X 1B1X 1B2X 6A1X 
    *   5   -0.027066  (  507,  507)  1A1X 2A1X 3A1X 1B1X 3B2X 
    *   6   -0.025481  (  482,  503)  1A1X 2A1X 3A1B 1B1A 1B2X 6A1A 2B1B 
    *   7   -0.025481  (  503,  482)  1A1X 2A1X 3A1A 1B1B 1B2X 6A1B 2B1A 
    *   8    0.022992  (  503,  508)  1A1X 2A1X 3A1X 1B1B 1B2A 2B1A 4B2B 
    *   9    0.022992  (  508,  503)  1A1X 2A1X 3A1X 1B1A 1B2B 2B1B 4B2A 
    *  10    0.022841  (  503,  506)  1A1X 2A1X 3A1X 1B1B 1B2A 2B1A 2B2B 
    *  11    0.022841  (  506,  503)  1A1X 2A1X 3A1X 1B1A 1B2B 2B1B 2B2A 
    *  12   -0.022712  (  508,  508)  1A1X 2A1X 3A1X 1B1X 4B2X 
    *  13   -0.022632  ( 1011, 1011)  1A1X 2A1X 3A1X 1B1X 5A1X 
    *  14   -0.022444  (  476,  476)  1A1X 2A1X 1B1X 1B2X 4A1X 
    *  15   -0.021976  (  506,  508)  1A1X 2A1X 3A1X 1B1X 2B2A 4B2B 
    *  16   -0.021976  (  508,  506)  1A1X 2A1X 3A1X 1B1X 2B2B 4B2A 
    *  17    0.021210  (  476,  506)  1A1X 2A1X 3A1B 1B1X 1B2A 4A1A 2B2B 
    *  18    0.021210  (  506,  476)  1A1X 2A1X 3A1A 1B1X 1B2B 4A1B 2B2A 
    *  19   -0.020598  ( 1024, 1024)  1A1X 2A1X 1B1X 1B2X 3B2X 
    *  20   -0.018705  (  488,  488)  1A1X 2A1X 1B1X 1B2X 8A1X 

		 "A good bug is a dead bug" 

			 - Starship Troopers

		 "I didn't write FORTRAN.  That's the problem."

			 - Edward Valeev

  //>>>>>>>>>>>>>>>>>>>>>>>>>>>>>>>>>>>//
  //    Loading displacement 5 of 5    //
  //<<<<<<<<<<<<<<<<<<<<<<<<<<<<<<<<<<<//

*** tstart() called on psinet
*** at Mon May 15 15:35:17 2017

   => Loading Basis Set <=

    Name: 6-31G**
    Role: ORBITAL
    Keyword: BASIS
    atoms 1   entry O          line   140 file /home/psilocaluser/gits/hrw-direct/objdir4/stage/usr/local/psi4/share/psi4/basis/6-31gss.gbs 
    atoms 2-3 entry H          line    35 file /home/psilocaluser/gits/hrw-direct/objdir4/stage/usr/local/psi4/share/psi4/basis/6-31gss.gbs 


         ---------------------------------------------------------
                                   SCF
            by Justin Turney, Rob Parrish, and Andy Simmonett
                              RHF Reference
                        1 Threads,    500 MiB Core
         ---------------------------------------------------------

  ==> Geometry <==

    Molecular point group: c2v
    Full point group: C2v

    Geometry (in Angstrom), charge = 0, multiplicity = 1:

       Center              X                  Y                   Z               Mass       
    ------------   -----------------  -----------------  -----------------  -----------------
           O          0.000000000000     0.000000000000    -0.069592187390    15.994914619560
           H          0.000000000000    -0.783151105291     0.552239257844     1.007825032070
           H          0.000000000000     0.783151105291     0.552239257844     1.007825032070

  Running in c2v symmetry.

  Rotational constants: A =     24.35462  B =     13.63610  C =      8.74166 [cm^-1]
  Rotational constants: A = 730133.20983  B = 408800.03934  C = 262068.46197 [MHz]
  Nuclear repulsion =    8.804686618639055

  Charge       = 0
  Multiplicity = 1
  Electrons    = 10
  Nalpha       = 5
  Nbeta        = 5

  ==> Algorithm <==

  SCF Algorithm Type is PK.
  DIIS enabled.
  MOM disabled.
  Fractional occupation disabled.
  Guess Type is SAD.
  Energy threshold   = 1.00e-10
  Density threshold  = 1.00e-10
  Integral threshold = 0.00e+00

  ==> Primary Basis <==

  Basis Set: 6-31G**
    Blend: 6-31G**
    Number of shells: 12
    Number of basis function: 25
    Number of Cartesian functions: 25
    Spherical Harmonics?: false
    Max angular momentum: 2

  ==> Pre-Iterations <==

   -------------------------------------------------------
    Irrep   Nso     Nmo     Nalpha   Nbeta   Ndocc  Nsocc
   -------------------------------------------------------
     A1        12      12       0       0       0       0
     A2         2       2       0       0       0       0
     B1         4       4       0       0       0       0
     B2         7       7       0       0       0       0
   -------------------------------------------------------
    Total      25      25       5       5       5       0
   -------------------------------------------------------

  ==> Integral Setup <==

  Using in-core PK algorithm.
   Calculation information:
      Number of atoms:                   3
      Number of AO shells:              12
      Number of primitives:             25
      Number of atomic orbitals:        25
      Number of basis functions:        25

      Integral cutoff                 1.00e-12
      Number of threads:                 1

  Performing in-core PK
  Using 105950 doubles for integral storage.
  We computed 3081 shell quartets total.
  Whereas there are 3081 unique shell quartets.
  ==> DiskJK: Disk-Based J/K Matrices <==

    J tasked:                  Yes
    K tasked:                  Yes
    wK tasked:                  No
    Memory (MB):               375
    Schwarz Cutoff:          1E-12

    OpenMP threads:              1
  Minimum eigenvalue in the overlap matrix is 2.3361254517E-02.
  Using Symmetric Orthogonalization.

  SCF Guess: Superposition of Atomic Densities via on-the-fly atomic UHF.

  ==> Iterations <==

                        Total Energy        Delta E     RMS |[F,P]|

   @RHF iter   0:   -75.92412743087603   -7.59241e+01   1.07940e-01 
   @RHF iter   1:   -75.97900317599760   -5.48757e-02   1.97000e-02 
   @RHF iter   2:   -76.00836720245906   -2.93640e-02   1.05045e-02 DIIS
   @RHF iter   3:   -76.01659859552583   -8.23139e-03   1.70337e-03 DIIS
   @RHF iter   4:   -76.01721134753505   -6.12752e-04   5.42494e-04 DIIS
   @RHF iter   5:   -76.01729270384999   -8.13563e-05   1.06506e-04 DIIS
   @RHF iter   6:   -76.01729646832834   -3.76448e-06   1.66050e-05 DIIS
   @RHF iter   7:   -76.01729655341458   -8.50862e-08   2.73626e-06 DIIS
   @RHF iter   8:   -76.01729655525894   -1.84436e-09   3.48764e-07 DIIS
   @RHF iter   9:   -76.01729655528304   -2.41016e-11   3.00656e-08 DIIS
   @RHF iter  10:   -76.01729655528311   -7.10543e-14   3.48367e-09 DIIS
   @RHF iter  11:   -76.01729655528305    5.68434e-14   3.79686e-10 DIIS
   @RHF iter  12:   -76.01729655528318   -1.27898e-13   3.44990e-11 DIIS

  ==> Post-Iterations <==

    Orbital Energies (a.u.)
    -----------------------

    Doubly Occupied:                                                      

       1A1   -20.569000     2A1    -1.320609     1B2    -0.678724  
       3A1    -0.563930     1B1    -0.495004  

    Virtual:                                                              

       4A1     0.202466     2B2     0.292719     3B2     0.981164  
       5A1     1.056318     6A1     1.129179     2B1     1.168639  
       4B2     1.294985     7A1     1.413596     1A2     1.802875  
       8A1     1.806916     3B1     1.918871     9A1     2.513248  
       5B2     2.537822     6B2     2.713577     2A2     2.921065  
       4B1     2.947486    10A1     3.291755    11A1     3.620730  
       7B2     3.874917    12A1     4.077740  

    Final Occupation by Irrep:
             A1    A2    B1    B2 
    DOCC [     3,    0,    1,    1 ]

  Energy converged.

  @RHF Final Energy:   -76.01729655528318

   => Energetics <=

    Nuclear Repulsion Energy =              8.8046866186390549
    One-Electron Energy =                -122.3894315017916625
    Two-Electron Energy =                  37.5674483278694211
    DFT Exchange-Correlation Energy =       0.0000000000000000
    Empirical Dispersion Energy =           0.0000000000000000
    PCM Polarization Energy =               0.0000000000000000
    EFP Energy =                            0.0000000000000000
    Total Energy =                        -76.0172965552831954



Properties will be evaluated at   0.000000,   0.000000,   0.000000 Bohr

Properties computed using the SCF density matrix

  Nuclear Dipole Moment: (a.u.)
     X:     0.0000      Y:    -0.0000      Z:     1.0351

  Electronic Dipole Moment: (a.u.)
     X:     0.0000      Y:     0.0000      Z:    -0.1532

  Dipole Moment: (a.u.)
     X:     0.0000      Y:    -0.0000      Z:     0.8819     Total:     0.8819

  Dipole Moment: (Debye)
     X:     0.0000      Y:    -0.0000      Z:     2.2414     Total:     2.2414


*** tstop() called on psinet at Mon May 15 15:35:18 2017
Module time:
	user time   =       0.33 seconds =       0.01 minutes
	system time =       0.01 seconds =       0.00 minutes
	total time  =          1 seconds =       0.02 minutes
Total time:
	user time   =       5.21 seconds =       0.09 minutes
	system time =       0.21 seconds =       0.00 minutes
	total time  =          9 seconds =       0.15 minutes
 MINTS: Wrapper to libmints.
   by Justin Turney

   Calculation information:
      Number of threads:                 1
      Number of atoms:                   3
      Number of AO shells:              12
      Number of SO shells:               9
      Number of primitives:             25
      Number of atomic orbitals:        25
      Number of basis functions:        25

      Number of irreps:                  4
      Integral cutoff                 0.00e+00
      Number of functions per irrep: [  12    2    4    7 ]

 OEINTS: Overlap, kinetic, potential, dipole, and quadrupole integrals
         stored in file 35.

      Computing two-electron integrals...done
      Computed 13699 non-zero two-electron integrals.
        Stored in file 33.


         ---------------------------------------------------------
                          Configuration Interaction
                            (a 'D E T C I' module)

                 C. David Sherrill, Daniel G. A. Smith, and
                              Matt L. Leininger
         ---------------------------------------------------------


   ==> Parameters <==

    EX LEVEL       =        2      H0 BLOCKSIZE  =     1000
    VAL EX LEVEL   =        0      H0 GUESS SIZE =     1000
    H0COUPLINGSIZE =        0      H0 COUPLING   =       NO
    MAXITER        =       24      NUM PRINT     =       20
    NUM ROOTS      =        1      ICORE         =        1
    PRINT LVL      =        1      FCI           =       NO
    R CONV         = 1.00e-04      MIXED         =      YES
    E CONV         = 1.00e-08      MIXED4        =      YES
    R4S            =       NO      REPL OTF      =       NO
    DIAG METHOD    =      SEM      FOLLOW ROOT   =        0
    PRECONDITIONER = DAVIDSON      UPDATE        = DAVIDSON
    S              =   0.0000      Ms0           =      YES
    GUESS VECTOR   =  H0BLOCK      OPENTYPE      =     NONE
    COLLAPSE SIZE  =        1      HD AVG        = EVANGELISTI
    MAX NUM VECS   =       25      REF SYM       =     AUTO
    IOPEN        =       NO

    EX ALLOW       =  1  1 
    STATE AVERAGE  =  0(1.00) 

   ==> CI Orbital and Space information <==

    RAS1 LVL      =        4      A RAS3 MAX    =        2
    RAS1 MIN      =        8      B RAS3 MAX    =        2
    A RAS1 LVL    =        4      RAS4 LVL      =       25
    A RAS1 MIN    =        3      A RAS4 MAX    =        0
    A RAS1 MAX    =        5      B RAS4 MAX    =        0
    B RAS1 LVL    =        4      RAS4 MAX      =        0
    B RAS1 MIN    =        3      A RAS34 MAX   =        2
    B RAS1 MAX    =        5      B RAS34 MAX   =        2
    RAS3 LVL      =        5      RAS34 MAX     =        2
    RAS3 MAX      =        2
   ------------------------------------------------------
               Space    Total    A1    A2    B1    B2
   ------------------------------------------------------
                 Nso       25    12     2     4     7
                 Nmo       25    12     2     4     7
               Ndocc        5     3     0     1     1
               Nsocc        0     0     0     0     0
   ------------------------------------------------------
                       CI Spaces
   ------------------------------------------------------
        Dropped DOCC        0     0     0     0     0
                RAS1        5     3     0     1     1
                RAS2        0     0     0     0     0
                RAS3       20     9     2     3     6
                RAS4        0     0     0     0     0
      Active (total)       25    12     2     4     7
        Dropped UOCC        0     0     0     0     0
   ------------------------------------------------------

   ==> Setting up CI strings <==

    There are 2001 alpha and 2001 beta strings
    The CI space requires 3831 (3.83E+03) determinants and 9 blocks

   ==> Transforming CI integrals <==

	Presorting SO-basis two-electron integrals.
	Sorting File: SO Ints (nn|nn) nbuckets = 1
	Transforming the one-electron integrals and constructing Fock matrices
	Starting first half-transformation.
	Sorting half-transformed integrals.
	First half integral transformation complete.
	Starting second half-transformation.
	Two-electron integral transformation complete.

   ==> Starting CI iterations <==

    H0 Block Eigenvalue = -76.17567487

    Simultaneous Expansion Method (Block Davidson Method)
    Using 1 initial trial vectors

     Iter   Root       Total Energy       Delta E      C RMS

   @CI  0:     0    -76.175674865389   -8.4980E+01   5.7122E-01  
   @CI  1:     0    -76.219434320155   -4.3759E-02   4.8601E-02  
   @CI  2:     0    -76.219796775014   -3.6245E-04   1.5036E-02  
   @CI  3:     0    -76.219843937289   -4.7162E-05   3.5345E-03  
   @CI  4:     0    -76.219847195811   -3.2585E-06   8.0970E-04  
   @CI  5:     0    -76.219847431729   -2.3592E-07   2.8229E-04  
   @CI  6:     0    -76.219847447762   -1.6033E-08   7.4833E-05  
   @CI  7:     0    -76.219847449219   -1.4569E-09   1.7590E-05 c

   ==> Energetics <==

    SCF energy =          -76.017296555283195
    Total CI energy =     -76.219847449218875

   ==> CISD root 0 information <==

    CISD Root 0 energy =   -76.219847449218875

   The 20 most important determinants:

    *   1    0.973608  (  475,  475)  1A1X 2A1X 3A1X 1B1X 1B2X 
    *   2   -0.047867  (  503,  503)  1A1X 2A1X 3A1X 1B2X 2B1X 
    *   3   -0.038775  (  506,  506)  1A1X 2A1X 3A1X 1B1X 2B2X 
    *   4   -0.031728  (  482,  482)  1A1X 2A1X 1B1X 1B2X 6A1X 
    *   5   -0.027069  (  507,  507)  1A1X 2A1X 3A1X 1B1X 3B2X 
    *   6   -0.025589  (  482,  503)  1A1X 2A1X 3A1B 1B1A 1B2X 6A1A 2B1B 
    *   7   -0.025589  (  503,  482)  1A1X 2A1X 3A1A 1B1B 1B2X 6A1B 2B1A 
    *   8    0.022976  (  503,  508)  1A1X 2A1X 3A1X 1B1B 1B2A 2B1A 4B2B 
    *   9    0.022976  (  508,  503)  1A1X 2A1X 3A1X 1B1A 1B2B 2B1B 4B2A 
    *  10    0.022864  (  503,  506)  1A1X 2A1X 3A1X 1B1B 1B2A 2B1A 2B2B 
    *  11    0.022864  (  506,  503)  1A1X 2A1X 3A1X 1B1A 1B2B 2B1B 2B2A 
    *  12   -0.022767  ( 1011, 1011)  1A1X 2A1X 3A1X 1B1X 5A1X 
    *  13   -0.022681  (  508,  508)  1A1X 2A1X 3A1X 1B1X 4B2X 
    *  14   -0.022587  (  476,  476)  1A1X 2A1X 1B1X 1B2X 4A1X 
    *  15   -0.021959  (  506,  508)  1A1X 2A1X 3A1X 1B1X 2B2A 4B2B 
    *  16   -0.021959  (  508,  506)  1A1X 2A1X 3A1X 1B1X 2B2B 4B2A 
    *  17    0.021324  (  476,  506)  1A1X 2A1X 3A1B 1B1X 1B2A 4A1A 2B2B 
    *  18    0.021324  (  506,  476)  1A1X 2A1X 3A1A 1B1X 1B2B 4A1B 2B2A 
    *  19   -0.020580  ( 1024, 1024)  1A1X 2A1X 1B1X 1B2X 3B2X 
    *  20   -0.018749  ( 1010, 1010)  1A1X 2A1X 3A1X 1B1X 4A1X 

		 "A good bug is a dead bug" 

			 - Starship Troopers

		 "I didn't write FORTRAN.  That's the problem."

			 - Edward Valeev

-------------------------------------------------------------

  Computing gradient from energies (fd_1_0).
	Using 3-point formula.
	Energy without displacement:  -76.2198474492
	Check energies below for precision!
	Forces are for mass-weighted, symmetry-adapted cartesians (in au).

	 Coord      Energy(-)        Energy(+)        Force
	    0    -76.2196689442   -76.2200203222    -0.0351378032
	    1    -76.2196263164   -76.2200603498    -0.0434033369

	Gradient written.

-------------------------------------------------------------
  Irrep: 1 Size: 3 x 3

                 1                   2                   3

    1     0.00000000000000     0.00000000000000    -0.04701208061794
    2     0.00000000000000    -0.03081063806087     0.02350604030897
    3     0.00000000000000     0.03081063806087     0.02350604030897




			-----------------------------------------
			 OPTKING 2.0: for geometry optimizations 
			  - R.A. King,  Bethel University        
			-----------------------------------------

	Internal coordinates to be generated automatically.
	Detected frag 1 with atoms:  1 2 3
	---Fragment 1 Bond Connectivity---
	 1 : 2 3
	 2 : 1
	 3 : 1

	---Fragment 1 Geometry and Gradient---
	 O           0.0000000000        0.0000000000       -0.1315101752
	 H           0.0000000000       -1.4799411097        1.0435809572
	 H           0.0000000000        1.4799411097        1.0435809572
	             0.0000000000        0.0000000000       -0.0470120806
	             0.0000000000       -0.0308106381        0.0235060403
	             0.0000000000        0.0308106381        0.0235060403

	Previous optimization step data not found.  Starting new optimization.

	---Fragment 1 Intrafragment Coordinates---
	 - Coordinate -           - BOHR/RAD -       - ANG/DEG -
	 R(1,2)           =         1.889726	       1.000000
	 R(1,3)           =         1.889726	       1.000000
	 B(2,1,3)         =         1.799434	     103.100000

	Current energy   :       -76.2198474492

	Generating empirical Hessian (Schlegel '84) for each fragment.
	Taking RFO optimization step.
	Going to follow RFO solution 1.
	Using RFO vector 1.
	Norm of target step-size    0.11374
	Projected energy change by RFO approximation:        -0.0072529820

	Back-transformation to cartesian coordinates...
	Successfully converged to displaced geometry.

	--- Internal Coordinate Step in ANG or DEG, aJ/ANG or AJ/DEG ---
	 ---------------------------------------------------------------------------
	   Coordinate                Previous        Force       Change         New 
	   ----------                --------       ------       ------       ------
	    1 R(1,2)          =      1.000000    -0.319219    -0.042441     0.957559
	    2 R(1,3)          =      1.000000    -0.319219    -0.042441     0.957559
	    3 B(2,1,3)        =    103.100000    -0.000108    -0.488676   102.611324
	 ---------------------------------------------------------------------------
	Successfully symmetrized geometry.

  ==> Convergence Check <==

  Measures of convergence in internal coordinates in au.
  Criteria marked as inactive (o), active & met (*), and active & unmet ( ).
  --------------------------------------------------------------------------------------------- ~
   Step     Total Energy     Delta E     MAX Force     RMS Force      MAX Disp      RMS Disp    ~
  --------------------------------------------------------------------------------------------- ~
    Convergence Criteria    1.00e-06 *    1.00e-06 *             o    1.00e-04 *             o  ~
  --------------------------------------------------------------------------------------------- ~
      1     -76.21984745   -7.62e+01      3.87e-02      3.16e-02 o    8.02e-02      6.57e-02 o  ~
  ---------------------------------------------------------------------------------------------

	Writing optimization data to binary file.
	Structure for next step:
	Cartesian Geometry (in Angstrom)
	    O     0.0000000000   0.0000000000  -0.0541265580
	    H     0.0000000000  -0.7473674700   0.5445064431
	    H     0.0000000000   0.7473674700   0.5445064431
			--------------------------
			 OPTKING Finished Execution 
			--------------------------

    Structure for next step:
    Molecular point group: c2v
    Full point group: C2v

    Geometry (in Angstrom), charge = 0, multiplicity = 1:

    O       
    H             1    0.957559
    H             1    0.957559      2  102.611324

gradient() will perform gradient computation by finite difference of analytic energies.

-------------------------------------------------------------

  Using finite-differences of energies to determine gradients (fd_geoms_1_0).
	Generating geometries for use with 3-point formula.
	Displacement size will be 5.00e-03.
	Number of atoms is 3.
	Number of symmetric SALC's is 2.
	Number of displacements (including reference) is 5.

-------------------------------------------------------------

  //>>>>>>>>>>>>>>>>>>>>>>>>>>>>>>>>>>>//
  //    Loading displacement 1 of 5    //
  //<<<<<<<<<<<<<<<<<<<<<<<<<<<<<<<<<<<//

*** tstart() called on psinet
*** at Mon May 15 15:35:19 2017

   => Loading Basis Set <=

    Name: 6-31G**
    Role: ORBITAL
    Keyword: BASIS
    atoms 1   entry O          line   140 file /home/psilocaluser/gits/hrw-direct/objdir4/stage/usr/local/psi4/share/psi4/basis/6-31gss.gbs 
    atoms 2-3 entry H          line    35 file /home/psilocaluser/gits/hrw-direct/objdir4/stage/usr/local/psi4/share/psi4/basis/6-31gss.gbs 

    There are an even number of electrons - assuming singlet.
    Specify the multiplicity in the molecule input block.


         ---------------------------------------------------------
                                   SCF
            by Justin Turney, Rob Parrish, and Andy Simmonett
                              RHF Reference
                        1 Threads,    500 MiB Core
         ---------------------------------------------------------

  ==> Geometry <==

    Molecular point group: c2v
    Full point group: C2v

    Geometry (in Angstrom), charge = 0, multiplicity = 1:

       Center              X                  Y                   Z               Mass       
    ------------   -----------------  -----------------  -----------------  -----------------
           O          0.000000000000     0.000000000000    -0.067217258196    15.994914619560
           H          0.000000000000    -0.747367469987     0.533393332964     1.007825032070
           H          0.000000000000     0.747367469987     0.533393332964     1.007825032070

  Running in c2v symmetry.

  Rotational constants: A =     26.10603  B =     14.97314  C =      9.51551 [cm^-1]
  Rotational constants: A = 782639.00798  B = 448883.53704  C = 285267.83172 [MHz]
  Nuclear repulsion =    9.184715809397792

  Charge       = 0
  Multiplicity = 1
  Electrons    = 10
  Nalpha       = 5
  Nbeta        = 5

  ==> Algorithm <==

[...]
    atoms 2-3 entry H          line    35 file /home/psilocaluser/gits/hrw-direct/objdir4/stage/usr/local/psi4/share/psi4/basis/6-31gss.gbs 


         ---------------------------------------------------------
                                   SCF
            by Justin Turney, Rob Parrish, and Andy Simmonett
                              RHF Reference
                        1 Threads,    500 MiB Core
         ---------------------------------------------------------

  ==> Geometry <==

    Molecular point group: c2v
    Full point group: C2v

    Geometry (in Angstrom), charge = 0, multiplicity = 1:

       Center              X                  Y                   Z               Mass       
    ------------   -----------------  -----------------  -----------------  -----------------
           O          0.000000000000     0.000000000000    -0.065715391636    15.994914619560
           H          0.000000000000    -0.756135080842     0.521475476874     1.007825032070
           H          0.000000000000     0.756135080842     0.521475476874     1.007825032070

  Running in c2v symmetry.

  Rotational constants: A =     27.31292  B =     14.62792  C =      9.52607 [cm^-1]
  Rotational constants: A = 818820.81879  B = 438534.01395  C = 285584.28458 [MHz]
  Nuclear repulsion =    9.193886508513932

  Charge       = 0
  Multiplicity = 1
  Electrons    = 10
  Nalpha       = 5
  Nbeta        = 5

  ==> Algorithm <==

  SCF Algorithm Type is PK.
  DIIS enabled.
  MOM disabled.
  Fractional occupation disabled.
  Guess Type is READ.
  Energy threshold   = 1.00e-10
  Density threshold  = 1.00e-10
  Integral threshold = 0.00e+00

  ==> Primary Basis <==

  Basis Set: 6-31G**
    Blend: 6-31G**
    Number of shells: 12
    Number of basis function: 25
    Number of Cartesian functions: 25
    Spherical Harmonics?: false
    Max angular momentum: 2

  Reading orbitals from file 180, no projection.

  ==> Pre-Iterations <==

   -------------------------------------------------------
    Irrep   Nso     Nmo     Nalpha   Nbeta   Ndocc  Nsocc
   -------------------------------------------------------
     A1        12      12       0       0       0       0
     A2         2       2       0       0       0       0
     B1         4       4       0       0       0       0
     B2         7       7       0       0       0       0
   -------------------------------------------------------
    Total      25      25       5       5       5       0
   -------------------------------------------------------

  ==> Integral Setup <==

  Using in-core PK algorithm.
   Calculation information:
      Number of atoms:                   3
      Number of AO shells:              12
      Number of primitives:             25
      Number of atomic orbitals:        25
      Number of basis functions:        25

      Integral cutoff                 1.00e-12
      Number of threads:                 1

  Performing in-core PK
  Using 105950 doubles for integral storage.
  We computed 3081 shell quartets total.
  Whereas there are 3081 unique shell quartets.
  ==> DiskJK: Disk-Based J/K Matrices <==

    J tasked:                  Yes
    K tasked:                  Yes
    wK tasked:                  No
    Memory (MB):               375
    Schwarz Cutoff:          1E-12

    OpenMP threads:              1
  Minimum eigenvalue in the overlap matrix is 2.1895270333E-02.
  Using Symmetric Orthogonalization.

  SCF Guess: Orbitals guess was supplied from a previous computation.

  ==> Iterations <==

                        Total Energy        Delta E     RMS |[F,P]|

   @RHF iter   0:   -76.02129319244737   -7.60213e+01   2.76627e-04 
   @RHF iter   1:   -76.02314382371247   -1.85063e-03   4.62008e-05 
   @RHF iter   2:   -76.02314401574098   -1.92029e-07   2.25332e-05 DIIS
   @RHF iter   3:   -76.02314405025372   -3.45127e-08   3.58355e-06 DIIS
   @RHF iter   4:   -76.02314405251359   -2.25987e-09   1.08236e-06 DIIS
   @RHF iter   5:   -76.02314405273518   -2.21590e-10   1.94715e-07 DIIS
   @RHF iter   6:   -76.02314405274566   -1.04876e-11   3.41828e-08 DIIS
   @RHF iter   7:   -76.02314405274595   -2.84217e-13   5.80563e-09 DIIS
   @RHF iter   8:   -76.02314405274596   -1.42109e-14   9.38528e-10 DIIS
   @RHF iter   9:   -76.02314405274602   -5.68434e-14   9.17104e-11 DIIS

  ==> Post-Iterations <==

    Orbital Energies (a.u.)
    -----------------------

    Doubly Occupied:                                                      

       1A1   -20.560741     2A1    -1.340400     1B2    -0.703037  
       3A1    -0.569080     1B1    -0.497212  

    Virtual:                                                              

       4A1     0.212060     2B2     0.304703     3B2     1.003585  
       5A1     1.086908     6A1     1.132813     2B1     1.168841  
       4B2     1.294796     7A1     1.415051     1A2     1.804073  
       8A1     1.816272     3B1     1.924797     9A1     2.570869  
       5B2     2.577567     6B2     2.807425     2A2     2.978911  
       4B1     2.991604    10A1     3.377158    11A1     3.710023  
       7B2     3.927260    12A1     4.108098  

    Final Occupation by Irrep:
             A1    A2    B1    B2 
    DOCC [     3,    0,    1,    1 ]

  Energy converged.

  @RHF Final Energy:   -76.02314405274602

   => Energetics <=

    Nuclear Repulsion Energy =              9.1938865085139323
    One-Electron Energy =                -123.0931205962299515
    Two-Electron Energy =                  37.8760900349700051
    DFT Exchange-Correlation Energy =       0.0000000000000000
    Empirical Dispersion Energy =           0.0000000000000000
    PCM Polarization Energy =               0.0000000000000000
    EFP Energy =                            0.0000000000000000
    Total Energy =                        -76.0231440527460194



Properties will be evaluated at   0.000000,   0.000000,   0.000000 Bohr

Properties computed using the SCF density matrix

  Nuclear Dipole Moment: (a.u.)
     X:     0.0000      Y:     0.0000      Z:     0.9774

  Electronic Dipole Moment: (a.u.)
     X:     0.0000      Y:     0.0000      Z:    -0.1167

  Dipole Moment: (a.u.)
     X:     0.0000      Y:     0.0000      Z:     0.8607     Total:     0.8607

  Dipole Moment: (Debye)
     X:     0.0000      Y:     0.0000      Z:     2.1877     Total:     2.1877


*** tstop() called on psinet at Mon May 15 15:35:45 2017
Module time:
	user time   =       0.14 seconds =       0.00 minutes
	system time =       0.01 seconds =       0.00 minutes
	total time  =          0 seconds =       0.00 minutes
Total time:
	user time   =      30.97 seconds =       0.52 minutes
	system time =       1.25 seconds =       0.02 minutes
	total time  =         36 seconds =       0.60 minutes
 MINTS: Wrapper to libmints.
   by Justin Turney

   Calculation information:
      Number of threads:                 1
      Number of atoms:                   3
      Number of AO shells:              12
      Number of SO shells:               9
      Number of primitives:             25
      Number of atomic orbitals:        25
      Number of basis functions:        25

      Number of irreps:                  4
      Integral cutoff                 0.00e+00
      Number of functions per irrep: [  12    2    4    7 ]

 OEINTS: Overlap, kinetic, potential, dipole, and quadrupole integrals
         stored in file 35.

      Computing two-electron integrals...done
      Computed 13803 non-zero two-electron integrals.
        Stored in file 33.


         ---------------------------------------------------------
                          Configuration Interaction
                            (a 'D E T C I' module)

                 C. David Sherrill, Daniel G. A. Smith, and
                              Matt L. Leininger
         ---------------------------------------------------------


   ==> Parameters <==

    EX LEVEL       =        2      H0 BLOCKSIZE  =     1000
    VAL EX LEVEL   =        0      H0 GUESS SIZE =     1000
    H0COUPLINGSIZE =        0      H0 COUPLING   =       NO
    MAXITER        =       24      NUM PRINT     =       20
    NUM ROOTS      =        1      ICORE         =        1
    PRINT LVL      =        1      FCI           =       NO
    R CONV         = 1.00e-04      MIXED         =      YES
    E CONV         = 1.00e-08      MIXED4        =      YES
    R4S            =       NO      REPL OTF      =       NO
    DIAG METHOD    =      SEM      FOLLOW ROOT   =        0
    PRECONDITIONER = DAVIDSON      UPDATE        = DAVIDSON
    S              =   0.0000      Ms0           =      YES
    GUESS VECTOR   =  H0BLOCK      OPENTYPE      =     NONE
    COLLAPSE SIZE  =        1      HD AVG        = EVANGELISTI
    MAX NUM VECS   =       25      REF SYM       =     AUTO
    IOPEN        =       NO

    EX ALLOW       =  1  1 
    STATE AVERAGE  =  0(1.00) 

   ==> CI Orbital and Space information <==

    RAS1 LVL      =        4      A RAS3 MAX    =        2
    RAS1 MIN      =        8      B RAS3 MAX    =        2
    A RAS1 LVL    =        4      RAS4 LVL      =       25
    A RAS1 MIN    =        3      A RAS4 MAX    =        0
    A RAS1 MAX    =        5      B RAS4 MAX    =        0
    B RAS1 LVL    =        4      RAS4 MAX      =        0
    B RAS1 MIN    =        3      A RAS34 MAX   =        2
    B RAS1 MAX    =        5      B RAS34 MAX   =        2
    RAS3 LVL      =        5      RAS34 MAX     =        2
    RAS3 MAX      =        2
   ------------------------------------------------------
               Space    Total    A1    A2    B1    B2
   ------------------------------------------------------
                 Nso       25    12     2     4     7
                 Nmo       25    12     2     4     7
               Ndocc        5     3     0     1     1
               Nsocc        0     0     0     0     0
   ------------------------------------------------------
                       CI Spaces
   ------------------------------------------------------
        Dropped DOCC        0     0     0     0     0
                RAS1        5     3     0     1     1
                RAS2        0     0     0     0     0
                RAS3       20     9     2     3     6
                RAS4        0     0     0     0     0
      Active (total)       25    12     2     4     7
        Dropped UOCC        0     0     0     0     0
   ------------------------------------------------------

   ==> Setting up CI strings <==

    There are 2001 alpha and 2001 beta strings
    The CI space requires 3831 (3.83E+03) determinants and 9 blocks

   ==> Transforming CI integrals <==

	Presorting SO-basis two-electron integrals.
	Sorting File: SO Ints (nn|nn) nbuckets = 1
	Transforming the one-electron integrals and constructing Fock matrices
	Starting first half-transformation.
	Sorting half-transformed integrals.
	First half integral transformation complete.
	Starting second half-transformation.
	Two-electron integral transformation complete.

   ==> Starting CI iterations <==

    H0 Block Eigenvalue = -76.17812227

    Simultaneous Expansion Method (Block Davidson Method)
    Using 1 initial trial vectors

     Iter   Root       Total Energy       Delta E      C RMS

   @CI  0:     0    -76.178122266924   -8.5372E+01   5.8187E-01  
   @CI  1:     0    -76.222700752036   -4.4578E-02   4.9394E-02  
   @CI  2:     0    -76.223067209192   -3.6646E-04   1.4993E-02  
   @CI  3:     0    -76.223113293257   -4.6084E-05   3.4548E-03  
   @CI  4:     0    -76.223116347383   -3.0541E-06   7.7221E-04  
   @CI  5:     0    -76.223116555064   -2.0768E-07   2.6021E-04  
   @CI  6:     0    -76.223116568169   -1.3105E-08   6.8877E-05  
   @CI  7:     0    -76.223116569317   -1.1479E-09   1.5472E-05 c

   ==> Energetics <==

    SCF energy =          -76.023144052746019
    Total CI energy =     -76.223116569316574

   ==> CISD root 0 information <==

    CISD Root 0 energy =   -76.223116569316574

   The 20 most important determinants:

    *   1    0.974874  (  475,  475)  1A1X 2A1X 3A1X 1B1X 1B2X 
    *   2   -0.047901  (  503,  503)  1A1X 2A1X 3A1X 1B2X 2B1X 
    *   3   -0.033853  (  506,  506)  1A1X 2A1X 3A1X 1B1X 2B2X 
    *   4   -0.026999  (  482,  482)  1A1X 2A1X 1B1X 1B2X 6A1X 
    *   5   -0.026874  (  507,  507)  1A1X 2A1X 3A1X 1B1X 3B2X 
    *   6   -0.023116  (  508,  508)  1A1X 2A1X 3A1X 1B1X 4B2X 
    *   7    0.023080  (  503,  508)  1A1X 2A1X 3A1X 1B1B 1B2A 2B1A 4B2B 
    *   8    0.023080  (  508,  503)  1A1X 2A1X 3A1X 1B1A 1B2B 2B1B 4B2A 
    *   9   -0.022888  (  482,  503)  1A1X 2A1X 3A1B 1B1A 1B2X 6A1A 2B1B 
    *  10   -0.022888  (  503,  482)  1A1X 2A1X 3A1A 1B1B 1B2X 6A1B 2B1A 
    *  11    0.022050  (  503,  506)  1A1X 2A1X 3A1X 1B1B 1B2A 2B1A 2B2B 
    *  12    0.022050  (  506,  503)  1A1X 2A1X 3A1X 1B1A 1B2B 2B1B 2B2A 
    *  13   -0.021690  (  506,  508)  1A1X 2A1X 3A1X 1B1X 2B2A 4B2B 
    *  14   -0.021690  (  508,  506)  1A1X 2A1X 3A1X 1B1X 2B2B 4B2A 
    *  15   -0.021413  (  479,  479)  1A1X 2A1X 1B1X 1B2X 5A1X 
    *  16   -0.020960  ( 1024, 1024)  1A1X 2A1X 1B1X 1B2X 3B2X 
    *  17   -0.019954  ( 1011, 1011)  1A1X 2A1X 3A1X 1B1X 5A1X 
    *  18   -0.019398  (  488,  488)  1A1X 2A1X 1B1X 1B2X 8A1X 
    *  19   -0.019026  (  479,  503)  1A1X 2A1X 3A1B 1B1A 1B2X 5A1A 2B1B 
    *  20   -0.019026  (  503,  479)  1A1X 2A1X 3A1A 1B1B 1B2X 5A1B 2B1A 

		 "A good bug is a dead bug" 

			 - Starship Troopers

		 "I didn't write FORTRAN.  That's the problem."

			 - Edward Valeev

-------------------------------------------------------------

  Computing gradient from energies (fd_1_0).
	Using 3-point formula.
	Energy without displacement:  -76.2231165693
	Check energies below for precision!
	Forces are for mass-weighted, symmetry-adapted cartesians (in au).

	 Coord      Energy(-)        Energy(+)        Force
	    0    -76.2231131574   -76.2231131589    -0.0000001570
	    1    -76.2231112367   -76.2231112387    -0.0000001961

	Gradient written.

-------------------------------------------------------------
  Irrep: 1 Size: 3 x 3

                 1                   2                   3

    1     0.00000000000000     0.00000000000000    -0.00000021005206
    2     0.00000000000000    -0.00000013921408     0.00000010502603
    3     0.00000000000000     0.00000013921408     0.00000010502603




			-----------------------------------------
			 OPTKING 2.0: for geometry optimizations 
			  - R.A. King,  Bethel University        
			-----------------------------------------

	Previous internal coordinate definitions found.
	---Fragment 1 Geometry and Gradient---
	 O           0.0000000000        0.0000000000       -0.1241840929
	 H           0.0000000000       -1.4288882223        0.9854458363
	 H           0.0000000000        1.4288882223        0.9854458363
	             0.0000000000        0.0000000000       -0.0000002101
	             0.0000000000       -0.0000001392        0.0000001050
	             0.0000000000        0.0000001392        0.0000001050

	---Fragment 1 Intrafragment Coordinates---
	 - Coordinate -           - BOHR/RAD -       - ANG/DEG -
	 R(1,2)           =         1.809143	       0.957357
	 R(1,3)           =         1.809143	       0.957357
	 B(2,1,3)         =         1.821014	     104.336408

	Current energy   :       -76.2231165693

	Energy change for the previous step:
		Projected    :        -0.0000000000
		Actual       :         0.0000000000

	Performing BFGS update.
	Previous computed or guess Hessian on step 1.
	Denominators (dg)(dq) or (dq)(dq) are very small.
	 Skipping Hessian update for step 5.
	Denominators (dg)(dq) or (dq)(dq) are very small.
	 Skipping Hessian update for step 4.
	Steps to be used in Hessian update: 3 2
	Taking RFO optimization step.
	Going to follow RFO solution 1.
	Using RFO vector 1.
	Norm of target step-size    0.00000
	Projected energy change by RFO approximation:        -0.0000000000

	Back-transformation to cartesian coordinates...
	Successfully converged to displaced geometry.

	--- Internal Coordinate Step in ANG or DEG, aJ/ANG or AJ/DEG ---
	 ---------------------------------------------------------------------------
	   Coordinate                Previous        Force       Change         New 
	   ----------                --------       ------       ------       ------
	    1 R(1,2)          =      0.957357    -0.000001    -0.000000     0.957357
	    2 R(1,3)          =      0.957357    -0.000001    -0.000000     0.957357
	    3 B(2,1,3)        =    104.336408    -0.000000     0.000006   104.336414
	 ---------------------------------------------------------------------------
	Successfully symmetrized geometry.

  ==> Convergence Check <==

  Measures of convergence in internal coordinates in au.
  Criteria marked as inactive (o), active & met (*), and active & unmet ( ).
  ---------------------------------------------------------------------------------------------
   Step     Total Energy     Delta E     MAX Force     RMS Force      MAX Disp      RMS Disp   
  ---------------------------------------------------------------------------------------------
    Convergence Criteria    1.00e-06 *    1.00e-06 *             o    1.00e-04 *             o
  ---------------------------------------------------------------------------------------------
      6     -76.22311657    4.97e-12 *    1.74e-07 *    1.42e-07 o    3.56e-07 *    2.98e-07 o  ~
  ---------------------------------------------------------------------------------------------


  **** Optimization is complete! (in 6 steps) ****

  ==> Optimization Summary <==

  Measures of convergence in internal coordinates in au.
  --------------------------------------------------------------------------------------------------------------- ~
   Step         Total Energy             Delta E       MAX Force       RMS Force        MAX Disp        RMS Disp  ~
  --------------------------------------------------------------------------------------------------------------- ~
      1     -76.219847449219    -76.219847449219      0.03874618      0.03164671      0.08020150      0.06566914  ~
      2     -76.223038177931     -0.003190728713      0.00525191      0.00310119      0.03167565      0.01829231  ~
      3     -76.223116359307     -0.000078181375      0.00026396      0.00015259      0.00155196      0.00090149  ~
      4     -76.223116569102     -0.000000209795      0.00000819      0.00000699      0.00001564      0.00001521  ~
      5     -76.223116569322     -0.000000000220      0.00000117      0.00000096      0.00000243      0.00000207  ~
      6     -76.223116569317      0.000000000005      0.00000017      0.00000014      0.00000036      0.00000030  ~
  --------------------------------------------------------------------------------------------------------------- ~

	Writing optimization data to binary file.
	Final energy is    -76.2231165693166
	Final (previous) structure:
	Cartesian Geometry (in Angstrom)
	    O     0.0000000000   0.0000000000  -0.0657153916
	    H     0.0000000000  -0.7561350808   0.5214754769
	    H     0.0000000000   0.7561350808   0.5214754769
	Saving final (previous) structure.
			--------------------------
			 OPTKING Finished Execution 
			--------------------------

    Final optimized geometry and variables:
    Molecular point group: c2v
    Full point group: C2v

    Geometry (in Angstrom), charge = 0, multiplicity = 1:

    O       
    H             1    0.957357
    H             1    0.957357      2  104.336408

	Cleaning optimization helper files.
	Nuclear repulsion energy..........................................PASSED
	SCF energy........................................................PASSED
	CI energy.........................................................PASSED
	CI correlation energy.............................................PASSED

*** Psi4 exiting successfully. Buy a developer a beer!
