    -----------------------------------------------------------------------
          Psi4: An Open-Source Ab Initio Electronic Structure Package
                              Psi4 0.5 Driver

                          Git: Rev {master} dbe9080

    J. M. Turney, A. C. Simmonett, R. M. Parrish, E. G. Hohenstein,
    F. A. Evangelista, J. T. Fermann, B. J. Mintz, L. A. Burns, J. J. Wilke,
    M. L. Abrams, N. J. Russ, M. L. Leininger, C. L. Janssen, E. T. Seidl,
    W. D. Allen, H. F. Schaefer, R. A. King, E. F. Valeev, C. D. Sherrill,
    and T. D. Crawford, WIREs Comput. Mol. Sci. 2, 556-565 (2012)
    (doi: 10.1002/wcms.93)

                         Additional Contributions by
    A. E. DePrince, M. Saitow, U. Bozkaya, A. Yu. Sokolov
    -----------------------------------------------------------------------


    Psi4 started on: Mon Mar 14 15:29:28 2016

    Process ID:  12980
    PSI4DATADIR: /home/dsmith/Gits/dgas_psi/share
    Memory level set to 256.000 MB

  ==> Input File <==

--------------------------------------------------------------------------
#! DFT integral algorithms test, performing w-B97 RKS and UKS computations on water and its cation,
#! using all of the different integral algorithms.  This tests both the ERI and ERF integrals.

memory 250 mb

Er    = -75.318545          #TEST
Er_df = -75.319995          #TEST
r_ref = [Er, Er, Er, Er_df] #TEST
Eu    = -74.970922          #TEST
Eu_df = -74.972318          #TEST
u_ref = [Eu, Eu, Eu, Eu_df] #TEST

algorithms = ["PK", "OUT_OF_CORE", "DIRECT", "DF"]

molecule h2o {
    0 1
    O
    H 1 1.0
    H 1 1.0 2 104.5
}

set globals {
  basis sto-3g
  dft_spherical_points 302
  dft_radial_points 99
}

for n,algorithm in enumerate(algorithms):
    set scf_type $algorithm
    E = energy('wB97')
    compare_values(r_ref[n], E, 5, "Closed-shell wB97 Energy (%s)" % algorithm) #TEST

molecule h2op {
    1 2
    O
    H 1 1.0
    H 1 1.0 2 104.5
}

set basis sto-3g
set reference uks

for n, algorithm in enumerate(algorithms):
    set scf_type $algorithm
    E = energy('wB97')
    compare_values(u_ref[n], E, 5, "Open-shell wB97 Energy (%s)" % algorithm) #TEST

--------------------------------------------------------------------------

  Memory set to 250.000 MiB by Python script.

*** tstart() called on ds1.sherrill.chemistry.gatech.edu
*** at Mon Mar 14 15:29:28 2016


         ---------------------------------------------------------
                                   SCF
            by Justin Turney, Rob Parrish, and Andy Simmonett
                              RKS Reference
                        1 Threads,    250 MiB Core
         ---------------------------------------------------------

  ==> Geometry <==

    Molecular point group: c2v
    Full point group: C2v

    Geometry (in Angstrom), charge = 0, multiplicity = 1:

       Center              X                  Y                   Z               Mass       
    ------------   -----------------  -----------------  -----------------  -----------------
           O          0.000000000000     0.000000000000    -0.068516219310    15.994914619560
           H          0.000000000000    -0.790689573744     0.543701060724     1.007825032070
           H          0.000000000000     0.790689573744     0.543701060724     1.007825032070

  Running in c2v symmetry.

  Rotational constants: A =     25.12555  B =     13.37733  C =      8.72955 [cm^-1]
  Rotational constants: A = 753245.06586  B = 401042.16407  C = 261705.25278 [MHz]
  Nuclear repulsion =    8.801465529972067

  Charge       = 0
  Multiplicity = 1
  Electrons    = 10
  Nalpha       = 5
  Nbeta        = 5

  ==> Algorithm <==

  SCF Algorithm Type is PK.
  DIIS enabled.
  MOM disabled.
  Fractional occupation disabled.
  Guess Type is CORE.
  Energy threshold   = 1.00e-06
  Density threshold  = 1.00e-06
  Integral threshold = 0.00e+00

  ==> Primary Basis <==

  Basis Set: STO-3G
    Number of shells: 5
    Number of basis function: 7
    Number of Cartesian functions: 7
    Spherical Harmonics?: true
    Max angular momentum: 1

  ==> DFT Potential <==

   => wB97 Composite Functional <= 

    Parameterized LRC B97 GGA XC Functional

    J.-D. Chai and M. Head-Gordon, J. Chem. Phys., 128, 084106, 2008

    Points   =           5000
    Deriv    =              1
    GGA      =           TRUE
    Meta     =          FALSE

    X_LRC        =           TRUE
    X_Hybrid     =          FALSE
    X_Alpha      =   0.000000E+00
    X_Omega      =   4.000000E-01
    C_LRC        =          FALSE
    C_Hybrid     =          FALSE
    C_Alpha      =   0.000000E+00
    C_Omega      =   0.000000E+00

   => Exchange Functionals <=

    1.0000  wB97_X [omega = 0.4000]
    1.0000   HF,LR [omega = 0.4000]

   => Correlation Functionals <=

    1.0000  wB97_C

   => Molecular Quadrature <=

    Radial Scheme    =       TREUTLER
    Pruning Scheme   =           FLAT
    Nuclear Scheme   =       TREUTLER

    BS radius alpha  =              1
    Pruning alpha    =              1
    Radial Points    =             99
    Spherical Points =            302
    Total Points     =          86165
    Total Blocks     =             87
    Max Points       =           4867
    Max Functions    =              7

  ==> Pre-Iterations <==

   -------------------------------------------------------
    Irrep   Nso     Nmo     Nalpha   Nbeta   Ndocc  Nsocc
   -------------------------------------------------------
     A1         4       4       0       0       0       0
     A2         0       0       0       0       0       0
     B1         1       1       0       0       0       0
     B2         2       2       0       0       0       0
   -------------------------------------------------------
    Total       7       7       5       5       5       0
   -------------------------------------------------------

  ==> Integral Setup <==

      Computing non-zero ERF integrals (omega = 0.400)...done
      Computed 138 non-zero ERF integrals.
        Stored in file 36.

	Batch   1 pq = [       0,      14] index = [             0,105]
  ==> DiskJK: Disk-Based J/K Matrices <==

    J tasked:                  Yes
    K tasked:                   No
    wK tasked:                 Yes
    Omega:               4.000E-01
    Memory (MB):               178
    Schwarz Cutoff:          1E-12

  Minimum eigenvalue in the overlap matrix is 3.7028400642E-01.
  Using Symmetric Orthogonalization.
  SCF Guess: Core (One-Electron) Hamiltonian.

  ==> Iterations <==

                        Total Energy        Delta E     RMS |[F,P]|

   @RKS iter   1:   -73.57266721866759   -7.35727e+01   2.10477e-01 
   @RKS iter   2:   -75.13435606158716   -1.56169e+00   1.09177e-01 DIIS
   @RKS iter   3:   -75.31783710928343   -1.83481e-01   5.03127e-03 DIIS
   @RKS iter   4:   -75.31848375167684   -6.46642e-04   1.30851e-03 DIIS
   @RKS iter   5:   -75.31853474173397   -5.09901e-05   1.57783e-04 DIIS
   @RKS iter   6:   -75.31853558136466   -8.39631e-07   1.08746e-05 DIIS
   @RKS iter   7:   -75.31853558268199   -1.31733e-09   1.25706e-07 DIIS

  ==> Post-Iterations <==

    Orbital Energies (a.u.)
    -----------------------

    Doubly Occupied:                                                      

       1A1   -18.702716     2A1    -1.047211     1B2    -0.547585  
       3A1    -0.349276     1B1    -0.256665  

    Virtual:                                                              

       4A1     0.445347     2B2     0.556393  

    Final Occupation by Irrep:
             A1    A2    B1    B2 
    DOCC [     3,    0,    1,    1 ]

  Energy converged.

  @RKS Final Energy:   -75.31853558268199

   => Energetics <=

    Nuclear Repulsion Energy =              8.8014655299720665
    One-Electron Energy =                -121.6432870294882065
    Two-Electron Energy =                  44.8829040886290329
    DFT Exchange-Correlation Energy =      -7.3596181717948719
    Empirical Dispersion Energy =           0.0000000000000000
    PCM Polarization Energy =               0.0000000000000000
    EFP Energy =                            0.0000000000000000
    Total Energy =                        -75.3185355826819887

    Alert: EFP and PCM quantities not currently incorporated into SCF psivars.

Properties will be evaluated at   0.000000,   0.000000,   0.000000 Bohr
  ==> Properties <==


Properties computed using the SCF density matrix

  Nuclear Dipole Moment: (a.u.)
     X:     0.0000      Y:     0.0000      Z:     1.0191

  Electronic Dipole Moment: (a.u.)
     X:     0.0000      Y:     0.0000      Z:    -0.3853

  Dipole Moment: (a.u.)
     X:     0.0000      Y:     0.0000      Z:     0.6338     Total:     0.6338

  Dipole Moment: (Debye)
     X:     0.0000      Y:     0.0000      Z:     1.6108     Total:     1.6108


  Saving occupied orbitals to File 180.

*** tstop() called on ds1.sherrill.chemistry.gatech.edu at Mon Mar 14 15:29:31 2016
Module time:
	user time   =       2.51 seconds =       0.04 minutes
	system time =       0.03 seconds =       0.00 minutes
	total time  =          3 seconds =       0.05 minutes
Total time:
	user time   =       2.51 seconds =       0.04 minutes
	system time =       0.03 seconds =       0.00 minutes
	total time  =          3 seconds =       0.05 minutes
	Closed-shell wB97 Energy (PK).....................................PASSED

*** tstart() called on ds1.sherrill.chemistry.gatech.edu
*** at Mon Mar 14 15:29:31 2016


         ---------------------------------------------------------
                                   SCF
            by Justin Turney, Rob Parrish, and Andy Simmonett
                              RKS Reference
                        1 Threads,    250 MiB Core
         ---------------------------------------------------------

  ==> Geometry <==

    Molecular point group: c2v
    Full point group: C2v

    Geometry (in Angstrom), charge = 0, multiplicity = 1:

       Center              X                  Y                   Z               Mass       
    ------------   -----------------  -----------------  -----------------  -----------------
           O          0.000000000000     0.000000000000    -0.068516219310    15.994914619560
           H          0.000000000000    -0.790689573744     0.543701060724     1.007825032070
           H          0.000000000000     0.790689573744     0.543701060724     1.007825032070

  Running in c2v symmetry.

  Rotational constants: A =     25.12555  B =     13.37733  C =      8.72955 [cm^-1]
  Rotational constants: A = 753245.06586  B = 401042.16407  C = 261705.25278 [MHz]
  Nuclear repulsion =    8.801465529972067

  Charge       = 0
  Multiplicity = 1
  Electrons    = 10
  Nalpha       = 5
  Nbeta        = 5

  ==> Algorithm <==

  SCF Algorithm Type is OUT_OF_CORE.
  DIIS enabled.
  MOM disabled.
  Fractional occupation disabled.
  Guess Type is CORE.
  Energy threshold   = 1.00e-06
  Density threshold  = 1.00e-06
  Integral threshold = 0.00e+00

  ==> Primary Basis <==

  Basis Set: STO-3G
    Number of shells: 5
    Number of basis function: 7
    Number of Cartesian functions: 7
    Spherical Harmonics?: true
    Max angular momentum: 1

  ==> DFT Potential <==

   => wB97 Composite Functional <= 

    Parameterized LRC B97 GGA XC Functional

    J.-D. Chai and M. Head-Gordon, J. Chem. Phys., 128, 084106, 2008

    Points   =           5000
    Deriv    =              1
    GGA      =           TRUE
    Meta     =          FALSE

    X_LRC        =           TRUE
    X_Hybrid     =          FALSE
    X_Alpha      =   0.000000E+00
    X_Omega      =   4.000000E-01
    C_LRC        =          FALSE
    C_Hybrid     =          FALSE
    C_Alpha      =   0.000000E+00
    C_Omega      =   0.000000E+00

   => Exchange Functionals <=

    1.0000  wB97_X [omega = 0.4000]
    1.0000   HF,LR [omega = 0.4000]

   => Correlation Functionals <=

    1.0000  wB97_C

   => Molecular Quadrature <=

    Radial Scheme    =       TREUTLER
    Pruning Scheme   =           FLAT
    Nuclear Scheme   =       TREUTLER

    BS radius alpha  =              1
    Pruning alpha    =              1
    Radial Points    =             99
    Spherical Points =            302
    Total Points     =          86165
    Total Blocks     =             87
    Max Points       =           4867
    Max Functions    =              7

  ==> Pre-Iterations <==

   -------------------------------------------------------
    Irrep   Nso     Nmo     Nalpha   Nbeta   Ndocc  Nsocc
   -------------------------------------------------------
     A1         4       4       0       0       0       0
     A2         0       0       0       0       0       0
     B1         1       1       0       0       0       0
     B2         2       2       0       0       0       0
   -------------------------------------------------------
    Total       7       7       5       5       5       0
   -------------------------------------------------------

  ==> Integral Setup <==

      Computing non-zero ERF integrals (omega = 0.400)...done
      Computed 138 non-zero ERF integrals.
        Stored in file 36.

  ==> DiskJK: Disk-Based J/K Matrices <==

    J tasked:                  Yes
    K tasked:                   No
    wK tasked:                 Yes
    Memory (MB):               178
    Omega:               4.000E-01
    Schwarz Cutoff:          1E-12

  Minimum eigenvalue in the overlap matrix is 3.7028400642E-01.
  Using Symmetric Orthogonalization.
  SCF Guess: Core (One-Electron) Hamiltonian.

  ==> Iterations <==

                        Total Energy        Delta E     RMS |[F,P]|

   @RKS iter   1:   -73.57266721866759   -7.35727e+01   2.10477e-01 
   @RKS iter   2:   -75.13435606158713   -1.56169e+00   1.09177e-01 DIIS
   @RKS iter   3:   -75.31783710928343   -1.83481e-01   5.03127e-03 DIIS
   @RKS iter   4:   -75.31848375167681   -6.46642e-04   1.30851e-03 DIIS
   @RKS iter   5:   -75.31853474173394   -5.09901e-05   1.57783e-04 DIIS
   @RKS iter   6:   -75.31853558136463   -8.39631e-07   1.08746e-05 DIIS
   @RKS iter   7:   -75.31853558268200   -1.31737e-09   1.25706e-07 DIIS

  ==> Post-Iterations <==

    Orbital Energies (a.u.)
    -----------------------

    Doubly Occupied:                                                      

       1A1   -18.702716     2A1    -1.047211     1B2    -0.547585  
       3A1    -0.349276     1B1    -0.256665  

    Virtual:                                                              

       4A1     0.445347     2B2     0.556393  

    Final Occupation by Irrep:
             A1    A2    B1    B2 
    DOCC [     3,    0,    1,    1 ]

  Energy converged.

  @RKS Final Energy:   -75.31853558268200

   => Energetics <=

    Nuclear Repulsion Energy =              8.8014655299720665
    One-Electron Energy =                -121.6432870294882775
    Two-Electron Energy =                  44.8829040886291040
    DFT Exchange-Correlation Energy =      -7.3596181717948781
    Empirical Dispersion Energy =           0.0000000000000000
    PCM Polarization Energy =               0.0000000000000000
    EFP Energy =                            0.0000000000000000
    Total Energy =                        -75.3185355826819887

    Alert: EFP and PCM quantities not currently incorporated into SCF psivars.

Properties will be evaluated at   0.000000,   0.000000,   0.000000 Bohr
  ==> Properties <==


Properties computed using the SCF density matrix

  Nuclear Dipole Moment: (a.u.)
     X:     0.0000      Y:     0.0000      Z:     1.0191

  Electronic Dipole Moment: (a.u.)
     X:     0.0000      Y:     0.0000      Z:    -0.3853

  Dipole Moment: (a.u.)
     X:     0.0000      Y:     0.0000      Z:     0.6338     Total:     0.6338

  Dipole Moment: (Debye)
     X:     0.0000      Y:     0.0000      Z:     1.6108     Total:     1.6108


  Saving occupied orbitals to File 180.

*** tstop() called on ds1.sherrill.chemistry.gatech.edu at Mon Mar 14 15:29:33 2016
Module time:
	user time   =       2.51 seconds =       0.04 minutes
	system time =       0.03 seconds =       0.00 minutes
	total time  =          2 seconds =       0.03 minutes
Total time:
	user time   =       5.09 seconds =       0.08 minutes
	system time =       0.06 seconds =       0.00 minutes
	total time  =          5 seconds =       0.08 minutes
	Closed-shell wB97 Energy (OUT_OF_CORE)............................PASSED

*** tstart() called on ds1.sherrill.chemistry.gatech.edu
*** at Mon Mar 14 15:29:33 2016


         ---------------------------------------------------------
                                   SCF
            by Justin Turney, Rob Parrish, and Andy Simmonett
                              RKS Reference
                        1 Threads,    250 MiB Core
         ---------------------------------------------------------

  ==> Geometry <==

    Molecular point group: c2v
    Full point group: C2v

    Geometry (in Angstrom), charge = 0, multiplicity = 1:

       Center              X                  Y                   Z               Mass       
    ------------   -----------------  -----------------  -----------------  -----------------
           O          0.000000000000     0.000000000000    -0.068516219310    15.994914619560
           H          0.000000000000    -0.790689573744     0.543701060724     1.007825032070
           H          0.000000000000     0.790689573744     0.543701060724     1.007825032070

  Running in c2v symmetry.

  Rotational constants: A =     25.12555  B =     13.37733  C =      8.72955 [cm^-1]
  Rotational constants: A = 753245.06586  B = 401042.16407  C = 261705.25278 [MHz]
  Nuclear repulsion =    8.801465529972067

  Charge       = 0
  Multiplicity = 1
  Electrons    = 10
  Nalpha       = 5
  Nbeta        = 5

  ==> Algorithm <==

  SCF Algorithm Type is DIRECT.
  DIIS enabled.
  MOM disabled.
  Fractional occupation disabled.
  Guess Type is CORE.
  Energy threshold   = 1.00e-06
  Density threshold  = 1.00e-06
  Integral threshold = 0.00e+00

  ==> Primary Basis <==

  Basis Set: STO-3G
    Number of shells: 5
    Number of basis function: 7
    Number of Cartesian functions: 7
    Spherical Harmonics?: true
    Max angular momentum: 1

  ==> DFT Potential <==

   => wB97 Composite Functional <= 

    Parameterized LRC B97 GGA XC Functional

    J.-D. Chai and M. Head-Gordon, J. Chem. Phys., 128, 084106, 2008

    Points   =           5000
    Deriv    =              1
    GGA      =           TRUE
    Meta     =          FALSE

    X_LRC        =           TRUE
    X_Hybrid     =          FALSE
    X_Alpha      =   0.000000E+00
    X_Omega      =   4.000000E-01
    C_LRC        =          FALSE
    C_Hybrid     =          FALSE
    C_Alpha      =   0.000000E+00
    C_Omega      =   0.000000E+00

   => Exchange Functionals <=

    1.0000  wB97_X [omega = 0.4000]
    1.0000   HF,LR [omega = 0.4000]

   => Correlation Functionals <=

    1.0000  wB97_C

   => Molecular Quadrature <=

    Radial Scheme    =       TREUTLER
    Pruning Scheme   =           FLAT
    Nuclear Scheme   =       TREUTLER

    BS radius alpha  =              1
    Pruning alpha    =              1
    Radial Points    =             99
    Spherical Points =            302
    Total Points     =          86165
    Total Blocks     =             87
    Max Points       =           4867
    Max Functions    =              7

  ==> Pre-Iterations <==

   -------------------------------------------------------
    Irrep   Nso     Nmo     Nalpha   Nbeta   Ndocc  Nsocc
   -------------------------------------------------------
     A1         4       4       0       0       0       0
     A2         0       0       0       0       0       0
     B1         1       1       0       0       0       0
     B2         2       2       0       0       0       0
   -------------------------------------------------------
    Total       7       7       5       5       5       0
   -------------------------------------------------------

  Starting with a DF guess...

  ==> Integral Setup <==

  ==> DFJK: Density-Fitted J/K Matrices <==

    J tasked:                  Yes
    K tasked:                   No
    wK tasked:                 Yes
    Omega:               4.000E-01
    OpenMP threads:              1
    Integrals threads:           1
    Memory (MB):               178
    Algorithm:                Core
    Integral Cache:           NONE
    Schwarz Cutoff:          1E-12
    Fitting Condition:       1E-12

   => Auxiliary Basis Set <=

  Basis Set: 
    Number of shells: 30
    Number of basis function: 84
    Number of Cartesian functions: 96
    Spherical Harmonics?: true
    Max angular momentum: 3

  Minimum eigenvalue in the overlap matrix is 3.7028400642E-01.
  Using Symmetric Orthogonalization.
  SCF Guess: Core (One-Electron) Hamiltonian.

  ==> Iterations <==

                           Total Energy        Delta E     RMS |[F,P]|

   @DF-RKS iter   1:   -73.57409974579032   -7.35741e+01   2.10456e-01 
   @DF-RKS iter   2:   -75.13591468303230   -1.56181e+00   1.09147e-01 DIIS
   @DF-RKS iter   3:   -75.31929740317281   -1.83383e-01   5.02983e-03 DIIS
   @DF-RKS iter   4:   -75.31994342114625   -6.46018e-04   1.30762e-03 DIIS
   @DF-RKS iter   5:   -75.31999432080571   -5.08997e-05   1.58143e-04 DIIS
   @DF-RKS iter   6:   -75.31999516429433   -8.43489e-07   1.08802e-05 DIIS
   @DF-RKS iter   7:   -75.31999516561342   -1.31909e-09   1.25884e-07 DIIS

  DF guess converged.

  ==> Integral Setup <==

  ==> DirectJK: Integral-Direct J/K Matrices <==

    J tasked:                  Yes
    K tasked:                   No
    wK tasked:                 Yes
    Omega:               4.000E-01
    Integrals threads:           1
    Schwarz Cutoff:          1E-12

   @RKS iter   8:   -75.31853556844307    1.45960e-03   4.23008e-05 DIIS
   @RKS iter   9:   -75.31853558111813   -1.26751e-08   8.64886e-06 DIIS
   @RKS iter  10:   -75.31853558248231   -1.36419e-09   2.59485e-06 DIIS
   @RKS iter  11:   -75.31853558266297   -1.80663e-10   8.35814e-07 DIIS

  ==> Post-Iterations <==

    Orbital Energies (a.u.)
    -----------------------

    Doubly Occupied:                                                      

       1A1   -18.702715     2A1    -1.047211     1B2    -0.547585  
       3A1    -0.349276     1B1    -0.256665  

    Virtual:                                                              

       4A1     0.445347     2B2     0.556393  

    Final Occupation by Irrep:
             A1    A2    B1    B2 
    DOCC [     3,    0,    1,    1 ]

  Energy converged.

  @RKS Final Energy:   -75.31853558266297

   => Energetics <=

    Nuclear Repulsion Energy =              8.8014655299720665
    One-Electron Energy =                -121.6432958759736067
    Two-Electron Energy =                  44.8829139897197038
    DFT Exchange-Correlation Energy =      -7.3596192263811311
    Empirical Dispersion Energy =           0.0000000000000000
    PCM Polarization Energy =               0.0000000000000000
    EFP Energy =                            0.0000000000000000
    Total Energy =                        -75.3185355826629745

    Alert: EFP and PCM quantities not currently incorporated into SCF psivars.

Properties will be evaluated at   0.000000,   0.000000,   0.000000 Bohr
  ==> Properties <==


Properties computed using the SCF density matrix

  Nuclear Dipole Moment: (a.u.)
     X:     0.0000      Y:     0.0000      Z:     1.0191

  Electronic Dipole Moment: (a.u.)
     X:     0.0000      Y:     0.0000      Z:    -0.3853

  Dipole Moment: (a.u.)
     X:     0.0000      Y:     0.0000      Z:     0.6338     Total:     0.6338

  Dipole Moment: (Debye)
     X:     0.0000      Y:     0.0000      Z:     1.6108     Total:     1.6108


  Saving occupied orbitals to File 180.

*** tstop() called on ds1.sherrill.chemistry.gatech.edu at Mon Mar 14 15:29:36 2016
Module time:
	user time   =       3.13 seconds =       0.05 minutes
	system time =       0.01 seconds =       0.00 minutes
	total time  =          3 seconds =       0.05 minutes
Total time:
	user time   =       8.29 seconds =       0.14 minutes
	system time =       0.07 seconds =       0.00 minutes
	total time  =          8 seconds =       0.13 minutes
	Closed-shell wB97 Energy (DIRECT).................................PASSED

*** tstart() called on ds1.sherrill.chemistry.gatech.edu
*** at Mon Mar 14 15:29:37 2016


         ---------------------------------------------------------
                                   SCF
            by Justin Turney, Rob Parrish, and Andy Simmonett
                              RKS Reference
                        1 Threads,    250 MiB Core
         ---------------------------------------------------------

  ==> Geometry <==

    Molecular point group: c2v
    Full point group: C2v

    Geometry (in Angstrom), charge = 0, multiplicity = 1:

       Center              X                  Y                   Z               Mass       
    ------------   -----------------  -----------------  -----------------  -----------------
           O          0.000000000000     0.000000000000    -0.068516219310    15.994914619560
           H          0.000000000000    -0.790689573744     0.543701060724     1.007825032070
           H          0.000000000000     0.790689573744     0.543701060724     1.007825032070

  Running in c2v symmetry.

  Rotational constants: A =     25.12555  B =     13.37733  C =      8.72955 [cm^-1]
  Rotational constants: A = 753245.06586  B = 401042.16407  C = 261705.25278 [MHz]
  Nuclear repulsion =    8.801465529972067

  Charge       = 0
  Multiplicity = 1
  Electrons    = 10
  Nalpha       = 5
  Nbeta        = 5

  ==> Algorithm <==

  SCF Algorithm Type is DF.
  DIIS enabled.
  MOM disabled.
  Fractional occupation disabled.
  Guess Type is CORE.
  Energy threshold   = 1.00e-06
  Density threshold  = 1.00e-06
  Integral threshold = 0.00e+00

  ==> Primary Basis <==

  Basis Set: STO-3G
    Number of shells: 5
    Number of basis function: 7
    Number of Cartesian functions: 7
    Spherical Harmonics?: true
    Max angular momentum: 1

  ==> DFT Potential <==

   => wB97 Composite Functional <= 

    Parameterized LRC B97 GGA XC Functional

    J.-D. Chai and M. Head-Gordon, J. Chem. Phys., 128, 084106, 2008

    Points   =           5000
    Deriv    =              1
    GGA      =           TRUE
    Meta     =          FALSE

    X_LRC        =           TRUE
    X_Hybrid     =          FALSE
    X_Alpha      =   0.000000E+00
    X_Omega      =   4.000000E-01
    C_LRC        =          FALSE
    C_Hybrid     =          FALSE
    C_Alpha      =   0.000000E+00
    C_Omega      =   0.000000E+00

   => Exchange Functionals <=

    1.0000  wB97_X [omega = 0.4000]
    1.0000   HF,LR [omega = 0.4000]

   => Correlation Functionals <=

    1.0000  wB97_C

   => Molecular Quadrature <=

    Radial Scheme    =       TREUTLER
    Pruning Scheme   =           FLAT
    Nuclear Scheme   =       TREUTLER

    BS radius alpha  =              1
    Pruning alpha    =              1
    Radial Points    =             99
    Spherical Points =            302
    Total Points     =          86165
    Total Blocks     =             87
    Max Points       =           4867
    Max Functions    =              7

  ==> Pre-Iterations <==

   -------------------------------------------------------
    Irrep   Nso     Nmo     Nalpha   Nbeta   Ndocc  Nsocc
   -------------------------------------------------------
     A1         4       4       0       0       0       0
     A2         0       0       0       0       0       0
     B1         1       1       0       0       0       0
     B2         2       2       0       0       0       0
   -------------------------------------------------------
    Total       7       7       5       5       5       0
   -------------------------------------------------------

  ==> Integral Setup <==

  ==> DFJK: Density-Fitted J/K Matrices <==

    J tasked:                  Yes
    K tasked:                   No
    wK tasked:                 Yes
    Omega:               4.000E-01
    OpenMP threads:              1
    Integrals threads:           1
    Memory (MB):               178
    Algorithm:                Core
    Integral Cache:           NONE
    Schwarz Cutoff:          1E-12
    Fitting Condition:       1E-12

   => Auxiliary Basis Set <=

  Basis Set: 
    Number of shells: 30
    Number of basis function: 84
    Number of Cartesian functions: 96
    Spherical Harmonics?: true
    Max angular momentum: 3

  Minimum eigenvalue in the overlap matrix is 3.7028400642E-01.
  Using Symmetric Orthogonalization.
  SCF Guess: Core (One-Electron) Hamiltonian.

  ==> Iterations <==

                           Total Energy        Delta E     RMS |[F,P]|

   @DF-RKS iter   1:   -73.57409974579032   -7.35741e+01   2.10456e-01 
   @DF-RKS iter   2:   -75.13591468303230   -1.56181e+00   1.09147e-01 DIIS
   @DF-RKS iter   3:   -75.31929740317281   -1.83383e-01   5.02983e-03 DIIS
   @DF-RKS iter   4:   -75.31994342114625   -6.46018e-04   1.30762e-03 DIIS
   @DF-RKS iter   5:   -75.31999432080571   -5.08997e-05   1.58143e-04 DIIS
   @DF-RKS iter   6:   -75.31999516429433   -8.43489e-07   1.08802e-05 DIIS
   @DF-RKS iter   7:   -75.31999516561342   -1.31909e-09   1.25884e-07 DIIS

  ==> Post-Iterations <==

    Orbital Energies (a.u.)
    -----------------------

    Doubly Occupied:                                                      

       1A1   -18.703815     2A1    -1.047349     1B2    -0.547681  
       3A1    -0.349483     1B1    -0.256756  

    Virtual:                                                              

       4A1     0.445336     2B2     0.556379  

    Final Occupation by Irrep:
             A1    A2    B1    B2 
    DOCC [     3,    0,    1,    1 ]

  Energy converged.

  @DF-RKS Final Energy:   -75.31999516561342

   => Energetics <=

    Nuclear Repulsion Energy =              8.8014655299720665
    One-Electron Energy =                -121.6429506184766041
    Two-Electron Energy =                  44.8810879789717916
    DFT Exchange-Correlation Energy =      -7.3595980560806700
    Empirical Dispersion Energy =           0.0000000000000000
    PCM Polarization Energy =               0.0000000000000000
    EFP Energy =                            0.0000000000000000
    Total Energy =                        -75.3199951656134203

    Alert: EFP and PCM quantities not currently incorporated into SCF psivars.

Properties will be evaluated at   0.000000,   0.000000,   0.000000 Bohr
  ==> Properties <==


Properties computed using the SCF density matrix

  Nuclear Dipole Moment: (a.u.)
     X:     0.0000      Y:     0.0000      Z:     1.0191

  Electronic Dipole Moment: (a.u.)
     X:     0.0000      Y:     0.0000      Z:    -0.3855

  Dipole Moment: (a.u.)
     X:     0.0000      Y:     0.0000      Z:     0.6336     Total:     0.6336

  Dipole Moment: (Debye)
     X:     0.0000      Y:     0.0000      Z:     1.6104     Total:     1.6104


  Saving occupied orbitals to File 180.

*** tstop() called on ds1.sherrill.chemistry.gatech.edu at Mon Mar 14 15:29:38 2016
Module time:
	user time   =       1.72 seconds =       0.03 minutes
	system time =       0.00 seconds =       0.00 minutes
	total time  =          1 seconds =       0.02 minutes
Total time:
	user time   =      10.05 seconds =       0.17 minutes
	system time =       0.07 seconds =       0.00 minutes
	total time  =         10 seconds =       0.17 minutes
	Closed-shell wB97 Energy (DF).....................................PASSED

*** tstart() called on ds1.sherrill.chemistry.gatech.edu
*** at Mon Mar 14 15:29:38 2016


         ---------------------------------------------------------
                                   SCF
            by Justin Turney, Rob Parrish, and Andy Simmonett
                              UKS Reference
                        1 Threads,    250 MiB Core
         ---------------------------------------------------------

  ==> Geometry <==

    Molecular point group: c2v
    Full point group: C2v

    Geometry (in Angstrom), charge = 1, multiplicity = 2:

       Center              X                  Y                   Z               Mass       
    ------------   -----------------  -----------------  -----------------  -----------------
           O          0.000000000000     0.000000000000    -0.068516219310    15.994914619560
           H          0.000000000000    -0.790689573744     0.543701060724     1.007825032070
           H          0.000000000000     0.790689573744     0.543701060724     1.007825032070

  Running in c2v symmetry.

  Rotational constants: A =     25.12555  B =     13.37733  C =      8.72955 [cm^-1]
  Rotational constants: A = 753245.06586  B = 401042.16407  C = 261705.25278 [MHz]
  Nuclear repulsion =    8.801465529972067

  Charge       = 1
  Multiplicity = 2
  Electrons    = 9
  Nalpha       = 5
  Nbeta        = 4

  ==> Algorithm <==

  SCF Algorithm Type is PK.
  DIIS enabled.
  MOM disabled.
  Fractional occupation disabled.
  Guess Type is CORE.
  Energy threshold   = 1.00e-06
  Density threshold  = 1.00e-06
  Integral threshold = 0.00e+00

  ==> Primary Basis <==

  Basis Set: STO-3G
    Number of shells: 5
    Number of basis function: 7
    Number of Cartesian functions: 7
    Spherical Harmonics?: true
    Max angular momentum: 1

  ==> DFT Potential <==

   => wB97 Composite Functional <= 

    Parameterized LRC B97 GGA XC Functional

    J.-D. Chai and M. Head-Gordon, J. Chem. Phys., 128, 084106, 2008

    Points   =           5000
    Deriv    =              1
    GGA      =           TRUE
    Meta     =          FALSE

    X_LRC        =           TRUE
    X_Hybrid     =          FALSE
    X_Alpha      =   0.000000E+00
    X_Omega      =   4.000000E-01
    C_LRC        =          FALSE
    C_Hybrid     =          FALSE
    C_Alpha      =   0.000000E+00
    C_Omega      =   0.000000E+00

   => Exchange Functionals <=

    1.0000  wB97_X [omega = 0.4000]
    1.0000   HF,LR [omega = 0.4000]

   => Correlation Functionals <=

    1.0000  wB97_C

   => Molecular Quadrature <=

    Radial Scheme    =       TREUTLER
    Pruning Scheme   =           FLAT
    Nuclear Scheme   =       TREUTLER

    BS radius alpha  =              1
    Pruning alpha    =              1
    Radial Points    =             99
    Spherical Points =            302
    Total Points     =          86165
    Total Blocks     =             87
    Max Points       =           4867
    Max Functions    =              7

  ==> Pre-Iterations <==

   -------------------------------------------------------
    Irrep   Nso     Nmo     Nalpha   Nbeta   Ndocc  Nsocc
   -------------------------------------------------------
     A1         4       4       0       0       0       0
     A2         0       0       0       0       0       0
     B1         1       1       0       0       0       0
     B2         2       2       0       0       0       0
   -------------------------------------------------------
    Total       7       7       5       4       4       1
   -------------------------------------------------------

  ==> Integral Setup <==

      Computing non-zero ERF integrals (omega = 0.400)...done
      Computed 138 non-zero ERF integrals.
        Stored in file 36.

	Batch   1 pq = [       0,      14] index = [             0,105]
  ==> DiskJK: Disk-Based J/K Matrices <==

    J tasked:                  Yes
    K tasked:                   No
    wK tasked:                 Yes
    Omega:               4.000E-01
    Memory (MB):               178
    Schwarz Cutoff:          1E-12

  Minimum eigenvalue in the overlap matrix is 3.7028400642E-01.
  Using Symmetric Orthogonalization.
  SCF Guess: Core (One-Electron) Hamiltonian.

  ==> Iterations <==

                        Total Energy        Delta E     RMS |[F,P]|

   @UKS iter   1:   -73.79378258396130   -7.37938e+01   1.93967e-01 
   @UKS iter   2:   -74.94192589528629   -1.14814e+00   4.54096e-02 DIIS
   @UKS iter   3:   -74.97042602795179   -2.85001e-02   5.58144e-03 DIIS
   @UKS iter   4:   -74.97090199503822   -4.75967e-04   8.45933e-04 DIIS
   @UKS iter   5:   -74.97092919766143   -2.72026e-05   2.59834e-04 DIIS
   @UKS iter   6:   -74.97093174841424   -2.55075e-06   4.53887e-05 DIIS
   @UKS iter   7:   -74.97093185056275   -1.02149e-07   7.73211e-06 DIIS
   @UKS iter   8:   -74.97093185234878   -1.78603e-09   5.05501e-07 DIIS

  ==> Post-Iterations <==

   @Spin Contamination Metric:   2.601215862E-03
   @S^2 Expected:                7.500000000E-01
   @S^2 Observed:                7.526012159E-01
   @S   Expected:                5.000000000E-01
   @S   Observed:                5.000000000E-01

    Orbital Energies (a.u.)
    -----------------------

    Alpha Occupied:                                                       

       1A1   -19.476103     2A1    -1.665513     1B2    -1.100917  
       1B1    -0.955388     3A1    -0.938354  

    Alpha Virtual:                                                        

       4A1    -0.056073     2B2     0.036338  

    Beta Occupied:                                                        

       1A1   -19.473067     2A1    -1.590522     1B2    -1.073838  
       3A1    -0.900179  

    Beta Virtual:                                                         

       1B1    -0.420118     4A1    -0.034966     2B2     0.053566  

    Final Occupation by Irrep:
             A1    A2    B1    B2 
    DOCC [     3,    0,    0,    1 ]
    SOCC [     0,    0,    1,    0 ]

  Energy converged.

  @UKS Final Energy:   -74.97093185234878

   => Energetics <=

    Nuclear Repulsion Energy =              8.8014655299720665
    One-Electron Energy =                -115.7806390763017532
    Two-Electron Energy =                  38.9991024108592939
    DFT Exchange-Correlation Energy =      -6.9908607168783865
    Empirical Dispersion Energy =           0.0000000000000000
    PCM Polarization Energy =               0.0000000000000000
    EFP Energy =                            0.0000000000000000
    Total Energy =                        -74.9709318523487838

    Alert: EFP and PCM quantities not currently incorporated into SCF psivars.

Properties will be evaluated at   0.000000,   0.000000,   0.000000 Bohr
  ==> Properties <==


Properties computed using the SCF density matrix

  Nuclear Dipole Moment: (a.u.)
     X:     0.0000      Y:     0.0000      Z:     1.0191

  Electronic Dipole Moment: (a.u.)
     X:     0.0000      Y:     0.0000      Z:     0.0244

  Dipole Moment: (a.u.)
     X:     0.0000      Y:     0.0000      Z:     1.0435     Total:     1.0435

  Dipole Moment: (Debye)
     X:     0.0000      Y:     0.0000      Z:     2.6522     Total:     2.6522


  Saving occupied orbitals to File 180.

  UHF NO Occupations:
  HONO-2 :    3 A1 1.9993551
  HONO-1 :    1 B2 1.9993439
  HONO-0 :    1 B1 1.0000000
  LUNO+0 :    2 B2 0.0006561
  LUNO+1 :    4 A1 0.0006449


*** tstop() called on ds1.sherrill.chemistry.gatech.edu at Mon Mar 14 15:29:40 2016
Module time:
	user time   =       2.05 seconds =       0.03 minutes
	system time =       0.02 seconds =       0.00 minutes
	total time  =          2 seconds =       0.03 minutes
Total time:
	user time   =      12.14 seconds =       0.20 minutes
	system time =       0.09 seconds =       0.00 minutes
	total time  =         12 seconds =       0.20 minutes
	Open-shell wB97 Energy (PK).......................................PASSED

*** tstart() called on ds1.sherrill.chemistry.gatech.edu
*** at Mon Mar 14 15:29:40 2016


         ---------------------------------------------------------
                                   SCF
            by Justin Turney, Rob Parrish, and Andy Simmonett
                              UKS Reference
                        1 Threads,    250 MiB Core
         ---------------------------------------------------------

  ==> Geometry <==

    Molecular point group: c2v
    Full point group: C2v

    Geometry (in Angstrom), charge = 1, multiplicity = 2:

       Center              X                  Y                   Z               Mass       
    ------------   -----------------  -----------------  -----------------  -----------------
           O          0.000000000000     0.000000000000    -0.068516219310    15.994914619560
           H          0.000000000000    -0.790689573744     0.543701060724     1.007825032070
           H          0.000000000000     0.790689573744     0.543701060724     1.007825032070

  Running in c2v symmetry.

  Rotational constants: A =     25.12555  B =     13.37733  C =      8.72955 [cm^-1]
  Rotational constants: A = 753245.06586  B = 401042.16407  C = 261705.25278 [MHz]
  Nuclear repulsion =    8.801465529972067

  Charge       = 1
  Multiplicity = 2
  Electrons    = 9
  Nalpha       = 5
  Nbeta        = 4

  ==> Algorithm <==

  SCF Algorithm Type is OUT_OF_CORE.
  DIIS enabled.
  MOM disabled.
  Fractional occupation disabled.
  Guess Type is CORE.
  Energy threshold   = 1.00e-06
  Density threshold  = 1.00e-06
  Integral threshold = 0.00e+00

  ==> Primary Basis <==

  Basis Set: STO-3G
    Number of shells: 5
    Number of basis function: 7
    Number of Cartesian functions: 7
    Spherical Harmonics?: true
    Max angular momentum: 1

  ==> DFT Potential <==

   => wB97 Composite Functional <= 

    Parameterized LRC B97 GGA XC Functional

    J.-D. Chai and M. Head-Gordon, J. Chem. Phys., 128, 084106, 2008

    Points   =           5000
    Deriv    =              1
    GGA      =           TRUE
    Meta     =          FALSE

    X_LRC        =           TRUE
    X_Hybrid     =          FALSE
    X_Alpha      =   0.000000E+00
    X_Omega      =   4.000000E-01
    C_LRC        =          FALSE
    C_Hybrid     =          FALSE
    C_Alpha      =   0.000000E+00
    C_Omega      =   0.000000E+00

   => Exchange Functionals <=

    1.0000  wB97_X [omega = 0.4000]
    1.0000   HF,LR [omega = 0.4000]

   => Correlation Functionals <=

    1.0000  wB97_C

   => Molecular Quadrature <=

    Radial Scheme    =       TREUTLER
    Pruning Scheme   =           FLAT
    Nuclear Scheme   =       TREUTLER

    BS radius alpha  =              1
    Pruning alpha    =              1
    Radial Points    =             99
    Spherical Points =            302
    Total Points     =          86165
    Total Blocks     =             87
    Max Points       =           4867
    Max Functions    =              7

  ==> Pre-Iterations <==

   -------------------------------------------------------
    Irrep   Nso     Nmo     Nalpha   Nbeta   Ndocc  Nsocc
   -------------------------------------------------------
     A1         4       4       0       0       0       0
     A2         0       0       0       0       0       0
     B1         1       1       0       0       0       0
     B2         2       2       0       0       0       0
   -------------------------------------------------------
    Total       7       7       5       4       4       1
   -------------------------------------------------------

  ==> Integral Setup <==

      Computing non-zero ERF integrals (omega = 0.400)...done
      Computed 138 non-zero ERF integrals.
        Stored in file 36.

  ==> DiskJK: Disk-Based J/K Matrices <==

    J tasked:                  Yes
    K tasked:                   No
    wK tasked:                 Yes
    Memory (MB):               178
    Omega:               4.000E-01
    Schwarz Cutoff:          1E-12

  Minimum eigenvalue in the overlap matrix is 3.7028400642E-01.
  Using Symmetric Orthogonalization.
  SCF Guess: Core (One-Electron) Hamiltonian.

  ==> Iterations <==

                        Total Energy        Delta E     RMS |[F,P]|

   @UKS iter   1:   -73.79378258396129   -7.37938e+01   1.93967e-01 
   @UKS iter   2:   -74.94192589528626   -1.14814e+00   4.54096e-02 DIIS
   @UKS iter   3:   -74.97042602795179   -2.85001e-02   5.58144e-03 DIIS
   @UKS iter   4:   -74.97090199503825   -4.75967e-04   8.45933e-04 DIIS
   @UKS iter   5:   -74.97092919766141   -2.72026e-05   2.59834e-04 DIIS
   @UKS iter   6:   -74.97093174841422   -2.55075e-06   4.53887e-05 DIIS
   @UKS iter   7:   -74.97093185056278   -1.02149e-07   7.73211e-06 DIIS
   @UKS iter   8:   -74.97093185234877   -1.78599e-09   5.05501e-07 DIIS

  ==> Post-Iterations <==

   @Spin Contamination Metric:   2.601215862E-03
   @S^2 Expected:                7.500000000E-01
   @S^2 Observed:                7.526012159E-01
   @S   Expected:                5.000000000E-01
   @S   Observed:                5.000000000E-01

    Orbital Energies (a.u.)
    -----------------------

    Alpha Occupied:                                                       

       1A1   -19.476103     2A1    -1.665513     1B2    -1.100917  
       1B1    -0.955388     3A1    -0.938354  

    Alpha Virtual:                                                        

       4A1    -0.056073     2B2     0.036338  

    Beta Occupied:                                                        

       1A1   -19.473067     2A1    -1.590522     1B2    -1.073838  
       3A1    -0.900179  

    Beta Virtual:                                                         

       1B1    -0.420118     4A1    -0.034966     2B2     0.053566  

    Final Occupation by Irrep:
             A1    A2    B1    B2 
    DOCC [     3,    0,    0,    1 ]
    SOCC [     0,    0,    1,    0 ]

  Energy converged.

  @UKS Final Energy:   -74.97093185234877

   => Energetics <=

    Nuclear Repulsion Energy =              8.8014655299720665
    One-Electron Energy =                -115.7806390763017532
    Two-Electron Energy =                  38.9991024108593010
    DFT Exchange-Correlation Energy =      -6.9908607168783865
    Empirical Dispersion Energy =           0.0000000000000000
    PCM Polarization Energy =               0.0000000000000000
    EFP Energy =                            0.0000000000000000
    Total Energy =                        -74.9709318523487696

    Alert: EFP and PCM quantities not currently incorporated into SCF psivars.

Properties will be evaluated at   0.000000,   0.000000,   0.000000 Bohr
  ==> Properties <==


Properties computed using the SCF density matrix

  Nuclear Dipole Moment: (a.u.)
     X:     0.0000      Y:     0.0000      Z:     1.0191

  Electronic Dipole Moment: (a.u.)
     X:     0.0000      Y:     0.0000      Z:     0.0244

  Dipole Moment: (a.u.)
     X:     0.0000      Y:     0.0000      Z:     1.0435     Total:     1.0435

  Dipole Moment: (Debye)
     X:     0.0000      Y:     0.0000      Z:     2.6522     Total:     2.6522


  Saving occupied orbitals to File 180.

  UHF NO Occupations:
  HONO-2 :    3 A1 1.9993551
  HONO-1 :    1 B2 1.9993439
  HONO-0 :    1 B1 1.0000000
  LUNO+0 :    2 B2 0.0006561
  LUNO+1 :    4 A1 0.0006449


*** tstop() called on ds1.sherrill.chemistry.gatech.edu at Mon Mar 14 15:29:43 2016
Module time:
	user time   =       2.08 seconds =       0.03 minutes
	system time =       0.01 seconds =       0.00 minutes
	total time  =          3 seconds =       0.05 minutes
Total time:
	user time   =      14.26 seconds =       0.24 minutes
	system time =       0.10 seconds =       0.00 minutes
	total time  =         15 seconds =       0.25 minutes
	Open-shell wB97 Energy (OUT_OF_CORE)..............................PASSED

*** tstart() called on ds1.sherrill.chemistry.gatech.edu
*** at Mon Mar 14 15:29:43 2016


         ---------------------------------------------------------
                                   SCF
            by Justin Turney, Rob Parrish, and Andy Simmonett
                              UKS Reference
                        1 Threads,    250 MiB Core
         ---------------------------------------------------------

  ==> Geometry <==

    Molecular point group: c2v
    Full point group: C2v

    Geometry (in Angstrom), charge = 1, multiplicity = 2:

       Center              X                  Y                   Z               Mass       
    ------------   -----------------  -----------------  -----------------  -----------------
           O          0.000000000000     0.000000000000    -0.068516219310    15.994914619560
           H          0.000000000000    -0.790689573744     0.543701060724     1.007825032070
           H          0.000000000000     0.790689573744     0.543701060724     1.007825032070

  Running in c2v symmetry.

  Rotational constants: A =     25.12555  B =     13.37733  C =      8.72955 [cm^-1]
  Rotational constants: A = 753245.06586  B = 401042.16407  C = 261705.25278 [MHz]
  Nuclear repulsion =    8.801465529972067

  Charge       = 1
  Multiplicity = 2
  Electrons    = 9
  Nalpha       = 5
  Nbeta        = 4

  ==> Algorithm <==

  SCF Algorithm Type is DIRECT.
  DIIS enabled.
  MOM disabled.
  Fractional occupation disabled.
  Guess Type is CORE.
  Energy threshold   = 1.00e-06
  Density threshold  = 1.00e-06
  Integral threshold = 0.00e+00

  ==> Primary Basis <==

  Basis Set: STO-3G
    Number of shells: 5
    Number of basis function: 7
    Number of Cartesian functions: 7
    Spherical Harmonics?: true
    Max angular momentum: 1

  ==> DFT Potential <==

   => wB97 Composite Functional <= 

    Parameterized LRC B97 GGA XC Functional

    J.-D. Chai and M. Head-Gordon, J. Chem. Phys., 128, 084106, 2008

    Points   =           5000
    Deriv    =              1
    GGA      =           TRUE
    Meta     =          FALSE

    X_LRC        =           TRUE
    X_Hybrid     =          FALSE
    X_Alpha      =   0.000000E+00
    X_Omega      =   4.000000E-01
    C_LRC        =          FALSE
    C_Hybrid     =          FALSE
    C_Alpha      =   0.000000E+00
    C_Omega      =   0.000000E+00

   => Exchange Functionals <=

    1.0000  wB97_X [omega = 0.4000]
    1.0000   HF,LR [omega = 0.4000]

   => Correlation Functionals <=

    1.0000  wB97_C

   => Molecular Quadrature <=

    Radial Scheme    =       TREUTLER
    Pruning Scheme   =           FLAT
    Nuclear Scheme   =       TREUTLER

    BS radius alpha  =              1
    Pruning alpha    =              1
    Radial Points    =             99
    Spherical Points =            302
    Total Points     =          86165
    Total Blocks     =             87
    Max Points       =           4867
    Max Functions    =              7

  ==> Pre-Iterations <==

   -------------------------------------------------------
    Irrep   Nso     Nmo     Nalpha   Nbeta   Ndocc  Nsocc
   -------------------------------------------------------
     A1         4       4       0       0       0       0
     A2         0       0       0       0       0       0
     B1         1       1       0       0       0       0
     B2         2       2       0       0       0       0
   -------------------------------------------------------
    Total       7       7       5       4       4       1
   -------------------------------------------------------

  Starting with a DF guess...

  ==> Integral Setup <==

  ==> DFJK: Density-Fitted J/K Matrices <==

    J tasked:                  Yes
    K tasked:                   No
    wK tasked:                 Yes
    Omega:               4.000E-01
    OpenMP threads:              1
    Integrals threads:           1
    Memory (MB):               178
    Algorithm:                Core
    Integral Cache:           NONE
    Schwarz Cutoff:          1E-12
    Fitting Condition:       1E-12

   => Auxiliary Basis Set <=

  Basis Set: 
    Number of shells: 30
    Number of basis function: 84
    Number of Cartesian functions: 96
    Spherical Harmonics?: true
    Max angular momentum: 3

  Minimum eigenvalue in the overlap matrix is 3.7028400642E-01.
  Using Symmetric Orthogonalization.
  SCF Guess: Core (One-Electron) Hamiltonian.

  ==> Iterations <==

                           Total Energy        Delta E     RMS |[F,P]|

   @DF-UKS iter   1:   -73.79516294050514   -7.37952e+01   1.93948e-01 
   @DF-UKS iter   2:   -74.94335632557885   -1.14819e+00   4.53729e-02 DIIS
   @DF-UKS iter   3:   -74.97181278605521   -2.84565e-02   5.57879e-03 DIIS
   @DF-UKS iter   4:   -74.97228829793906   -4.75512e-04   8.45645e-04 DIIS
   @DF-UKS iter   5:   -74.97231548970380   -2.71918e-05   2.60023e-04 DIIS
   @DF-UKS iter   6:   -74.97231804434506   -2.55464e-06   4.53725e-05 DIIS
   @DF-UKS iter   7:   -74.97231814635248   -1.02007e-07   7.73852e-06 DIIS
   @DF-UKS iter   8:   -74.97231814814609   -1.79361e-09   5.05099e-07 DIIS

  DF guess converged.

  ==> Integral Setup <==

  ==> DirectJK: Integral-Direct J/K Matrices <==

    J tasked:                  Yes
    K tasked:                   No
    wK tasked:                 Yes
    Omega:               4.000E-01
    Integrals threads:           1
    Schwarz Cutoff:          1E-12

   @UKS iter   9:   -74.97093184117723    1.38631e-03   4.11297e-05 DIIS
   @UKS iter  10:   -74.97093185137152   -1.01943e-08   6.43400e-06 DIIS
   @UKS iter  11:   -74.97093185225643   -8.84910e-10   1.77599e-06 DIIS
   @UKS iter  12:   -74.97093185234893   -9.24985e-11   5.53273e-07 DIIS

  ==> Post-Iterations <==

   @Spin Contamination Metric:   2.601269577E-03
   @S^2 Expected:                7.500000000E-01
   @S^2 Observed:                7.526012696E-01
   @S   Expected:                5.000000000E-01
   @S   Observed:                5.000000000E-01

    Orbital Energies (a.u.)
    -----------------------

    Alpha Occupied:                                                       

       1A1   -19.476103     2A1    -1.665513     1B2    -1.100917  
       1B1    -0.955388     3A1    -0.938354  

    Alpha Virtual:                                                        

       4A1    -0.056073     2B2     0.036338  

    Beta Occupied:                                                        

       1A1   -19.473067     2A1    -1.590522     1B2    -1.073838  
       3A1    -0.900179  

    Beta Virtual:                                                         

       1B1    -0.420118     4A1    -0.034966     2B2     0.053566  

    Final Occupation by Irrep:
             A1    A2    B1    B2 
    DOCC [     3,    0,    0,    1 ]
    SOCC [     0,    0,    1,    0 ]

  Energy converged.

  @UKS Final Energy:   -74.97093185234893

   => Energetics <=

    Nuclear Repulsion Energy =              8.8014655299720665
    One-Electron Energy =                -115.7806427092074841
    Two-Electron Energy =                  38.9991066021396762
    DFT Exchange-Correlation Energy =      -6.9908612752531765
    Empirical Dispersion Energy =           0.0000000000000000
    PCM Polarization Energy =               0.0000000000000000
    EFP Energy =                            0.0000000000000000
    Total Energy =                        -74.9709318523489117

    Alert: EFP and PCM quantities not currently incorporated into SCF psivars.

Properties will be evaluated at   0.000000,   0.000000,   0.000000 Bohr
  ==> Properties <==


Properties computed using the SCF density matrix

  Nuclear Dipole Moment: (a.u.)
     X:     0.0000      Y:     0.0000      Z:     1.0191

  Electronic Dipole Moment: (a.u.)
     X:     0.0000      Y:     0.0000      Z:     0.0244

  Dipole Moment: (a.u.)
     X:     0.0000      Y:     0.0000      Z:     1.0435     Total:     1.0435

  Dipole Moment: (Debye)
     X:     0.0000      Y:     0.0000      Z:     2.6522     Total:     2.6522


  Saving occupied orbitals to File 180.

  UHF NO Occupations:
  HONO-2 :    3 A1 1.9993551
  HONO-1 :    1 B2 1.9993438
  HONO-0 :    1 B1 1.0000000
  LUNO+0 :    2 B2 0.0006562
  LUNO+1 :    4 A1 0.0006449


*** tstop() called on ds1.sherrill.chemistry.gatech.edu at Mon Mar 14 15:29:46 2016
Module time:
	user time   =       3.19 seconds =       0.05 minutes
	system time =       0.01 seconds =       0.00 minutes
	total time  =          3 seconds =       0.05 minutes
Total time:
	user time   =      17.49 seconds =       0.29 minutes
	system time =       0.11 seconds =       0.00 minutes
	total time  =         18 seconds =       0.30 minutes
	Open-shell wB97 Energy (DIRECT)...................................PASSED

*** tstart() called on ds1.sherrill.chemistry.gatech.edu
*** at Mon Mar 14 15:29:46 2016


         ---------------------------------------------------------
                                   SCF
            by Justin Turney, Rob Parrish, and Andy Simmonett
                              UKS Reference
                        1 Threads,    250 MiB Core
         ---------------------------------------------------------

  ==> Geometry <==

    Molecular point group: c2v
    Full point group: C2v

    Geometry (in Angstrom), charge = 1, multiplicity = 2:

       Center              X                  Y                   Z               Mass       
    ------------   -----------------  -----------------  -----------------  -----------------
           O          0.000000000000     0.000000000000    -0.068516219310    15.994914619560
           H          0.000000000000    -0.790689573744     0.543701060724     1.007825032070
           H          0.000000000000     0.790689573744     0.543701060724     1.007825032070

  Running in c2v symmetry.

  Rotational constants: A =     25.12555  B =     13.37733  C =      8.72955 [cm^-1]
  Rotational constants: A = 753245.06586  B = 401042.16407  C = 261705.25278 [MHz]
  Nuclear repulsion =    8.801465529972067

  Charge       = 1
  Multiplicity = 2
  Electrons    = 9
  Nalpha       = 5
  Nbeta        = 4

  ==> Algorithm <==

  SCF Algorithm Type is DF.
  DIIS enabled.
  MOM disabled.
  Fractional occupation disabled.
  Guess Type is CORE.
  Energy threshold   = 1.00e-06
  Density threshold  = 1.00e-06
  Integral threshold = 0.00e+00

  ==> Primary Basis <==

  Basis Set: STO-3G
    Number of shells: 5
    Number of basis function: 7
    Number of Cartesian functions: 7
    Spherical Harmonics?: true
    Max angular momentum: 1

  ==> DFT Potential <==

   => wB97 Composite Functional <= 

    Parameterized LRC B97 GGA XC Functional

    J.-D. Chai and M. Head-Gordon, J. Chem. Phys., 128, 084106, 2008

    Points   =           5000
    Deriv    =              1
    GGA      =           TRUE
    Meta     =          FALSE

    X_LRC        =           TRUE
    X_Hybrid     =          FALSE
    X_Alpha      =   0.000000E+00
    X_Omega      =   4.000000E-01
    C_LRC        =          FALSE
    C_Hybrid     =          FALSE
    C_Alpha      =   0.000000E+00
    C_Omega      =   0.000000E+00

   => Exchange Functionals <=

    1.0000  wB97_X [omega = 0.4000]
    1.0000   HF,LR [omega = 0.4000]

   => Correlation Functionals <=

    1.0000  wB97_C

   => Molecular Quadrature <=

    Radial Scheme    =       TREUTLER
    Pruning Scheme   =           FLAT
    Nuclear Scheme   =       TREUTLER

    BS radius alpha  =              1
    Pruning alpha    =              1
    Radial Points    =             99
    Spherical Points =            302
    Total Points     =          86165
    Total Blocks     =             87
    Max Points       =           4867
    Max Functions    =              7

  ==> Pre-Iterations <==

   -------------------------------------------------------
    Irrep   Nso     Nmo     Nalpha   Nbeta   Ndocc  Nsocc
   -------------------------------------------------------
     A1         4       4       0       0       0       0
     A2         0       0       0       0       0       0
     B1         1       1       0       0       0       0
     B2         2       2       0       0       0       0
   -------------------------------------------------------
    Total       7       7       5       4       4       1
   -------------------------------------------------------

  ==> Integral Setup <==

  ==> DFJK: Density-Fitted J/K Matrices <==

    J tasked:                  Yes
    K tasked:                   No
    wK tasked:                 Yes
    Omega:               4.000E-01
    OpenMP threads:              1
    Integrals threads:           1
    Memory (MB):               178
    Algorithm:                Core
    Integral Cache:           NONE
    Schwarz Cutoff:          1E-12
    Fitting Condition:       1E-12

   => Auxiliary Basis Set <=

  Basis Set: 
    Number of shells: 30
    Number of basis function: 84
    Number of Cartesian functions: 96
    Spherical Harmonics?: true
    Max angular momentum: 3

  Minimum eigenvalue in the overlap matrix is 3.7028400642E-01.
  Using Symmetric Orthogonalization.
  SCF Guess: Core (One-Electron) Hamiltonian.

  ==> Iterations <==

                           Total Energy        Delta E     RMS |[F,P]|

   @DF-UKS iter   1:   -73.79516294050514   -7.37952e+01   1.93948e-01 
   @DF-UKS iter   2:   -74.94335632557885   -1.14819e+00   4.53729e-02 DIIS
   @DF-UKS iter   3:   -74.97181278605521   -2.84565e-02   5.57879e-03 DIIS
   @DF-UKS iter   4:   -74.97228829793906   -4.75512e-04   8.45645e-04 DIIS
   @DF-UKS iter   5:   -74.97231548970380   -2.71918e-05   2.60023e-04 DIIS
   @DF-UKS iter   6:   -74.97231804434506   -2.55464e-06   4.53725e-05 DIIS
   @DF-UKS iter   7:   -74.97231814635248   -1.02007e-07   7.73852e-06 DIIS
   @DF-UKS iter   8:   -74.97231814814609   -1.79361e-09   5.05099e-07 DIIS

  ==> Post-Iterations <==

   @Spin Contamination Metric:   2.603165743E-03
   @S^2 Expected:                7.500000000E-01
   @S^2 Observed:                7.526031657E-01
   @S   Expected:                5.000000000E-01
   @S   Observed:                5.000000000E-01

    Orbital Energies (a.u.)
    -----------------------

    Alpha Occupied:                                                       

       1A1   -19.477190     2A1    -1.665651     1B2    -1.101007  
       1B1    -0.955455     3A1    -0.938536  

    Alpha Virtual:                                                        

       4A1    -0.056080     2B2     0.036336  

    Beta Occupied:                                                        

       1A1   -19.474152     2A1    -1.590655     1B2    -1.073921  
       3A1    -0.900346  

    Beta Virtual:                                                         

       1B1    -0.420174     4A1    -0.034971     2B2     0.053561  

    Final Occupation by Irrep:
             A1    A2    B1    B2 
    DOCC [     3,    0,    0,    1 ]
    SOCC [     0,    0,    1,    0 ]

  Energy converged.

  @DF-UKS Final Energy:   -74.97231814814609

   => Energetics <=

    Nuclear Repulsion Energy =              8.8014655299720665
    One-Electron Energy =                -115.7803888681334286
    Two-Electron Energy =                  38.9974472425637870
    DFT Exchange-Correlation Energy =      -6.9908420525485147
    Empirical Dispersion Energy =           0.0000000000000000
    PCM Polarization Energy =               0.0000000000000000
    EFP Energy =                            0.0000000000000000
    Total Energy =                        -74.9723181481460870

    Alert: EFP and PCM quantities not currently incorporated into SCF psivars.

Properties will be evaluated at   0.000000,   0.000000,   0.000000 Bohr
  ==> Properties <==


Properties computed using the SCF density matrix

  Nuclear Dipole Moment: (a.u.)
     X:     0.0000      Y:     0.0000      Z:     1.0191

  Electronic Dipole Moment: (a.u.)
     X:     0.0000      Y:     0.0000      Z:     0.0243

  Dipole Moment: (a.u.)
     X:     0.0000      Y:     0.0000      Z:     1.0433     Total:     1.0433

  Dipole Moment: (Debye)
     X:     0.0000      Y:     0.0000      Z:     2.6519     Total:     2.6519


  Saving occupied orbitals to File 180.

  UHF NO Occupations:
  HONO-2 :    3 A1 1.9993545
  HONO-1 :    1 B2 1.9993435
  HONO-0 :    1 B1 1.0000000
  LUNO+0 :    2 B2 0.0006565
  LUNO+1 :    4 A1 0.0006455


*** tstop() called on ds1.sherrill.chemistry.gatech.edu at Mon Mar 14 15:29:48 2016
Module time:
	user time   =       2.12 seconds =       0.04 minutes
	system time =       0.01 seconds =       0.00 minutes
	total time  =          2 seconds =       0.03 minutes
Total time:
	user time   =      19.65 seconds =       0.33 minutes
	system time =       0.12 seconds =       0.00 minutes
	total time  =         20 seconds =       0.33 minutes
	Open-shell wB97 Energy (DF).......................................PASSED

*** PSI4 exiting successfully. Buy a developer a beer!
