    -----------------------------------------------------------------------
          PSI4: An Open-Source Ab Initio Electronic Structure Package
                              PSI 4.0.0-alpha Driver

    J. M. Turney, A. C. Simmonett, R. M. Parrish, E. G. Hohenstein,
    F. Evangelista, J. T. Fermann, B. J. Mintz, L. A. Burns, J. J. Wilke,
    M. L. Abrams, N. J. Russ, M. L. Leininger, C. L. Janssen, E. T. Seidl,
    W. D. Allen, H. F. Schaefer, R. A. King, E. F. Valeev, C. D. Sherrill,
    and T. D. Crawford, WIREs Comput. Mol. Sci., (2011)
                         Additional Contributions by
    -----------------------------------------------------------------------


    Using LocalCommunicator (Number of processes = 1)

    Memory level set to 256.000 MB

  ==> Input File <==

--------------------------------------------------------------------------
#! RHF cc-pVDZ energy for water, automatically scanning the symmetric stretch and bending coordinates
#! using Python's built-in loop mechanisms.  The geometry is apecified using a Z-matrix with variables
#! that are updated during the potential energy surface scan.

refENuc = [ 9.785886586224326, 9.780670853323890, 8.807297927601891,     #TEST
            8.802603767991497, 8.006634479638080, 8.002367061810450 ]    #TEST

refSCF  = [ -76.02132543096083, -76.02170971655210, -76.02148198312274,  #TEST
            -76.02145797759667, -75.99010405718796, -75.98979581991821 ] #TEST

molecule h2o {
    O
    H 1 R
    H 1 R 2 A
}

Rvals = [ 0.9, 1.0, 1.1 ]
Avals = range(102, 106, 2)

count = 0

set basis cc-pvdz
set scf e_converge = 11

for R in Rvals:
    h2o.R = R

    for A in Avals:

        h2o.A = A

        thisenergy = scf()

        compare_values(refENuc[count], h2o.nuclear_repulsion_energy(),                 #TEST
                       10, "Nuclear repulsion energy %d" % count)                      #TEST
        compare_values(refSCF[count], thisenergy, 10, "Reference energy %d" % count)   #TEST

        count = count + 1

clean()
--------------------------------------------------------------------------
Setting geometry variable R to 0.900000
Setting geometry variable A to 102.000000

*** tstart() called on ganymede-2.local
*** at Wed Sep 28 16:20:02 2011

	There are an even number of electrons - assuming singlet.
	Specify the multiplicity with the MULTP option in the
	input if this is incorrect


         ---------------------------------------------------------
                                   SCF
            by Justin Turney, Rob Parrish, and Andy Simmonnett
                              RHF Reference
                        1 Threads,    256 MiB Core
         ---------------------------------------------------------

  ==> Geometry <==

    Molecular point group: c2v

    Geometry (in Angstrom), charge = 0, multiplicity = 1:

       Center              X                  Y                   Z       
    ------------   -----------------  -----------------  -----------------
           O          0.000000000000     0.000000000000    -0.063387280631
           H          0.000000000000    -0.699431365311     0.503001071314
           H          0.000000000000     0.699431365311     0.503001071314

    Number of unique atoms: 2

    Atoms equivalency:
       unique atom 0: 0 
       unique atom 1: 1 2 

  Running in c2v symmetry.

  Nuclear repulsion =    9.785886586224322

  Charge       = 0
  Multiplicity = 1
  Electrons    = 10
  Nalpha       = 5
  Nbeta        = 5

  ==> Algorithm <==

  SCF Algorithm Type is PK.
  DIIS enabled.
  MOM disabled.
  Guess Type is CORE.
  Energy threshold   = 1.00e-11
  Density threshold  = 1.00e-08
  Integral threshold = 0.00e+00

  ==> Primary Basis: CC-PVDZ <==

  Basis Set
    Number of shells: 12
    Number of basis function: 24
    Number of Cartesian functions: 25
    Spherical Harmonics?: true
    Max angular momentum: 2

  ==> Pre-Iterations <==

  Minimum eigenvalue in the overlap matrix is 3.0154667412E-02.
  Using Symmetric Orthogonalization.
  SCF Guess: Core (One-Electron) Hamiltonian.

  Initial RHF energy:   -58.36805182759035

   -------------------------------------------------------
    Irrep   Nso     Nmo     Nalpha   Nbeta   Ndocc  Nsocc
   -------------------------------------------------------
     A1        11      11       3       3       3       0
     A2         2       2       0       0       0       0
     B1         4       4       1       1       1       0
     B2         7       7       1       1       1       0
   -------------------------------------------------------
    Total      24      24       5       5       5       0
   -------------------------------------------------------

  ==> Integral Setup <==

 MINTS: Wrapper to libmints.
   by Justin Turney

   Calculation information:
      Number of atoms:                   3
      Number of AO shells:              12
      Number of SO shells:               9
      Number of primitives:             32
      Number of atomic orbitals:        25
      Number of basis functions:        24

      Number of irreps:                  4
      Number of functions per irrep: [  11    2    4    7 ]

      Computing integrals...done

      Computed 11412 non-zero integrals.

  ==> Iterations <==

                        Total Energy        Delta E     Density RMS

   @RHF iter   1:   -68.77629868803248   -1.04082e+01   0.00000e+00  
	Occupation by irrep:
	         A1    A2    B1    B2 
	DOCC [     3,    0,    0,    2 ]
   @RHF iter   2:   -69.98389090873195   -1.20759e+00   6.03634e-01 DIIS
	Occupation by irrep:
	         A1    A2    B1    B2 
	DOCC [     3,    0,    1,    1 ]
   @RHF iter   3:   -75.67879791115193   -5.69491e+00   5.72071e-01 DIIS
   @RHF iter   4:   -75.99167413546033   -3.12876e-01   1.96821e-02 DIIS
   @RHF iter   5:   -76.02106809677262   -2.93940e-02   9.17354e-03 DIIS
   @RHF iter   6:   -76.02129322179654   -2.25125e-04   1.25099e-03 DIIS
   @RHF iter   7:   -76.02132419235501   -3.09706e-05   4.21883e-04 DIIS
   @RHF iter   8:   -76.02132536200497   -1.16965e-06   8.79264e-05 DIIS
   @RHF iter   9:   -76.02132543058964   -6.85847e-08   1.55939e-05 DIIS
   @RHF iter  10:   -76.02132543094115   -3.51505e-10   1.61910e-06 DIIS
   @RHF iter  11:   -76.02132543096032   -1.91704e-11   2.63782e-07 DIIS
   @RHF iter  12:   -76.02132543096070   -3.83693e-13   3.89326e-08 DIIS

  ==> Post-Iterations <==

	Orbital Energies (a.u.)
	-----------------------

	Doubly Occupied:                                                      

	   1A1   -20.541265     2A1    -1.370437     1B2    -0.725895  
	   3A1    -0.582567     1B1    -0.498672  

	Virtual:                                                              

	   4A1     0.193806     2B2     0.264303     3B2     0.824413  
	   5A1     0.924421     6A1     1.162288     2B1     1.197331  
	   4B2     1.253681     7A1     1.415286     1A2     1.502177  
	   3B1     1.673607     8A1     1.852359     5B2     2.018415  
	   6B2     2.585824     9A1     2.650589     4B1     3.352827  
	   2A2     3.386871    10A1     3.595045    11A1     3.912861  
	   7B2     4.230440  

	Final Occupation by Irrep:
	         A1    A2    B1    B2 
	DOCC [     3,    0,    1,    1 ]

  Energy converged.

  @RHF Final Energy:   -76.02132543096070

  ==> Properties <==

 OEPROP: One-electron properties/analyses.
  by Rob Parrish and Justin Turney.
  built on LIBMINTS.

 Dipole Moment: (a.u.)
     X:     0.0000      Y:     0.0000      Z:     0.8006     Total:     0.8006

 Dipole Moment: (Debye)
     X:     0.0000      Y:     0.0000      Z:     2.0350     Total:     2.0350


  Saving occupied orbitals to File 100.

*** tstop() called on ganymede-2.local at Wed Sep 28 16:20:02 2011
Module time:
	user time   =       0.20 seconds =       0.00 minutes
	system time =       0.04 seconds =       0.00 minutes
	total time  =          0 seconds =       0.00 minutes
Total time:
	user time   =       0.20 seconds =       0.00 minutes
	system time =       0.04 seconds =       0.00 minutes
	total time  =          0 seconds =       0.00 minutes
Setting geometry variable A to 104.000000

*** tstart() called on ganymede-2.local
*** at Wed Sep 28 16:20:02 2011

	There are an even number of electrons - assuming singlet.
	Specify the multiplicity with the MULTP option in the
	input if this is incorrect


         ---------------------------------------------------------
                                   SCF
            by Justin Turney, Rob Parrish, and Andy Simmonnett
                              RHF Reference
                        1 Threads,    256 MiB Core
         ---------------------------------------------------------

  ==> Geometry <==

    Molecular point group: c2v

    Geometry (in Angstrom), charge = 0, multiplicity = 1:

       Center              X                  Y                   Z       
    ------------   -----------------  -----------------  -----------------
           O          0.000000000000     0.000000000000    -0.062011508391
           H          0.000000000000    -0.709209678246     0.492083819402
           H          0.000000000000     0.709209678246     0.492083819402

    Number of unique atoms: 2

    Atoms equivalency:
       unique atom 0: 0 
       unique atom 1: 1 2 

  Running in c2v symmetry.

  Nuclear repulsion =    9.780670853323885

  Charge       = 0
  Multiplicity = 1
  Electrons    = 10
  Nalpha       = 5
  Nbeta        = 5

  ==> Algorithm <==

  SCF Algorithm Type is PK.
  DIIS enabled.
  MOM disabled.
  Guess Type is CORE.
  Energy threshold   = 1.00e-11
  Density threshold  = 1.00e-08
  Integral threshold = 0.00e+00

  ==> Primary Basis: CC-PVDZ <==

  Basis Set
    Number of shells: 12
    Number of basis function: 24
    Number of Cartesian functions: 25
    Spherical Harmonics?: true
    Max angular momentum: 2

  ==> Pre-Iterations <==

  Minimum eigenvalue in the overlap matrix is 3.0308204715E-02.
  Using Symmetric Orthogonalization.
  SCF Guess: Core (One-Electron) Hamiltonian.

  Initial RHF energy:   -58.37199222314243

   -------------------------------------------------------
    Irrep   Nso     Nmo     Nalpha   Nbeta   Ndocc  Nsocc
   -------------------------------------------------------
     A1        11      11       3       3       3       0
     A2         2       2       0       0       0       0
     B1         4       4       1       1       1       0
     B2         7       7       1       1       1       0
   -------------------------------------------------------
    Total      24      24       5       5       5       0
   -------------------------------------------------------

  ==> Integral Setup <==

 MINTS: Wrapper to libmints.
   by Justin Turney

   Calculation information:
      Number of atoms:                   3
      Number of AO shells:              12
      Number of SO shells:               9
      Number of primitives:             32
      Number of atomic orbitals:        25
      Number of basis functions:        24

      Number of irreps:                  4
      Number of functions per irrep: [  11    2    4    7 ]

      Computing integrals...done

      Computed 11412 non-zero integrals.

  ==> Iterations <==

                        Total Energy        Delta E     Density RMS

   @RHF iter   1:   -68.78141541221341   -1.04094e+01   0.00000e+00  
	Occupation by irrep:
	         A1    A2    B1    B2 
	DOCC [     3,    0,    0,    2 ]
   @RHF iter   2:   -70.01688270730207   -1.23547e+00   5.97632e-01 DIIS
	Occupation by irrep:
	         A1    A2    B1    B2 
	DOCC [     3,    0,    1,    1 ]
   @RHF iter   3:   -75.67969243422674   -5.66281e+00   5.65813e-01 DIIS
   @RHF iter   4:   -75.99208921460072   -3.12397e-01   1.96362e-02 DIIS
   @RHF iter   5:   -76.02145412383896   -2.93649e-02   9.12410e-03 DIIS
   @RHF iter   6:   -76.02167796219230   -2.23838e-04   1.22242e-03 DIIS
   @RHF iter   7:   -76.02170848605562   -3.05239e-05   4.16770e-04 DIIS
   @RHF iter   8:   -76.02170964810185   -1.16205e-06   8.75884e-05 DIIS
   @RHF iter   9:   -76.02170971614419   -6.80423e-08   1.57852e-05 DIIS
   @RHF iter  10:   -76.02170971652997   -3.85782e-10   1.72065e-06 DIIS
   @RHF iter  11:   -76.02170971655146   -2.14868e-11   2.86033e-07 DIIS
   @RHF iter  12:   -76.02170971655190   -4.40536e-13   4.07451e-08 DIIS

  ==> Post-Iterations <==

	Orbital Energies (a.u.)
	-----------------------

	Doubly Occupied:                                                      

	   1A1   -20.540311     2A1    -1.368599     1B2    -0.730278  
	   3A1    -0.578351     1B1    -0.498029  

	Virtual:                                                              

	   4A1     0.194413     2B2     0.263875     3B2     0.831607  
	   5A1     0.914881     6A1     1.159565     2B1     1.197741  
	   4B2     1.251838     7A1     1.433606     1A2     1.494790  
	   3B1     1.686267     8A1     1.856647     5B2     2.005229  
	   6B2     2.592530     9A1     2.645351     4B1     3.340977  
	   2A2     3.395191    10A1     3.588460    11A1     3.929927  
	   7B2     4.217613  

	Final Occupation by Irrep:
	         A1    A2    B1    B2 
	DOCC [     3,    0,    1,    1 ]

  Energy converged.

  @RHF Final Energy:   -76.02170971655190

  ==> Properties <==

 OEPROP: One-electron properties/analyses.
  by Rob Parrish and Justin Turney.
  built on LIBMINTS.

 Dipole Moment: (a.u.)
     X:     0.0000      Y:     0.0000      Z:     0.7892     Total:     0.7892

 Dipole Moment: (Debye)
     X:     0.0000      Y:     0.0000      Z:     2.0059     Total:     2.0059


  Saving occupied orbitals to File 100.

*** tstop() called on ganymede-2.local at Wed Sep 28 16:20:02 2011
Module time:
	user time   =       0.19 seconds =       0.00 minutes
	system time =       0.02 seconds =       0.00 minutes
	total time  =          0 seconds =       0.00 minutes
Total time:
	user time   =       0.39 seconds =       0.01 minutes
	system time =       0.06 seconds =       0.00 minutes
	total time  =          0 seconds =       0.00 minutes
Setting geometry variable R to 1.000000
Setting geometry variable A to 102.000000

*** tstart() called on ganymede-2.local
*** at Wed Sep 28 16:20:02 2011

	There are an even number of electrons - assuming singlet.
	Specify the multiplicity with the MULTP option in the
	input if this is incorrect


         ---------------------------------------------------------
                                   SCF
            by Justin Turney, Rob Parrish, and Andy Simmonnett
                              RHF Reference
                        1 Threads,    256 MiB Core
         ---------------------------------------------------------

  ==> Geometry <==

    Molecular point group: c2v

    Geometry (in Angstrom), charge = 0, multiplicity = 1:

       Center              X                  Y                   Z       
    ------------   -----------------  -----------------  -----------------
           O          0.000000000000     0.000000000000    -0.070430311812
           H          0.000000000000    -0.777145961457     0.558890079238
           H          0.000000000000     0.777145961457     0.558890079238

    Number of unique atoms: 2

    Atoms equivalency:
       unique atom 0: 0 
       unique atom 1: 1 2 

  Running in c2v symmetry.

  Nuclear repulsion =    8.807297927601892

  Charge       = 0
  Multiplicity = 1
  Electrons    = 10
  Nalpha       = 5
  Nbeta        = 5

  ==> Algorithm <==

  SCF Algorithm Type is PK.
  DIIS enabled.
  MOM disabled.
  Guess Type is CORE.
  Energy threshold   = 1.00e-11
  Density threshold  = 1.00e-08
  Integral threshold = 0.00e+00

  ==> Primary Basis: CC-PVDZ <==

  Basis Set
    Number of shells: 12
    Number of basis function: 24
    Number of Cartesian functions: 25
    Spherical Harmonics?: true
    Max angular momentum: 2

  ==> Pre-Iterations <==

  Minimum eigenvalue in the overlap matrix is 3.6941786472E-02.
  Using Symmetric Orthogonalization.
  SCF Guess: Core (One-Electron) Hamiltonian.

  Initial RHF energy:   -58.68439483660310

   -------------------------------------------------------
    Irrep   Nso     Nmo     Nalpha   Nbeta   Ndocc  Nsocc
   -------------------------------------------------------
     A1        11      11       3       3       3       0
     A2         2       2       0       0       0       0
     B1         4       4       1       1       1       0
     B2         7       7       1       1       1       0
   -------------------------------------------------------
    Total      24      24       5       5       5       0
   -------------------------------------------------------

  ==> Integral Setup <==

 MINTS: Wrapper to libmints.
   by Justin Turney

   Calculation information:
      Number of atoms:                   3
      Number of AO shells:              12
      Number of SO shells:               9
      Number of primitives:             32
      Number of atomic orbitals:        25
      Number of basis functions:        24

      Number of irreps:                  4
      Number of functions per irrep: [  11    2    4    7 ]

      Computing integrals...done

      Computed 11412 non-zero integrals.

  ==> Iterations <==

                        Total Energy        Delta E     Density RMS

   @RHF iter   1:   -68.91755299624612   -1.02332e+01   0.00000e+00  
	Occupation by irrep:
	         A1    A2    B1    B2 
	DOCC [     3,    0,    0,    2 ]
   @RHF iter   2:   -69.83025872478963   -9.12706e-01   5.35336e-01 DIIS
	Occupation by irrep:
	         A1    A2    B1    B2 
	DOCC [     3,    0,    1,    1 ]
   @RHF iter   3:   -75.76448577628082   -5.93423e+00   5.02523e-01 DIIS
   @RHF iter   4:   -75.99915526792421   -2.34669e-01   1.67864e-02 DIIS
   @RHF iter   5:   -76.02115695344706   -2.20017e-02   7.86846e-03 DIIS
   @RHF iter   6:   -76.02143018298250   -2.73230e-04   1.40558e-03 DIIS
   @RHF iter   7:   -76.02148000177274   -4.98188e-05   4.91727e-04 DIIS
   @RHF iter   8:   -76.02148187584662   -1.87407e-06   1.10691e-04 DIIS
   @RHF iter   9:   -76.02148198209714   -1.06251e-07   1.77739e-05 DIIS
   @RHF iter  10:   -76.02148198304903   -9.51886e-10   2.69692e-06 DIIS
   @RHF iter  11:   -76.02148198312052   -7.14948e-11   5.66934e-07 DIIS
   @RHF iter  12:   -76.02148198312268   -2.16005e-12   8.50410e-08 DIIS
   @RHF iter  13:   -76.02148198312264    4.26326e-14   1.58685e-08 DIIS

  ==> Post-Iterations <==

	Orbital Energies (a.u.)
	-----------------------

	Doubly Occupied:                                                      

	   1A1   -20.559297     2A1    -1.318055     1B2    -0.672659  
	   3A1    -0.563762     1B1    -0.491356  

	Virtual:                                                              

	   4A1     0.177648     2B2     0.249584     3B2     0.752466  
	   5A1     0.826526     6A1     1.168108     2B1     1.197816  
	   4B2     1.259344     7A1     1.429053     1A2     1.473972  
	   3B1     1.654946     8A1     1.871992     5B2     1.903361  
	   6B2     2.350086     9A1     2.392036     4B1     3.260287  
	   2A2     3.289015    10A1     3.461392    11A1     3.806529  
	   7B2     4.111258  

	Final Occupation by Irrep:
	         A1    A2    B1    B2 
	DOCC [     3,    0,    1,    1 ]

  Energy converged.

  @RHF Final Energy:   -76.02148198312264

  ==> Properties <==

 OEPROP: One-electron properties/analyses.
  by Rob Parrish and Justin Turney.
  built on LIBMINTS.

 Dipole Moment: (a.u.)
     X:     0.0000      Y:     0.0000      Z:     0.8395     Total:     0.8395

 Dipole Moment: (Debye)
     X:     0.0000      Y:     0.0000      Z:     2.1338     Total:     2.1338


  Saving occupied orbitals to File 100.

*** tstop() called on ganymede-2.local at Wed Sep 28 16:20:02 2011
Module time:
	user time   =       0.20 seconds =       0.00 minutes
	system time =       0.02 seconds =       0.00 minutes
	total time  =          0 seconds =       0.00 minutes
Total time:
	user time   =       0.59 seconds =       0.01 minutes
	system time =       0.08 seconds =       0.00 minutes
	total time  =          0 seconds =       0.00 minutes
Setting geometry variable A to 104.000000

*** tstart() called on ganymede-2.local
*** at Wed Sep 28 16:20:02 2011

	There are an even number of electrons - assuming singlet.
	Specify the multiplicity with the MULTP option in the
	input if this is incorrect


         ---------------------------------------------------------
                                   SCF
            by Justin Turney, Rob Parrish, and Andy Simmonnett
                              RHF Reference
                        1 Threads,    256 MiB Core
         ---------------------------------------------------------

  ==> Geometry <==

    Molecular point group: c2v

    Geometry (in Angstrom), charge = 0, multiplicity = 1:

       Center              X                  Y                   Z       
    ------------   -----------------  -----------------  -----------------
           O          0.000000000000     0.000000000000    -0.068901675990
           H          0.000000000000    -0.788010753607     0.546759799336
           H          0.000000000000     0.788010753607     0.546759799336

    Number of unique atoms: 2

    Atoms equivalency:
       unique atom 0: 0 
       unique atom 1: 1 2 

  Running in c2v symmetry.

  Nuclear repulsion =    8.802603767991501

  Charge       = 0
  Multiplicity = 1
  Electrons    = 10
  Nalpha       = 5
  Nbeta        = 5

  ==> Algorithm <==

  SCF Algorithm Type is PK.
  DIIS enabled.
  MOM disabled.
  Guess Type is CORE.
  Energy threshold   = 1.00e-11
  Density threshold  = 1.00e-08
  Integral threshold = 0.00e+00

  ==> Primary Basis: CC-PVDZ <==

  Basis Set
    Number of shells: 12
    Number of basis function: 24
    Number of Cartesian functions: 25
    Spherical Harmonics?: true
    Max angular momentum: 2

  ==> Pre-Iterations <==

  Minimum eigenvalue in the overlap matrix is 3.7289482669E-02.
  Using Symmetric Orthogonalization.
  SCF Guess: Core (One-Electron) Hamiltonian.

  Initial RHF energy:   -58.68822978421231

   -------------------------------------------------------
    Irrep   Nso     Nmo     Nalpha   Nbeta   Ndocc  Nsocc
   -------------------------------------------------------
     A1        11      11       3       3       3       0
     A2         2       2       0       0       0       0
     B1         4       4       1       1       1       0
     B2         7       7       1       1       1       0
   -------------------------------------------------------
    Total      24      24       5       5       5       0
   -------------------------------------------------------

  ==> Integral Setup <==

 MINTS: Wrapper to libmints.
   by Justin Turney

   Calculation information:
      Number of atoms:                   3
      Number of AO shells:              12
      Number of SO shells:               9
      Number of primitives:             32
      Number of atomic orbitals:        25
      Number of basis functions:        24

      Number of irreps:                  4
      Number of functions per irrep: [  11    2    4    7 ]

      Computing integrals...done

      Computed 11412 non-zero integrals.

  ==> Iterations <==

                        Total Energy        Delta E     Density RMS

   @RHF iter   1:   -68.92227207034664   -1.02340e+01   0.00000e+00  
	Occupation by irrep:
	         A1    A2    B1    B2 
	DOCC [     3,    0,    0,    2 ]
   @RHF iter   2:   -69.86892770756828   -9.46656e-01   5.30789e-01 DIIS
	Occupation by irrep:
	         A1    A2    B1    B2 
	DOCC [     3,    0,    1,    1 ]
   @RHF iter   3:   -75.76496810204058   -5.89604e+00   4.97703e-01 DIIS
   @RHF iter   4:   -75.99912912198747   -2.34161e-01   1.67254e-02 DIIS
   @RHF iter   5:   -76.02113730296465   -2.20082e-02   7.83068e-03 DIIS
   @RHF iter   6:   -76.02140669866128   -2.69396e-04   1.37860e-03 DIIS
   @RHF iter   7:   -76.02145598296661   -4.92843e-05   4.89662e-04 DIIS
   @RHF iter   8:   -76.02145787093147   -1.88796e-06   1.11416e-04 DIIS
   @RHF iter   9:   -76.02145797643726   -1.05506e-07   1.79910e-05 DIIS
   @RHF iter  10:   -76.02145797751479   -1.07752e-09   2.88925e-06 DIIS
   @RHF iter  11:   -76.02145797759428   -7.94955e-11   6.08222e-07 DIIS
   @RHF iter  12:   -76.02145797759658   -2.30216e-12   8.38643e-08 DIIS
   @RHF iter  13:   -76.02145797759663   -4.26326e-14   1.55817e-08 DIIS

  ==> Post-Iterations <==

	Orbital Energies (a.u.)
	-----------------------

	Doubly Occupied:                                                      

	   1A1   -20.558142     2A1    -1.316554     1B2    -0.676204  
	   3A1    -0.559731     1B1    -0.490580  

	Virtual:                                                              

	   4A1     0.177946     2B2     0.249509     3B2     0.758670  
	   5A1     0.818232     6A1     1.166509     2B1     1.198450  
	   4B2     1.257045     7A1     1.447949     1A2     1.467616  
	   3B1     1.665402     8A1     1.876097     5B2     1.892497  
	   6B2     2.353807     9A1     2.388994     4B1     3.251119  
	   2A2     3.296062    10A1     3.455901    11A1     3.817993  
	   7B2     4.101599  

	Final Occupation by Irrep:
	         A1    A2    B1    B2 
	DOCC [     3,    0,    1,    1 ]

  Energy converged.

  @RHF Final Energy:   -76.02145797759663

  ==> Properties <==

 OEPROP: One-electron properties/analyses.
  by Rob Parrish and Justin Turney.
  built on LIBMINTS.

 Dipole Moment: (a.u.)
     X:     0.0000      Y:     0.0000      Z:     0.8275     Total:     0.8275

 Dipole Moment: (Debye)
     X:     0.0000      Y:     0.0000      Z:     2.1032     Total:     2.1032


  Saving occupied orbitals to File 100.

*** tstop() called on ganymede-2.local at Wed Sep 28 16:20:03 2011
Module time:
	user time   =       0.20 seconds =       0.00 minutes
	system time =       0.02 seconds =       0.00 minutes
	total time  =          1 seconds =       0.02 minutes
Total time:
	user time   =       0.79 seconds =       0.01 minutes
	system time =       0.10 seconds =       0.00 minutes
	total time  =          1 seconds =       0.02 minutes
Setting geometry variable R to 1.100000
Setting geometry variable A to 102.000000

*** tstart() called on ganymede-2.local
*** at Wed Sep 28 16:20:03 2011

	There are an even number of electrons - assuming singlet.
	Specify the multiplicity with the MULTP option in the
	input if this is incorrect


         ---------------------------------------------------------
                                   SCF
            by Justin Turney, Rob Parrish, and Andy Simmonnett
                              RHF Reference
                        1 Threads,    256 MiB Core
         ---------------------------------------------------------

  ==> Geometry <==

    Molecular point group: c2v

    Geometry (in Angstrom), charge = 0, multiplicity = 1:

       Center              X                  Y                   Z       
    ------------   -----------------  -----------------  -----------------
           O          0.000000000000     0.000000000000    -0.077473342993
           H          0.000000000000    -0.854860557603     0.614779087162
           H          0.000000000000     0.854860557603     0.614779087162

    Number of unique atoms: 2

    Atoms equivalency:
       unique atom 0: 0 
       unique atom 1: 1 2 

  Running in c2v symmetry.

  Nuclear repulsion =    8.006634479638080

  Charge       = 0
  Multiplicity = 1
  Electrons    = 10
  Nalpha       = 5
  Nbeta        = 5

  ==> Algorithm <==

  SCF Algorithm Type is PK.
  DIIS enabled.
  MOM disabled.
  Guess Type is CORE.
  Energy threshold   = 1.00e-11
  Density threshold  = 1.00e-08
  Integral threshold = 0.00e+00

  ==> Primary Basis: CC-PVDZ <==

  Basis Set
    Number of shells: 12
    Number of basis function: 24
    Number of Cartesian functions: 25
    Spherical Harmonics?: true
    Max angular momentum: 2

  ==> Pre-Iterations <==

  Minimum eigenvalue in the overlap matrix is 4.5556863264E-02.
  Using Symmetric Orthogonalization.
  SCF Guess: Core (One-Electron) Hamiltonian.

  Initial RHF energy:   -58.95474459554598

   -------------------------------------------------------
    Irrep   Nso     Nmo     Nalpha   Nbeta   Ndocc  Nsocc
   -------------------------------------------------------
     A1        11      11       3       3       3       0
     A2         2       2       0       0       0       0
     B1         4       4       1       1       1       0
     B2         7       7       1       1       1       0
   -------------------------------------------------------
    Total      24      24       5       5       5       0
   -------------------------------------------------------

  ==> Integral Setup <==

 MINTS: Wrapper to libmints.
   by Justin Turney

   Calculation information:
      Number of atoms:                   3
      Number of AO shells:              12
      Number of SO shells:               9
      Number of primitives:             32
      Number of atomic orbitals:        25
      Number of basis functions:        24

      Number of irreps:                  4
      Number of functions per irrep: [  11    2    4    7 ]

      Computing integrals...done

      Computed 11412 non-zero integrals.

  ==> Iterations <==

                        Total Energy        Delta E     Density RMS

   @RHF iter   1:   -68.97620367466500   -1.00215e+01   0.00000e+00  
	Occupation by irrep:
	         A1    A2    B1    B2 
	DOCC [     3,    0,    0,    2 ]
   @RHF iter   2:   -69.60114835126323   -6.24945e-01   4.85523e-01 DIIS
	Occupation by irrep:
	         A1    A2    B1    B2 
	DOCC [     3,    0,    1,    1 ]
   @RHF iter   3:   -75.79127292795684   -6.19012e+00   4.50609e-01 DIIS
   @RHF iter   4:   -75.97246448457939   -1.81192e-01   1.48460e-02 DIIS
   @RHF iter   5:   -75.98967210720507   -1.72076e-02   7.02443e-03 DIIS
   @RHF iter   6:   -75.99002381446908   -3.51707e-04   1.56015e-03 DIIS
   @RHF iter   7:   -75.99010152819905   -7.77137e-05   5.62221e-04 DIIS
   @RHF iter   8:   -75.99010389515625   -2.36696e-06   1.24519e-04 DIIS
   @RHF iter   9:   -75.99010405463385   -1.59478e-07   1.98559e-05 DIIS
   @RHF iter  10:   -75.99010405694300   -2.30915e-09   4.22280e-06 DIIS
   @RHF iter  11:   -75.99010405718091   -2.37918e-10   1.10944e-06 DIIS
   @RHF iter  12:   -75.99010405718788   -6.96332e-12   1.65215e-07 DIIS
   @RHF iter  13:   -75.99010405718796   -8.52651e-14   2.05614e-08 DIIS

  ==> Post-Iterations <==

	Orbital Energies (a.u.)
	-----------------------

	Doubly Occupied:                                                      

	   1A1   -20.576062     2A1    -1.278884     1B2    -0.627092  
	   3A1    -0.545440     1B1    -0.487446  

	Virtual:                                                              

	   4A1     0.157732     2B2     0.229110     3B2     0.699477  
	   5A1     0.751389     6A1     1.172048     2B1     1.185504  
	   4B2     1.270756     1A2     1.456034     7A1     1.456677  
	   3B1     1.650525     5B2     1.812087     8A1     1.889074  
	   6B2     2.147153     9A1     2.200355     4B1     3.179085  
	   2A2     3.204010    10A1     3.333145    11A1     3.713652  
	   7B2     3.992005  

	Final Occupation by Irrep:
	         A1    A2    B1    B2 
	DOCC [     3,    0,    1,    1 ]

  Energy converged.

  @RHF Final Energy:   -75.99010405718796

  ==> Properties <==

 OEPROP: One-electron properties/analyses.
  by Rob Parrish and Justin Turney.
  built on LIBMINTS.

 Dipole Moment: (a.u.)
     X:     0.0000      Y:     0.0000      Z:     0.8691     Total:     0.8691

 Dipole Moment: (Debye)
     X:     0.0000      Y:     0.0000      Z:     2.2090     Total:     2.2090


  Saving occupied orbitals to File 100.

*** tstop() called on ganymede-2.local at Wed Sep 28 16:20:03 2011
Module time:
	user time   =       0.20 seconds =       0.00 minutes
	system time =       0.02 seconds =       0.00 minutes
	total time  =          0 seconds =       0.00 minutes
Total time:
	user time   =       0.99 seconds =       0.02 minutes
	system time =       0.12 seconds =       0.00 minutes
	total time  =          1 seconds =       0.02 minutes
Setting geometry variable A to 104.000000

*** tstart() called on ganymede-2.local
*** at Wed Sep 28 16:20:03 2011

	There are an even number of electrons - assuming singlet.
	Specify the multiplicity with the MULTP option in the
	input if this is incorrect


         ---------------------------------------------------------
                                   SCF
            by Justin Turney, Rob Parrish, and Andy Simmonnett
                              RHF Reference
                        1 Threads,    256 MiB Core
         ---------------------------------------------------------

  ==> Geometry <==

    Molecular point group: c2v

    Geometry (in Angstrom), charge = 0, multiplicity = 1:

       Center              X                  Y                   Z       
    ------------   -----------------  -----------------  -----------------
           O          0.000000000000     0.000000000000    -0.075791843589
           H          0.000000000000    -0.866811828967     0.601435779270
           H          0.000000000000     0.866811828967     0.601435779270

    Number of unique atoms: 2

    Atoms equivalency:
       unique atom 0: 0 
       unique atom 1: 1 2 

  Running in c2v symmetry.

  Nuclear repulsion =    8.002367061810451

  Charge       = 0
  Multiplicity = 1
  Electrons    = 10
  Nalpha       = 5
  Nbeta        = 5

  ==> Algorithm <==

  SCF Algorithm Type is PK.
  DIIS enabled.
  MOM disabled.
  Guess Type is CORE.
  Energy threshold   = 1.00e-11
  Density threshold  = 1.00e-08
  Integral threshold = 0.00e+00

  ==> Primary Basis: CC-PVDZ <==

  Basis Set
    Number of shells: 12
    Number of basis function: 24
    Number of Cartesian functions: 25
    Spherical Harmonics?: true
    Max angular momentum: 2

  ==> Pre-Iterations <==

  Minimum eigenvalue in the overlap matrix is 4.6103798736E-02.
  Using Symmetric Orthogonalization.
  SCF Guess: Core (One-Electron) Hamiltonian.

  Initial RHF energy:   -58.95851497382994

   -------------------------------------------------------
    Irrep   Nso     Nmo     Nalpha   Nbeta   Ndocc  Nsocc
   -------------------------------------------------------
     A1        11      11       3       3       3       0
     A2         2       2       0       0       0       0
     B1         4       4       1       1       1       0
     B2         7       7       1       1       1       0
   -------------------------------------------------------
    Total      24      24       5       5       5       0
   -------------------------------------------------------

  ==> Integral Setup <==

 MINTS: Wrapper to libmints.
   by Justin Turney

   Calculation information:
      Number of atoms:                   3
      Number of AO shells:              12
      Number of SO shells:               9
      Number of primitives:             32
      Number of atomic orbitals:        25
      Number of basis functions:        24

      Number of irreps:                  4
      Number of functions per irrep: [  11    2    4    7 ]

      Computing integrals...done

      Computed 11412 non-zero integrals.

  ==> Iterations <==

                        Total Energy        Delta E     Density RMS

   @RHF iter   1:   -68.98003271945801   -1.00215e+01   0.00000e+00  
	Occupation by irrep:
	         A1    A2    B1    B2 
	DOCC [     3,    0,    0,    2 ]
   @RHF iter   2:   -69.64725463937184   -6.67222e-01   4.81743e-01 DIIS
	Occupation by irrep:
	         A1    A2    B1    B2 
	DOCC [     3,    0,    1,    1 ]
   @RHF iter   3:   -75.79192914585013   -6.14467e+00   4.46512e-01 DIIS
   @RHF iter   4:   -75.97218925969666   -1.80260e-01   1.47618e-02 DIIS
   @RHF iter   5:   -75.98936909295611   -1.71798e-02   6.99075e-03 DIIS
   @RHF iter   6:   -75.98971636936048   -3.47276e-04   1.53750e-03 DIIS
   @RHF iter   7:   -75.98979327422276   -7.69049e-05   5.61904e-04 DIIS
   @RHF iter   8:   -75.98979566003629   -2.38581e-06   1.25420e-04 DIIS
   @RHF iter   9:   -75.98979581716081   -1.57125e-07   1.98865e-05 DIIS
   @RHF iter  10:   -75.98979581965658   -2.49577e-09   4.41497e-06 DIIS
   @RHF iter  11:   -75.98979581991114   -2.54559e-10   1.15834e-06 DIIS
   @RHF iter  12:   -75.98979581991797   -6.83542e-12   1.58592e-07 DIIS
   @RHF iter  13:   -75.98979581991823   -2.55795e-13   2.00339e-08 DIIS

  ==> Post-Iterations <==

	Orbital Energies (a.u.)
	-----------------------

	Doubly Occupied:                                                      

	   1A1   -20.574752     2A1    -1.277566     1B2    -0.629911  
	   3A1    -0.541684     1B1    -0.486545  

	Virtual:                                                              

	   4A1     0.157621     2B2     0.229513     3B2     0.704679  
	   5A1     0.744562     6A1     1.170810     2B1     1.186420  
	   4B2     1.268027     1A2     1.450914     7A1     1.473927  
	   3B1     1.658468     5B2     1.804244     8A1     1.891430  
	   6B2     2.149116     9A1     2.200244     4B1     3.172600  
	   2A2     3.209688    10A1     3.328097    11A1     3.721355  
	   7B2     3.985473  

	Final Occupation by Irrep:
	         A1    A2    B1    B2 
	DOCC [     3,    0,    1,    1 ]

  Energy converged.

  @RHF Final Energy:   -75.98979581991823

  ==> Properties <==

 OEPROP: One-electron properties/analyses.
  by Rob Parrish and Justin Turney.
  built on LIBMINTS.

 Dipole Moment: (a.u.)
     X:     0.0000      Y:    -0.0000      Z:     0.8564     Total:     0.8564

 Dipole Moment: (Debye)
     X:     0.0000      Y:    -0.0000      Z:     2.1766     Total:     2.1766


  Saving occupied orbitals to File 100.

*** tstop() called on ganymede-2.local at Wed Sep 28 16:20:03 2011
Module time:
	user time   =       0.19 seconds =       0.00 minutes
	system time =       0.03 seconds =       0.00 minutes
	total time  =          0 seconds =       0.00 minutes
Total time:
	user time   =       1.18 seconds =       0.02 minutes
	system time =       0.15 seconds =       0.00 minutes
	total time  =          1 seconds =       0.02 minutes

*** PSI4 exiting successfully. Buy a developer a beer!
