    -----------------------------------------------------------------------
          PSI4: An Open-Source Ab Initio Electronic Structure Package
                              PSI 4.0.0-beta3+ Driver

               Git: Rev {master} ae646e4342aedfa6ec06bb2190a62ca091f44c23

    J. M. Turney, A. C. Simmonett, R. M. Parrish, E. G. Hohenstein,
    F. A. Evangelista, J. T. Fermann, B. J. Mintz, L. A. Burns, J. J. Wilke,
    M. L. Abrams, N. J. Russ, M. L. Leininger, C. L. Janssen, E. T. Seidl,
    W. D. Allen, H. F. Schaefer, R. A. King, E. F. Valeev, C. D. Sherrill,
    and T. D. Crawford, WIREs Comput. Mol. Sci., (2011) (doi: 10.1002/wcms.93)

                         Additional Contributions by
    A. E. DePrince, M. Saitow, U. Bozkaya, A. Yu. Sokolov
    -----------------------------------------------------------------------

    Process ID:  11643
    PSI4DATADIR: /home/ugur/psi4/lib

    Using LocalCommunicator (Number of processes = 1)

    Memory level set to 256.000 MB

  ==> Input File <==

--------------------------------------------------------------------------
#! SOS-OMP2 cc-pVDZ geometry optimization for the H2O molecule.

refnuc      =  9.12295422215394 #TEST
refscf      = -76.02621188217395 #TEST
refsosomp2  =  -76.21065070996092 #TEST

memory 250 mb

molecule h2o { 
0 1
o
h 1 0.958
h 1 0.958 2 104.4776 
}

set globals {
    basis cc-pvdz
}

thisenergy = optimize('sos-omp2')

compare_values(refnuc, get_variable("NUCLEAR REPULSION ENERGY"), 5, "Nuclear Repulsion Energy (a.u.)"); #TEST
compare_values(refscf, get_variable("SCF TOTAL ENERGY"), 6, "SCF Energy (a.u.)");             #TEST
compare_values(refsosomp2, thisenergy, 6, "SOS-OMP2 Total Energy (a.u.)");                #TEST

--------------------------------------------------------------------------

  Memory set to 250.000 MiB by Python script.

-------------------------------------------------------------

  Using finite-differences of energies to determine gradients (fd_geoms_1_0).
	Generating geometries for use with 3-point formula.
	Displacement size will be 5.00e-03.
	Number of atoms is 3.
	Number of symmetric SALC's is 2.
	Number of displacements (including reference) is 5.

-------------------------------------------------------------

  //>>>>>>>>>>>>>>>>>>>>>>>>>>>>>>>>>>>//
  //    Loading displacement 1 of 5    //
  //<<<<<<<<<<<<<<<<<<<<<<<<<<<<<<<<<<<//

*** tstart() called on bozkaya
*** at Thu Apr  4 17:23:38 2013


         ---------------------------------------------------------
                                   SCF
            by Justin Turney, Rob Parrish, and Andy Simmonett
                              RHF Reference
                        2 Threads,    250 MiB Core
         ---------------------------------------------------------

  ==> Geometry <==

    Molecular point group: c2v
    Full point group: C2v

    Geometry (in Angstrom), charge = 0, multiplicity = 1:

       Center              X                  Y                   Z       
    ------------   -----------------  -----------------  -----------------
           O          0.000000000000     0.000000000000    -0.065876429814
           H          0.000000000000    -0.757365949175     0.522753373248
           H          0.000000000000     0.757365949175     0.522753373248

  Running in c2v symmetry.

  Nuclear repulsion =    9.176216528241573

  Charge       = 0
  Multiplicity = 1
  Electrons    = 10
  Nalpha       = 5
  Nbeta        = 5

  ==> Algorithm <==

  SCF Algorithm Type is PK.
  DIIS enabled.
  MOM disabled.
  Fractional occupation disabled.
  Guess Type is CORE.
  Energy threshold   = 1.00e-10
  Density threshold  = 1.00e-10
  Integral threshold = 0.00e+00

  ==> Primary Basis <==

  Basis Set: CC-PVDZ
    Number of shells: 12
    Number of basis function: 24
    Number of Cartesian functions: 25
    Spherical Harmonics?: true
    Max angular momentum: 2

  ==> Pre-Iterations <==

   -------------------------------------------------------
    Irrep   Nso     Nmo     Nalpha   Nbeta   Ndocc  Nsocc
   -------------------------------------------------------
     A1        11      11       0       0       0       0
     A2         2       2       0       0       0       0
     B1         4       4       0       0       0       0
     B2         7       7       0       0       0       0
   -------------------------------------------------------
    Total      24      24       5       5       5       0
   -------------------------------------------------------

  ==> Integral Setup <==

 MINTS: Wrapper to libmints.
   by Justin Turney

   Calculation information:
      Number of atoms:                   3
      Number of AO shells:              12
      Number of SO shells:               9
      Number of primitives:             32
      Number of atomic orbitals:        25
      Number of basis functions:        24

      Number of irreps:                  4
      Number of functions per irrep: [  11    2    4    7 ]

      Overlap, kinetic, potential, dipole, and quadrupole integrals
        stored in file 35.

      Computing two-electron integrals...done
      Computed 11412 non-zero two-electron integrals.
        Stored in file 33.

	Batch   1 pq = [       0,     107] index = [             0,5778]
  ==> DiskJK: Disk-Based J/K Matrices <==

    J tasked:                  Yes
    K tasked:                  Yes
    wK tasked:                  No
    Memory (MB):               178
    Schwarz Cutoff:          0E+00

  Minimum eigenvalue in the overlap matrix is 3.4290529808E-02.
  Using Symmetric Orthogonalization.
  SCF Guess: Core (One-Electron) Hamiltonian.

  Guess energy:   -58.56673721379699

  ==> Iterations <==

                        Total Energy        Delta E     RMS |[F,P]|

	Occupation by irrep:
	         A1    A2    B1    B2 
	DOCC [     3,    0,    0,    2 ]

   @RHF iter   1:   -68.87530042671625   -6.88753e+01   2.25028e-01 
	Occupation by irrep:
	         A1    A2    B1    B2 
	DOCC [     3,    0,    1,    1 ]

   @RHF iter   2:   -69.94446686337683   -1.06917e+00   1.84024e-01 DIIS
   @RHF iter   3:   -75.73783639818237   -5.79337e+00   6.31794e-02 DIIS
   @RHF iter   4:   -76.00168054818428   -2.63844e-01   1.71256e-02 DIIS
   @RHF iter   5:   -76.02641418178976   -2.47336e-02   1.54054e-03 DIIS
   @RHF iter   6:   -76.02665824391690   -2.44062e-04   6.82350e-04 DIIS
   @RHF iter   7:   -76.02669886242928   -4.06185e-05   9.55251e-05 DIIS
   @RHF iter   8:   -76.02670047165799   -1.60923e-06   3.21325e-05 DIIS
   @RHF iter   9:   -76.02670056103464   -8.93767e-08   1.84624e-06 DIIS
   @RHF iter  10:   -76.02670056176768   -7.33039e-10   6.62174e-07 DIIS
   @RHF iter  11:   -76.02670056181562   -4.79332e-11   1.18410e-07 DIIS
   @RHF iter  12:   -76.02670056181702   -1.40687e-12   8.46377e-09 DIIS
   @RHF iter  13:   -76.02670056181707   -4.26326e-14   9.42484e-10 DIIS
   @RHF iter  14:   -76.02670056181695    1.13687e-13   1.24342e-10 DIIS
   @RHF iter  15:   -76.02670056181698   -2.84217e-14   7.84402e-12 DIIS

  ==> Post-Iterations <==

	Orbital Energies (a.u.)
	-----------------------

	Doubly Occupied:                                                      

	   1A1   -20.550896     2A1    -1.335870     1B2    -0.697823  
	   3A1    -0.566665     1B1    -0.493087  

	Virtual:                                                              

	   4A1     0.185194     2B2     0.255990     3B2     0.787146  
	   5A1     0.853489     6A1     1.163816     2B1     1.200307  
	   4B2     1.253651     7A1     1.442872     1A2     1.476480  
	   3B1     1.673065     8A1     1.867229     5B2     1.934052  
	   6B2     2.447662     9A1     2.485889     4B1     3.285102  
	   2A2     3.336145    10A1     3.508943    11A1     3.862022  
	   7B2     4.146561  

	Final Occupation by Irrep:
	         A1    A2    B1    B2 
	DOCC [     3,    0,    1,    1 ]

  Energy converged.

  @RHF Final Energy:   -76.02670056181698

   => Energetics <=

    Nuclear Repulsion Energy =              9.1762165282415733
    One-Electron Energy =                -123.1171522170087371
    Two-Electron Energy =                  37.9142351269501816
    DFT Exchange-Correlation Energy =       0.0000000000000000
    Empirical Dispersion Energy =           0.0000000000000000
    Total Energy =                        -76.0267005618169947



Properties will be evaluated at   0.000000,   0.000000,   0.000000 Bohr
  ==> Properties <==


Properties computed using the SCF density density matrix
  Nuclear Dipole Moment: (a.u.)
     X:     0.0000      Y:     0.0000      Z:     0.9798

  Electronic Dipole Moment: (a.u.)
     X:     0.0000      Y:     0.0000      Z:    -0.1687

  Dipole Moment: (a.u.)
     X:     0.0000      Y:     0.0000      Z:     0.8111     Total:     0.8111

  Dipole Moment: (Debye)
     X:     0.0000      Y:     0.0000      Z:     2.0616     Total:     2.0616


  Saving occupied orbitals to File 180.

*** tstop() called on bozkaya at Thu Apr  4 17:23:38 2013
Module time:
	user time   =       0.15 seconds =       0.00 minutes
	system time =       0.01 seconds =       0.00 minutes
	total time  =          0 seconds =       0.00 minutes
Total time:
	user time   =       0.15 seconds =       0.00 minutes
	system time =       0.01 seconds =       0.00 minutes
	total time  =          0 seconds =       0.00 minutes

*** tstart() called on bozkaya
*** at Thu Apr  4 17:23:38 2013



  Options:
  ----------------------------------------------------------------------------
  BENCH                  => 0                
  CACHELEVEL             => 2                
  CCL_ENERGY             => FALSE            
  CC_DIIS_MAX_VECS       => 6                
  CC_DIIS_MIN_VECS       => 2                
  CC_MAXITER             => 50               
  CEPA_OS_SCALE          => 1.27             
  CEPA_SOS_SCALE         => 1.3              
  CEPA_SS_SCALE          => 1.13             
  CEPA_TYPE              => CEPA0            
  CUTOFF                 => 14               
  DEBUG                  => 0                
  DERTYPE                => NONE             
  DIE_IF_NOT_CONVERGED   => TRUE             
  DOCC                   => [  ]             
  DO_DIIS                => TRUE             
  DO_LEVEL_SHIFT         => TRUE             
  DO_SCS                 => FALSE            
  DO_SOS                 => TRUE            !
  E3_SCALE               => 0.25             
  EA_POLES               => FALSE            
  EKT_EA                 => FALSE            
  EKT_IP                 => FALSE            
  EP_EA_POLES            => FALSE            
  EP_IP_POLES            => FALSE            
  EP_MAXITER             => 30               
  E_CONVERGENCE          => 1e-08           !
  FREEZE_CORE            => FALSE            
  FROZEN_DOCC            => [  ]             
  FROZEN_UOCC            => [  ]             
  IP_POLES               => FALSE            
  LEVEL_SHIFT            => 0.02             
  LINEQ_SOLVER           => CDGESV           
  MAT_NUM_COLUMN_PRINT   => 5                
  MAX_MOGRAD_CONVERGENCE => 0.001            
  MOGRAD_DAMPING         => 1                
  MO_DIIS_NUM_VECS       => 6                
  MO_MAXITER             => 50               
  MO_READ                => FALSE            
  MO_STEP_MAX            => 0.5              
  MO_WRITE               => FALSE            
  MP2_OS_SCALE           => 1.2              
  MP2_SOS_SCALE          => 1.3              
  MP2_SOS_SCALE2         => 1.2              
  MP2_SS_SCALE           => 0.333333         
  MP2_TYPE               => DF               
  NAT_ORBS               => FALSE            
  NUM_FROZEN_DOCC        => 0                
  NUM_FROZEN_UOCC        => 0                
  OCC_ORBS_PRINT         => FALSE            
  OPT_METHOD             => ORB_RESP         
  ORB_OPT                => TRUE             
  ORB_RESP_SOLVER        => PCG              
  ORTH_TYPE              => MGS              
  PCG_BETA_TYPE          => FLETCHER_REEVES  
  PCG_CONVERGENCE        => 1e-06            
  PCG_MAXITER            => 30               
  PRINT                  => 1                
  PROPERTIES             => [  ]             
  PROPERTIES_ORIGIN      => [  ]             
  PUREAM                 => TRUE             
  RMS_MOGRAD_CONVERGENCE => 1e-06            
  R_CONVERGENCE          => 1e-05            
  SCS_TYPE               => SCS              
  SOCC                   => [  ]             
  SOS_TYPE               => SOS             !
  TPDM_ABCD_TYPE         => DIRECT           
  UNITS                  => ANGSTROMS        
  WFN                    => SCF              
  WFN_TYPE               => OMP2             
  WRITER_FILE_LABEL      => (empty)          


 ============================================================================== 
 ============================================================================== 
 ============================================================================== 

                       OMP2 (OO-MP2)   
              Program Written by Ugur Bozkaya,
              Latest Revision April 4, 2013.

 ============================================================================== 
 ============================================================================== 
 ============================================================================== 

	MO spaces per irreps... 

	IRREP   FC    OCC   VIR  FV 
	==============================
	  A1     0     3     8    0
	  A2     0     0     2    0
	  B1     0     1     3    0
	  B2     0     1     6    0
	==============================

	Memory is    250 MB 
	Cost of iabc is      0 MB 
	Cost of abcd is      0 MB 
	Switching to the incore algoritm for iabc..
	Switching to the incore algoritm for abcd..

	Computing MP2 energy using SCF MOs (Canonical MP2)... 
	============================================================================== 
	Nuclear Repulsion Energy (a.u.)    :     9.17621652824157
	SCF Energy (a.u.)                  :   -76.02670056181698
	REF Energy (a.u.)                  :   -76.02670056181704
	Alpha-Alpha Contribution (a.u.)    :    -0.02577417806780
	Alpha-Beta Contribution (a.u.)     :    -0.15257320432411
	Beta-Beta Contribution (a.u.)      :    -0.02577417806780
	Scaled_SS Correlation Energy (a.u.):    -0.01718278537853
	Scaled_OS Correlation Energy (a.u.):    -0.18308784518893
	SCS-MP2 Total Energy (a.u.)        :   -76.22697119238451
	SOS-MP2 Total Energy (a.u.)        :   -76.22504572743838
	SCSN-MP2 Total Energy (a.u.)       :   -76.11742566861570
	SCS-MI-MP2 Total Energy (a.u.)     :   -76.15422722296161
	SCS-MP2-VDW Total Energy (a.u.)    :   -76.24776844141969
	SOS-PI-MP2 Total Energy (a.u.)     :   -76.24030304787080
	MP2 Correlation Energy (a.u.)      :    -0.20412156045971
	MP2 Total Energy (a.u.)            :   -76.23082212227675
	============================================================================== 

	Number of independent-pairs:  33

 ============================================================================== 
 ================ Performing OMP2 iterations... =============================== 
 ============================================================================== 
	            Minimizing MP2-L Functional 
	            --------------------------- 
 Iter       E_total           DE           RMS MO Grad      MAX MO Grad      RMS T2    
 ----    ---------------    ----------     -----------      -----------     ---------- 
   1     -76.2317215667     -8.99e-04       5.88e-05         7.24e-04        6.11e-05 
   2     -76.2317231546     -1.59e-06       4.64e-06         6.31e-05        4.17e-06 
   3     -76.2317231659     -1.13e-08       3.74e-07         8.63e-06        3.76e-07 

 ============================================================================== 
 ======================== OMP2 ITERATIONS ARE CONVERGED ======================= 
 ============================================================================== 

	Orbitals are optimized now.
	Switching to the standard MP2 computation after semicanonicalization of the MOs... 

	Computing MP2 energy using optimized MOs... 
	============================================================================== 
	Nuclear Repulsion Energy (a.u.)    :     9.17621652824157
	SCF Energy (a.u.)                  :   -76.02670056181698
	REF Energy (a.u.)                  :   -76.02577638401749
	Alpha-Alpha Contribution (a.u.)    :    -0.02601006513810
	Alpha-Beta Contribution (a.u.)     :    -0.15392665162251
	Beta-Beta Contribution (a.u.)      :    -0.02601006513810
	Scaled_SS Correlation Energy (a.u.):    -0.01734004342540
	Scaled_OS Correlation Energy (a.u.):    -0.18471198194701
	SCS-MP2 Total Energy (a.u.)        :   -76.22782840938991
	SOS-MP2 Total Energy (a.u.)        :   -76.21048836596451
	SCSN-MP2 Total Energy (a.u.)       :   -76.11733181330359
	SCS-MI-MP2 Total Energy (a.u.)     :   -76.15445301272280
	SCS-MP2-VDW Total Energy (a.u.)    :   -76.24881256323241
	SOS-PI-MP2 Total Energy (a.u.)     :   -76.24127369628900
	MP2 Correlation Energy (a.u.)      :    -0.20594678189871
	MP2 Total Energy (a.u.)            :   -76.23172316591619
	============================================================================== 

	============================================================================== 
	================ OMP2 FINAL RESULTS ========================================== 
	============================================================================== 
	Nuclear Repulsion Energy (a.u.)    :     9.17621652824157
	SCF Energy (a.u.)                  :   -76.02670056181698
	REF Energy (a.u.)                  :   -76.02577638401749
	SCS-OMP2 Total Energy (a.u.)       :   -76.22782840938991
	SOS-OMP2 Total Energy (a.u.)       :   -76.21048836596451
	SCSN-OMP2 Total Energy (a.u.)      :   -76.11733181330359
	SCS-MI-OMP2 Total Energy (a.u.)    :   -76.15445301272280
	SCS-OMP2-VDW Total Energy (a.u.)   :   -76.24881256323241
	SOS-PI-OMP2 Total Energy (a.u.)    :   -76.24127369628900
	OMP2 Correlation Energy (a.u.)     :    -0.20502260409921
	Eomp2 - Eref (a.u.)                :    -0.20594678189870
	OMP2 Total Energy (a.u.)           :   -76.23172316591619
	============================================================================== 


*** tstop() called on bozkaya at Thu Apr  4 17:23:38 2013
Module time:
	user time   =       0.08 seconds =       0.00 minutes
	system time =       0.04 seconds =       0.00 minutes
	total time  =          0 seconds =       0.00 minutes
Total time:
	user time   =       0.23 seconds =       0.00 minutes
	system time =       0.05 seconds =       0.00 minutes
	total time  =          0 seconds =       0.00 minutes

  //>>>>>>>>>>>>>>>>>>>>>>>>>>>>>>>>>>>//
  //    Loading displacement 2 of 5    //
  //<<<<<<<<<<<<<<<<<<<<<<<<<<<<<<<<<<<//

*** tstart() called on bozkaya
*** at Thu Apr  4 17:23:38 2013


         ---------------------------------------------------------
                                   SCF
            by Justin Turney, Rob Parrish, and Andy Simmonett
                              RHF Reference
                        2 Threads,    250 MiB Core
         ---------------------------------------------------------

  ==> Geometry <==

    Molecular point group: c2v
    Full point group: C2v

    Geometry (in Angstrom), charge = 0, multiplicity = 1:

       Center              X                  Y                   Z       
    ------------   -----------------  -----------------  -----------------
           O          0.000000000000     0.000000000000    -0.065433786334
           H          0.000000000000    -0.757365949175     0.519240836625
           H          0.000000000000     0.757365949175     0.519240836625

  Running in c2v symmetry.

  Nuclear repulsion =    9.198561022178442

  Charge       = 0
  Multiplicity = 1
  Electrons    = 10
  Nalpha       = 5
  Nbeta        = 5

  ==> Algorithm <==

  SCF Algorithm Type is PK.
  DIIS enabled.
  MOM disabled.
  Fractional occupation disabled.
  Guess Type is CORE.
  Energy threshold   = 1.00e-10
  Density threshold  = 1.00e-10
  Integral threshold = 0.00e+00

  ==> Primary Basis <==

  Basis Set: CC-PVDZ
    Number of shells: 12
    Number of basis function: 24
    Number of Cartesian functions: 25
    Spherical Harmonics?: true
    Max angular momentum: 2

  ==> Pre-Iterations <==

   -------------------------------------------------------
    Irrep   Nso     Nmo     Nalpha   Nbeta   Ndocc  Nsocc
   -------------------------------------------------------
     A1        11      11       0       0       0       0
     A2         2       2       0       0       0       0
     B1         4       4       0       0       0       0
     B2         7       7       0       0       0       0
   -------------------------------------------------------
    Total      24      24       5       5       5       0
   -------------------------------------------------------

  ==> Integral Setup <==

 MINTS: Wrapper to libmints.
   by Justin Turney

   Calculation information:
      Number of atoms:                   3
      Number of AO shells:              12
      Number of SO shells:               9
      Number of primitives:             32
      Number of atomic orbitals:        25
      Number of basis functions:        24

      Number of irreps:                  4
      Number of functions per irrep: [  11    2    4    7 ]

      Overlap, kinetic, potential, dipole, and quadrupole integrals
        stored in file 35.

      Computing two-electron integrals...done
      Computed 11412 non-zero two-electron integrals.
        Stored in file 33.

	Batch   1 pq = [       0,     107] index = [             0,5778]
  ==> DiskJK: Disk-Based J/K Matrices <==

    J tasked:                  Yes
    K tasked:                  Yes
    wK tasked:                  No
    Memory (MB):               178
    Schwarz Cutoff:          0E+00

  Minimum eigenvalue in the overlap matrix is 3.4171514487E-02.
  Using Symmetric Orthogonalization.
  SCF Guess: Core (One-Electron) Hamiltonian.

  Guess energy:   -58.55990348127790

  ==> Iterations <==

                        Total Energy        Delta E     RMS |[F,P]|

	Occupation by irrep:
	         A1    A2    B1    B2 
	DOCC [     3,    0,    0,    2 ]

   @RHF iter   1:   -68.87298297510877   -6.88730e+01   2.25507e-01 
	Occupation by irrep:
	         A1    A2    B1    B2 
	DOCC [     3,    0,    1,    1 ]

   @RHF iter   2:   -69.95472788586802   -1.08174e+00   1.83851e-01 DIIS
   @RHF iter   3:   -75.73599188894879   -5.78126e+00   6.34334e-02 DIIS
   @RHF iter   4:   -76.00162437664055   -2.65632e-01   1.72092e-02 DIIS
   @RHF iter   5:   -76.02653041463012   -2.49060e-02   1.54561e-03 DIIS
   @RHF iter   6:   -76.02677274047410   -2.42326e-04   6.78042e-04 DIIS
   @RHF iter   7:   -76.02681279886795   -4.00584e-05   9.51904e-05 DIIS
   @RHF iter   8:   -76.02681439130157   -1.59243e-06   3.18934e-05 DIIS
   @RHF iter   9:   -76.02681447969037   -8.83888e-08   1.84163e-06 DIIS
   @RHF iter  10:   -76.02681448042222   -7.31845e-10   6.58999e-07 DIIS
   @RHF iter  11:   -76.02681448046967   -4.74500e-11   1.17584e-07 DIIS
   @RHF iter  12:   -76.02681448047099   -1.32161e-12   8.29373e-09 DIIS
   @RHF iter  13:   -76.02681448047100   -1.42109e-14   9.35958e-10 DIIS
   @RHF iter  14:   -76.02681448047103   -2.84217e-14   1.22834e-10 DIIS
   @RHF iter  15:   -76.02681448047097    5.68434e-14   7.71882e-12 DIIS

  ==> Post-Iterations <==

	Orbital Energies (a.u.)
	-----------------------

	Doubly Occupied:                                                      

	   1A1   -20.550262     2A1    -1.336801     1B2    -0.699832  
	   3A1    -0.566346     1B1    -0.493124  

	Virtual:                                                              

	   4A1     0.185677     2B2     0.256301     3B2     0.790173  
	   5A1     0.854072     6A1     1.163360     2B1     1.200429  
	   4B2     1.253117     7A1     1.445910     1A2     1.475884  
	   3B1     1.675618     8A1     1.867542     5B2     1.934529  
	   6B2     2.454433     9A1     2.491280     4B1     3.285272  
	   2A2     3.339964    10A1     3.510456    11A1     3.867653  
	   7B2     4.147153  

	Final Occupation by Irrep:
	         A1    A2    B1    B2 
	DOCC [     3,    0,    1,    1 ]

  Energy converged.

  @RHF Final Energy:   -76.02681448047097

   => Energetics <=

    Nuclear Repulsion Energy =              9.1985610221784420
    One-Electron Energy =                -123.1580210634542141
    Two-Electron Energy =                  37.9326455608047723
    DFT Exchange-Correlation Energy =       0.0000000000000000
    Empirical Dispersion Energy =           0.0000000000000000
    Total Energy =                        -76.0268144804710033



Properties will be evaluated at   0.000000,   0.000000,   0.000000 Bohr
  ==> Properties <==


Properties computed using the SCF density density matrix
  Nuclear Dipole Moment: (a.u.)
     X:     0.0000      Y:     0.0000      Z:     0.9732

  Electronic Dipole Moment: (a.u.)
     X:     0.0000      Y:     0.0000      Z:    -0.1653

  Dipole Moment: (a.u.)
     X:     0.0000      Y:     0.0000      Z:     0.8079     Total:     0.8079

  Dipole Moment: (Debye)
     X:     0.0000      Y:     0.0000      Z:     2.0536     Total:     2.0536


  Saving occupied orbitals to File 180.

*** tstop() called on bozkaya at Thu Apr  4 17:23:38 2013
Module time:
	user time   =       0.15 seconds =       0.00 minutes
	system time =       0.00 seconds =       0.00 minutes
	total time  =          0 seconds =       0.00 minutes
Total time:
	user time   =       0.40 seconds =       0.01 minutes
	system time =       0.05 seconds =       0.00 minutes
	total time  =          0 seconds =       0.00 minutes

*** tstart() called on bozkaya
*** at Thu Apr  4 17:23:38 2013



  Options:
  ----------------------------------------------------------------------------
  BENCH                  => 0                
  CACHELEVEL             => 2                
  CCL_ENERGY             => FALSE            
  CC_DIIS_MAX_VECS       => 6                
  CC_DIIS_MIN_VECS       => 2                
  CC_MAXITER             => 50               
  CEPA_OS_SCALE          => 1.27             
  CEPA_SOS_SCALE         => 1.3              
  CEPA_SS_SCALE          => 1.13             
  CEPA_TYPE              => CEPA0            
  CUTOFF                 => 14               
  DEBUG                  => 0                
  DERTYPE                => NONE             
  DIE_IF_NOT_CONVERGED   => TRUE             
  DOCC                   => [  ]             
  DO_DIIS                => TRUE             
  DO_LEVEL_SHIFT         => TRUE             
  DO_SCS                 => FALSE            
  DO_SOS                 => TRUE            !
  E3_SCALE               => 0.25             
  EA_POLES               => FALSE            
  EKT_EA                 => FALSE            
  EKT_IP                 => FALSE            
  EP_EA_POLES            => FALSE            
  EP_IP_POLES            => FALSE            
  EP_MAXITER             => 30               
  E_CONVERGENCE          => 1e-08           !
  FREEZE_CORE            => FALSE            
  FROZEN_DOCC            => [  ]             
  FROZEN_UOCC            => [  ]             
  IP_POLES               => FALSE            
  LEVEL_SHIFT            => 0.02             
  LINEQ_SOLVER           => CDGESV           
  MAT_NUM_COLUMN_PRINT   => 5                
  MAX_MOGRAD_CONVERGENCE => 0.001            
  MOGRAD_DAMPING         => 1                
  MO_DIIS_NUM_VECS       => 6                
  MO_MAXITER             => 50               
  MO_READ                => FALSE            
  MO_STEP_MAX            => 0.5              
  MO_WRITE               => FALSE            
  MP2_OS_SCALE           => 1.2              
  MP2_SOS_SCALE          => 1.3              
  MP2_SOS_SCALE2         => 1.2              
  MP2_SS_SCALE           => 0.333333         
  MP2_TYPE               => DF               
  NAT_ORBS               => FALSE            
  NUM_FROZEN_DOCC        => 0                
  NUM_FROZEN_UOCC        => 0                
  OCC_ORBS_PRINT         => FALSE            
  OPT_METHOD             => ORB_RESP         
  ORB_OPT                => TRUE             
  ORB_RESP_SOLVER        => PCG              
  ORTH_TYPE              => MGS              
  PCG_BETA_TYPE          => FLETCHER_REEVES  
  PCG_CONVERGENCE        => 1e-06            
  PCG_MAXITER            => 30               
  PRINT                  => 1                
  PROPERTIES             => [  ]             
  PROPERTIES_ORIGIN      => [  ]             
  PUREAM                 => TRUE             
  RMS_MOGRAD_CONVERGENCE => 1e-06            
  R_CONVERGENCE          => 1e-05            
  SCS_TYPE               => SCS              
  SOCC                   => [  ]             
  SOS_TYPE               => SOS             !
  TPDM_ABCD_TYPE         => DIRECT           
  UNITS                  => ANGSTROMS        
  WFN                    => SCF              
  WFN_TYPE               => OMP2             
  WRITER_FILE_LABEL      => (empty)          


 ============================================================================== 
 ============================================================================== 
 ============================================================================== 

                       OMP2 (OO-MP2)   
              Program Written by Ugur Bozkaya,
              Latest Revision April 4, 2013.

 ============================================================================== 
 ============================================================================== 
 ============================================================================== 

	MO spaces per irreps... 

	IRREP   FC    OCC   VIR  FV 
	==============================
	  A1     0     3     8    0
	  A2     0     0     2    0
	  B1     0     1     3    0
	  B2     0     1     6    0
	==============================

	Memory is    250 MB 
	Cost of iabc is      0 MB 
	Cost of abcd is      0 MB 
	Switching to the incore algoritm for iabc..
	Switching to the incore algoritm for abcd..

	Computing MP2 energy using SCF MOs (Canonical MP2)... 
	============================================================================== 
	Nuclear Repulsion Energy (a.u.)    :     9.19856102217844
	SCF Energy (a.u.)                  :   -76.02681448047097
	REF Energy (a.u.)                  :   -76.02681448047100
	Alpha-Alpha Contribution (a.u.)    :    -0.02575591388468
	Alpha-Beta Contribution (a.u.)     :    -0.15240556207827
	Beta-Beta Contribution (a.u.)      :    -0.02575591388468
	Scaled_SS Correlation Energy (a.u.):    -0.01717060925645
	Scaled_OS Correlation Energy (a.u.):    -0.18288667449392
	SCS-MP2 Total Energy (a.u.)        :   -76.22687176422139
	SOS-MP2 Total Energy (a.u.)        :   -76.22494171117275
	SCSN-MP2 Total Energy (a.u.)       :   -76.11747529734508
	SCS-MI-MP2 Total Energy (a.u.)     :   -76.15422696312480
	SCS-MP2-VDW Total Energy (a.u.)    :   -76.24764951381586
	SOS-PI-MP2 Total Energy (a.u.)     :   -76.24018226738058
	MP2 Correlation Energy (a.u.)      :    -0.20391738984763
	MP2 Total Energy (a.u.)            :   -76.23073187031864
	============================================================================== 

	Number of independent-pairs:  33

 ============================================================================== 
 ================ Performing OMP2 iterations... =============================== 
 ============================================================================== 
	            Minimizing MP2-L Functional 
	            --------------------------- 
 Iter       E_total           DE           RMS MO Grad      MAX MO Grad      RMS T2    
 ----    ---------------    ----------     -----------      -----------     ---------- 
   1     -76.2316206304     -8.89e-04       5.80e-05         7.10e-04        6.05e-05 
   2     -76.2316221729     -1.54e-06       4.55e-06         6.20e-05        4.09e-06 
   3     -76.2316221838     -1.09e-08       3.66e-07         8.47e-06        3.67e-07 

 ============================================================================== 
 ======================== OMP2 ITERATIONS ARE CONVERGED ======================= 
 ============================================================================== 

	Orbitals are optimized now.
	Switching to the standard MP2 computation after semicanonicalization of the MOs... 

	Computing MP2 energy using optimized MOs... 
	============================================================================== 
	Nuclear Repulsion Energy (a.u.)    :     9.19856102217844
	SCF Energy (a.u.)                  :   -76.02681448047097
	REF Energy (a.u.)                  :   -76.02590148117410
	Alpha-Alpha Contribution (a.u.)    :    -0.02598917680233
	Alpha-Beta Contribution (a.u.)     :    -0.15374234900270
	Beta-Beta Contribution (a.u.)      :    -0.02598917680233
	Scaled_SS Correlation Energy (a.u.):    -0.01732611786822
	Scaled_OS Correlation Energy (a.u.):    -0.18449081880325
	SCS-MP2 Total Energy (a.u.)        :   -76.22771841784555
	SOS-MP2 Total Energy (a.u.)        :   -76.21039229997734
	SCSN-MP2 Total Energy (a.u.)       :   -76.11738338351832
	SCS-MI-MP2 Total Energy (a.u.)     :   -76.15445049692521
	SCS-MP2-VDW Total Energy (a.u.)    :   -76.24868086469991
	SOS-PI-MP2 Total Energy (a.u.)     :   -76.24114076977789
	MP2 Correlation Energy (a.u.)      :    -0.20572070260736
	MP2 Total Energy (a.u.)            :   -76.23162218378147
	============================================================================== 

	============================================================================== 
	================ OMP2 FINAL RESULTS ========================================== 
	============================================================================== 
	Nuclear Repulsion Energy (a.u.)    :     9.19856102217844
	SCF Energy (a.u.)                  :   -76.02681448047097
	REF Energy (a.u.)                  :   -76.02590148117410
	SCS-OMP2 Total Energy (a.u.)       :   -76.22771841784555
	SOS-OMP2 Total Energy (a.u.)       :   -76.21039229997734
	SCSN-OMP2 Total Energy (a.u.)      :   -76.11738338351832
	SCS-MI-OMP2 Total Energy (a.u.)    :   -76.15445049692521
	SCS-OMP2-VDW Total Energy (a.u.)   :   -76.24868086469991
	SOS-PI-OMP2 Total Energy (a.u.)    :   -76.24114076977789
	OMP2 Correlation Energy (a.u.)     :    -0.20480770331049
	Eomp2 - Eref (a.u.)                :    -0.20572070260737
	OMP2 Total Energy (a.u.)           :   -76.23162218378147
	============================================================================== 


*** tstop() called on bozkaya at Thu Apr  4 17:23:38 2013
Module time:
	user time   =       0.09 seconds =       0.00 minutes
	system time =       0.04 seconds =       0.00 minutes
	total time  =          0 seconds =       0.00 minutes
Total time:
	user time   =       0.49 seconds =       0.01 minutes
	system time =       0.09 seconds =       0.00 minutes
	total time  =          0 seconds =       0.00 minutes

  //>>>>>>>>>>>>>>>>>>>>>>>>>>>>>>>>>>>//
  //    Loading displacement 3 of 5    //
  //<<<<<<<<<<<<<<<<<<<<<<<<<<<<<<<<<<<//

*** tstart() called on bozkaya
*** at Thu Apr  4 17:23:38 2013


         ---------------------------------------------------------
                                   SCF
            by Justin Turney, Rob Parrish, and Andy Simmonett
                              RHF Reference
                        2 Threads,    250 MiB Core
         ---------------------------------------------------------

  ==> Geometry <==

    Molecular point group: c2v
    Full point group: C2v

    Geometry (in Angstrom), charge = 0, multiplicity = 1:

       Center              X                  Y                   Z       
    ------------   -----------------  -----------------  -----------------
           O          0.000000000000     0.000000000000    -0.065655108074
           H          0.000000000000    -0.759229595800     0.520997104936
           H          0.000000000000     0.759229595800     0.520997104936

  Running in c2v symmetry.

  Nuclear repulsion =    9.172951177761906

  Charge       = 0
  Multiplicity = 1
  Electrons    = 10
  Nalpha       = 5
  Nbeta        = 5

  ==> Algorithm <==

  SCF Algorithm Type is PK.
  DIIS enabled.
  MOM disabled.
  Fractional occupation disabled.
  Guess Type is CORE.
  Energy threshold   = 1.00e-10
  Density threshold  = 1.00e-10
  Integral threshold = 0.00e+00

  ==> Primary Basis <==

  Basis Set: CC-PVDZ
    Number of shells: 12
    Number of basis function: 24
    Number of Cartesian functions: 25
    Spherical Harmonics?: true
    Max angular momentum: 2

  ==> Pre-Iterations <==

   -------------------------------------------------------
    Irrep   Nso     Nmo     Nalpha   Nbeta   Ndocc  Nsocc
   -------------------------------------------------------
     A1        11      11       0       0       0       0
     A2         2       2       0       0       0       0
     B1         4       4       0       0       0       0
     B2         7       7       0       0       0       0
   -------------------------------------------------------
    Total      24      24       5       5       5       0
   -------------------------------------------------------

  ==> Integral Setup <==

 MINTS: Wrapper to libmints.
   by Justin Turney

   Calculation information:
      Number of atoms:                   3
      Number of AO shells:              12
      Number of SO shells:               9
      Number of primitives:             32
      Number of atomic orbitals:        25
      Number of basis functions:        24

      Number of irreps:                  4
      Number of functions per irrep: [  11    2    4    7 ]

      Overlap, kinetic, potential, dipole, and quadrupole integrals
        stored in file 35.

      Computing two-electron integrals...done
      Computed 11412 non-zero two-electron integrals.
        Stored in file 33.

	Batch   1 pq = [       0,     107] index = [             0,5778]
  ==> DiskJK: Disk-Based J/K Matrices <==

    J tasked:                  Yes
    K tasked:                  Yes
    wK tasked:                  No
    Memory (MB):               178
    Schwarz Cutoff:          0E+00

  Minimum eigenvalue in the overlap matrix is 3.4356020169E-02.
  Using Symmetric Orthogonalization.
  SCF Guess: Core (One-Electron) Hamiltonian.

  Guess energy:   -58.56813689475739

  ==> Iterations <==

                        Total Energy        Delta E     RMS |[F,P]|

	Occupation by irrep:
	         A1    A2    B1    B2 
	DOCC [     3,    0,    0,    2 ]

   @RHF iter   1:   -68.87646756129799   -6.88765e+01   2.24959e-01 
	Occupation by irrep:
	         A1    A2    B1    B2 
	DOCC [     3,    0,    1,    1 ]

   @RHF iter   2:   -69.94971359503486   -1.07325e+00   1.83942e-01 DIIS
   @RHF iter   3:   -75.73811557981990   -5.78840e+00   6.31464e-02 DIIS
   @RHF iter   4:   -76.00168139123032   -2.63566e-01   1.71200e-02 DIIS
   @RHF iter   5:   -76.02639476968203   -2.47134e-02   1.54125e-03 DIIS
   @RHF iter   6:   -76.02663850414234   -2.43734e-04   6.81916e-04 DIIS
   @RHF iter   7:   -76.02667909594284   -4.05918e-05   9.55196e-05 DIIS
   @RHF iter   8:   -76.02668070805127   -1.61211e-06   3.21087e-05 DIIS
   @RHF iter   9:   -76.02668079746064   -8.94094e-08   1.86204e-06 DIIS
   @RHF iter  10:   -76.02668079821098   -7.50333e-10   6.68145e-07 DIIS
   @RHF iter  11:   -76.02668079825985   -4.88711e-11   1.19784e-07 DIIS
   @RHF iter  12:   -76.02668079826132   -1.47793e-12   8.45409e-09 DIIS
   @RHF iter  13:   -76.02668079826124    8.52651e-14   9.44492e-10 DIIS
   @RHF iter  14:   -76.02668079826125   -1.42109e-14   1.24229e-10 DIIS
   @RHF iter  15:   -76.02668079826127   -1.42109e-14   7.79639e-12 DIIS

  ==> Post-Iterations <==

	Orbital Energies (a.u.)
	-----------------------

	Doubly Occupied:                                                      

	   1A1   -20.550763     2A1    -1.335479     1B2    -0.698296  
	   3A1    -0.565954     1B1    -0.492950  

	Virtual:                                                              

	   4A1     0.185214     2B2     0.255914     3B2     0.788069  
	   5A1     0.851773     6A1     1.163587     2B1     1.200389  
	   4B2     1.253328     7A1     1.445873     1A2     1.475352  
	   3B1     1.674815     8A1     1.868000     5B2     1.931866  
	   6B2     2.447938     9A1     2.484630     4B1     3.283170  
	   2A2     3.337122    10A1     3.507132    11A1     3.864310  
	   7B2     4.144393  

	Final Occupation by Irrep:
	         A1    A2    B1    B2 
	DOCC [     3,    0,    1,    1 ]

  Energy converged.

  @RHF Final Energy:   -76.02668079826127

   => Energetics <=

    Nuclear Repulsion Energy =              9.1729511777619059
    One-Electron Energy =                -123.1123814438752504
    Two-Electron Energy =                  37.9127494678520804
    DFT Exchange-Correlation Energy =       0.0000000000000000
    Empirical Dispersion Energy =           0.0000000000000000
    Total Energy =                        -76.0266807982612676



Properties will be evaluated at   0.000000,   0.000000,   0.000000 Bohr
  ==> Properties <==


Properties computed using the SCF density density matrix
  Nuclear Dipole Moment: (a.u.)
     X:     0.0000      Y:     0.0000      Z:     0.9765

  Electronic Dipole Moment: (a.u.)
     X:     0.0000      Y:     0.0000      Z:    -0.1673

  Dipole Moment: (a.u.)
     X:     0.0000      Y:     0.0000      Z:     0.8093     Total:     0.8093

  Dipole Moment: (Debye)
     X:     0.0000      Y:     0.0000      Z:     2.0569     Total:     2.0569


  Saving occupied orbitals to File 180.

*** tstop() called on bozkaya at Thu Apr  4 17:23:38 2013
Module time:
	user time   =       0.17 seconds =       0.00 minutes
	system time =       0.02 seconds =       0.00 minutes
	total time  =          0 seconds =       0.00 minutes
Total time:
	user time   =       0.68 seconds =       0.01 minutes
	system time =       0.11 seconds =       0.00 minutes
	total time  =          0 seconds =       0.00 minutes

*** tstart() called on bozkaya
*** at Thu Apr  4 17:23:38 2013



  Options:
  ----------------------------------------------------------------------------
  BENCH                  => 0                
  CACHELEVEL             => 2                
  CCL_ENERGY             => FALSE            
  CC_DIIS_MAX_VECS       => 6                
  CC_DIIS_MIN_VECS       => 2                
  CC_MAXITER             => 50               
  CEPA_OS_SCALE          => 1.27             
  CEPA_SOS_SCALE         => 1.3              
  CEPA_SS_SCALE          => 1.13             
  CEPA_TYPE              => CEPA0            
  CUTOFF                 => 14               
  DEBUG                  => 0                
  DERTYPE                => NONE             
  DIE_IF_NOT_CONVERGED   => TRUE             
  DOCC                   => [  ]             
  DO_DIIS                => TRUE             
  DO_LEVEL_SHIFT         => TRUE             
  DO_SCS                 => FALSE            
  DO_SOS                 => TRUE            !
  E3_SCALE               => 0.25             
  EA_POLES               => FALSE            
  EKT_EA                 => FALSE            
  EKT_IP                 => FALSE            
  EP_EA_POLES            => FALSE            
  EP_IP_POLES            => FALSE            
  EP_MAXITER             => 30               
  E_CONVERGENCE          => 1e-08           !
  FREEZE_CORE            => FALSE            
  FROZEN_DOCC            => [  ]             
  FROZEN_UOCC            => [  ]             
  IP_POLES               => FALSE            
  LEVEL_SHIFT            => 0.02             
  LINEQ_SOLVER           => CDGESV           
  MAT_NUM_COLUMN_PRINT   => 5                
  MAX_MOGRAD_CONVERGENCE => 0.001            
  MOGRAD_DAMPING         => 1                
  MO_DIIS_NUM_VECS       => 6                
  MO_MAXITER             => 50               
  MO_READ                => FALSE            
  MO_STEP_MAX            => 0.5              
  MO_WRITE               => FALSE            
  MP2_OS_SCALE           => 1.2              
  MP2_SOS_SCALE          => 1.3              
  MP2_SOS_SCALE2         => 1.2              
  MP2_SS_SCALE           => 0.333333         
  MP2_TYPE               => DF               
  NAT_ORBS               => FALSE            
  NUM_FROZEN_DOCC        => 0                
  NUM_FROZEN_UOCC        => 0                
  OCC_ORBS_PRINT         => FALSE            
  OPT_METHOD             => ORB_RESP         
  ORB_OPT                => TRUE             
  ORB_RESP_SOLVER        => PCG              
  ORTH_TYPE              => MGS              
  PCG_BETA_TYPE          => FLETCHER_REEVES  
  PCG_CONVERGENCE        => 1e-06            
  PCG_MAXITER            => 30               
  PRINT                  => 1                
  PROPERTIES             => [  ]             
  PROPERTIES_ORIGIN      => [  ]             
  PUREAM                 => TRUE             
  RMS_MOGRAD_CONVERGENCE => 1e-06            
  R_CONVERGENCE          => 1e-05            
  SCS_TYPE               => SCS              
  SOCC                   => [  ]             
  SOS_TYPE               => SOS             !
  TPDM_ABCD_TYPE         => DIRECT           
  UNITS                  => ANGSTROMS        
  WFN                    => SCF              
  WFN_TYPE               => OMP2             
  WRITER_FILE_LABEL      => (empty)          


 ============================================================================== 
 ============================================================================== 
 ============================================================================== 

                       OMP2 (OO-MP2)   
              Program Written by Ugur Bozkaya,
              Latest Revision April 4, 2013.

 ============================================================================== 
 ============================================================================== 
 ============================================================================== 

	MO spaces per irreps... 

	IRREP   FC    OCC   VIR  FV 
	==============================
	  A1     0     3     8    0
	  A2     0     0     2    0
	  B1     0     1     3    0
	  B2     0     1     6    0
	==============================

	Memory is    250 MB 
	Cost of iabc is      0 MB 
	Cost of abcd is      0 MB 
	Switching to the incore algoritm for iabc..
	Switching to the incore algoritm for abcd..

	Computing MP2 energy using SCF MOs (Canonical MP2)... 
	============================================================================== 
	Nuclear Repulsion Energy (a.u.)    :     9.17295117776191
	SCF Energy (a.u.)                  :   -76.02668079826127
	REF Energy (a.u.)                  :   -76.02668079826127
	Alpha-Alpha Contribution (a.u.)    :    -0.02577104924809
	Alpha-Beta Contribution (a.u.)     :    -0.15256506512322
	Beta-Beta Contribution (a.u.)      :    -0.02577104924809
	Scaled_SS Correlation Energy (a.u.):    -0.01718069949872
	Scaled_OS Correlation Energy (a.u.):    -0.18307807814787
	SCS-MP2 Total Energy (a.u.)        :   -76.22693957590788
	SOS-MP2 Total Energy (a.u.)        :   -76.22501538292146
	SCSN-MP2 Total Energy (a.u.)       :   -76.11739489161452
	SCS-MI-MP2 Total Energy (a.u.)     :   -76.15419613137063
	SCS-MP2-VDW Total Energy (a.u.)    :   -76.24773513086707
	SOS-PI-MP2 Total Energy (a.u.)     :   -76.24027188943379
	MP2 Correlation Energy (a.u.)      :    -0.20410716361940
	MP2 Total Energy (a.u.)            :   -76.23078796188067
	============================================================================== 

	Number of independent-pairs:  33

 ============================================================================== 
 ================ Performing OMP2 iterations... =============================== 
 ============================================================================== 
	            Minimizing MP2-L Functional 
	            --------------------------- 
 Iter       E_total           DE           RMS MO Grad      MAX MO Grad      RMS T2    
 ----    ---------------    ----------     -----------      -----------     ---------- 
   1     -76.2316865428     -8.99e-04       5.87e-05         7.22e-04        6.11e-05 
   2     -76.2316881258     -1.58e-06       4.63e-06         6.30e-05        4.16e-06 
   3     -76.2316881371     -1.13e-08       3.74e-07         8.62e-06        3.76e-07 

 ============================================================================== 
 ======================== OMP2 ITERATIONS ARE CONVERGED ======================= 
 ============================================================================== 

	Orbitals are optimized now.
	Switching to the standard MP2 computation after semicanonicalization of the MOs... 

	Computing MP2 energy using optimized MOs... 
	============================================================================== 
	Nuclear Repulsion Energy (a.u.)    :     9.17295117776191
	SCF Energy (a.u.)                  :   -76.02668079826127
	REF Energy (a.u.)                  :   -76.02575752688401
	Alpha-Alpha Contribution (a.u.)    :    -0.02600658265998
	Alpha-Beta Contribution (a.u.)     :    -0.15391744493043
	Beta-Beta Contribution (a.u.)      :    -0.02600658265998
	Scaled_SS Correlation Energy (a.u.):    -0.01733772177332
	Scaled_OS Correlation Energy (a.u.):    -0.18470093391651
	SCS-MP2 Total Energy (a.u.)        :   -76.22779618257384
	SOS-MP2 Total Energy (a.u.)        :   -76.21045846080052
	SCSN-MP2 Total Energy (a.u.)       :   -76.11730069784716
	SCS-MI-MP2 Total Energy (a.u.)     :   -76.15442148811894
	SCS-MP2-VDW Total Energy (a.u.)    :   -76.24877843905495
	SOS-PI-MP2 Total Energy (a.u.)     :   -76.24124194978661
	MP2 Correlation Energy (a.u.)      :    -0.20593061025040
	MP2 Total Energy (a.u.)            :   -76.23168813713440
	============================================================================== 

	============================================================================== 
	================ OMP2 FINAL RESULTS ========================================== 
	============================================================================== 
	Nuclear Repulsion Energy (a.u.)    :     9.17295117776191
	SCF Energy (a.u.)                  :   -76.02668079826127
	REF Energy (a.u.)                  :   -76.02575752688401
	SCS-OMP2 Total Energy (a.u.)       :   -76.22779618257384
	SOS-OMP2 Total Energy (a.u.)       :   -76.21045846080052
	SCSN-OMP2 Total Energy (a.u.)      :   -76.11730069784716
	SCS-MI-OMP2 Total Energy (a.u.)    :   -76.15442148811894
	SCS-OMP2-VDW Total Energy (a.u.)   :   -76.24877843905495
	SOS-PI-OMP2 Total Energy (a.u.)    :   -76.24124194978661
	OMP2 Correlation Energy (a.u.)     :    -0.20500733887313
	Eomp2 - Eref (a.u.)                :    -0.20593061025039
	OMP2 Total Energy (a.u.)           :   -76.23168813713440
	============================================================================== 


*** tstop() called on bozkaya at Thu Apr  4 17:23:38 2013
Module time:
	user time   =       0.09 seconds =       0.00 minutes
	system time =       0.04 seconds =       0.00 minutes
	total time  =          0 seconds =       0.00 minutes
Total time:
	user time   =       0.77 seconds =       0.01 minutes
	system time =       0.15 seconds =       0.00 minutes
	total time  =          0 seconds =       0.00 minutes

  //>>>>>>>>>>>>>>>>>>>>>>>>>>>>>>>>>>>//
  //    Loading displacement 4 of 5    //
  //<<<<<<<<<<<<<<<<<<<<<<<<<<<<<<<<<<<//

*** tstart() called on bozkaya
*** at Thu Apr  4 17:23:38 2013


         ---------------------------------------------------------
                                   SCF
            by Justin Turney, Rob Parrish, and Andy Simmonett
                              RHF Reference
                        2 Threads,    250 MiB Core
         ---------------------------------------------------------

  ==> Geometry <==

    Molecular point group: c2v
    Full point group: C2v

    Geometry (in Angstrom), charge = 0, multiplicity = 1:

       Center              X                  Y                   Z       
    ------------   -----------------  -----------------  -----------------
           O          0.000000000000     0.000000000000    -0.065655108074
           H          0.000000000000    -0.755502302551     0.520997104936
           H          0.000000000000     0.755502302551     0.520997104936

  Running in c2v symmetry.

  Nuclear repulsion =    9.201855161672770

  Charge       = 0
  Multiplicity = 1
  Electrons    = 10
  Nalpha       = 5
  Nbeta        = 5

  ==> Algorithm <==

  SCF Algorithm Type is PK.
  DIIS enabled.
  MOM disabled.
  Fractional occupation disabled.
  Guess Type is CORE.
  Energy threshold   = 1.00e-10
  Density threshold  = 1.00e-10
  Integral threshold = 0.00e+00

  ==> Primary Basis <==

  Basis Set: CC-PVDZ
    Number of shells: 12
    Number of basis function: 24
    Number of Cartesian functions: 25
    Spherical Harmonics?: true
    Max angular momentum: 2

  ==> Pre-Iterations <==

   -------------------------------------------------------
    Irrep   Nso     Nmo     Nalpha   Nbeta   Ndocc  Nsocc
   -------------------------------------------------------
     A1        11      11       0       0       0       0
     A2         2       2       0       0       0       0
     B1         4       4       0       0       0       0
     B2         7       7       0       0       0       0
   -------------------------------------------------------
    Total      24      24       5       5       5       0
   -------------------------------------------------------

  ==> Integral Setup <==

 MINTS: Wrapper to libmints.
   by Justin Turney

   Calculation information:
      Number of atoms:                   3
      Number of AO shells:              12
      Number of SO shells:               9
      Number of primitives:             32
      Number of atomic orbitals:        25
      Number of basis functions:        24

      Number of irreps:                  4
      Number of functions per irrep: [  11    2    4    7 ]

      Overlap, kinetic, potential, dipole, and quadrupole integrals
        stored in file 35.

      Computing two-electron integrals...done
      Computed 11412 non-zero two-electron integrals.
        Stored in file 33.

	Batch   1 pq = [       0,     107] index = [             0,5778]
  ==> DiskJK: Disk-Based J/K Matrices <==

    J tasked:                  Yes
    K tasked:                  Yes
    wK tasked:                  No
    Memory (MB):               178
    Schwarz Cutoff:          0E+00

  Minimum eigenvalue in the overlap matrix is 3.4106682072E-02.
  Using Symmetric Orthogonalization.
  SCF Guess: Core (One-Electron) Hamiltonian.

  Guess energy:   -58.55849566470133

  ==> Iterations <==

                        Total Energy        Delta E     RMS |[F,P]|

	Occupation by irrep:
	         A1    A2    B1    B2 
	DOCC [     3,    0,    0,    2 ]

   @RHF iter   1:   -68.87180267479312   -6.88718e+01   2.25577e-01 
	Occupation by irrep:
	         A1    A2    B1    B2 
	DOCC [     3,    0,    1,    1 ]

   @RHF iter   2:   -69.94949125098003   -1.07769e+00   1.83933e-01 DIIS
   @RHF iter   3:   -75.73570621055300   -5.78621e+00   6.34667e-02 DIIS
   @RHF iter   4:   -76.00161952093453   -2.65913e-01   1.72150e-02 DIIS
   @RHF iter   5:   -76.02654628238972   -2.49268e-02   1.54487e-03 DIIS
   @RHF iter   6:   -76.02678892818915   -2.42646e-04   6.78472e-04 DIIS
   @RHF iter   7:   -76.02682901343414   -4.00852e-05   9.51979e-05 DIIS
   @RHF iter   8:   -76.02683060306593   -1.58963e-06   3.19170e-05 DIIS
   @RHF iter   9:   -76.02683069142056   -8.83546e-08   1.82604e-06 DIIS
   @RHF iter  10:   -76.02683069213566   -7.15104e-10   6.53099e-07 DIIS
   @RHF iter  11:   -76.02683069218209   -4.64269e-11   1.16222e-07 DIIS
   @RHF iter  12:   -76.02683069218341   -1.32161e-12   8.30260e-09 DIIS
   @RHF iter  13:   -76.02683069218342   -1.42109e-14   9.34033e-10 DIIS
   @RHF iter  14:   -76.02683069218341    1.42109e-14   1.22948e-10 DIIS
   @RHF iter  15:   -76.02683069218337    4.26326e-14   7.76538e-12 DIIS

  ==> Post-Iterations <==

	Orbital Energies (a.u.)
	-----------------------

	Doubly Occupied:                                                      

	   1A1   -20.550394     2A1    -1.337195     1B2    -0.699356  
	   3A1    -0.567060     1B1    -0.493261  

	Virtual:                                                              

	   4A1     0.185656     2B2     0.256379     3B2     0.789243  
	   5A1     0.855802     6A1     1.163592     2B1     1.200346  
	   4B2     1.253439     7A1     1.442906     1A2     1.477018  
	   3B1     1.673855     8A1     1.866766     5B2     1.936733  
	   6B2     2.454144     9A1     2.492555     4B1     3.287223  
	   2A2     3.338980    10A1     3.512296    11A1     3.865325  
	   7B2     4.149344  

	Final Occupation by Irrep:
	         A1    A2    B1    B2 
	DOCC [     3,    0,    1,    1 ]

  Energy converged.

  @RHF Final Energy:   -76.02683069218337

   => Energetics <=

    Nuclear Repulsion Energy =              9.2018551616727695
    One-Electron Energy =                -123.1628376826367202
    Two-Electron Energy =                  37.9341518287805926
    DFT Exchange-Correlation Energy =       0.0000000000000000
    Empirical Dispersion Energy =           0.0000000000000000
    Total Energy =                        -76.0268306921833528



Properties will be evaluated at   0.000000,   0.000000,   0.000000 Bohr
  ==> Properties <==


Properties computed using the SCF density density matrix
  Nuclear Dipole Moment: (a.u.)
     X:     0.0000      Y:     0.0000      Z:     0.9765

  Electronic Dipole Moment: (a.u.)
     X:     0.0000      Y:     0.0000      Z:    -0.1667

  Dipole Moment: (a.u.)
     X:     0.0000      Y:     0.0000      Z:     0.8098     Total:     0.8098

  Dipole Moment: (Debye)
     X:     0.0000      Y:     0.0000      Z:     2.0583     Total:     2.0583


  Saving occupied orbitals to File 180.

*** tstop() called on bozkaya at Thu Apr  4 17:23:38 2013
Module time:
	user time   =       0.15 seconds =       0.00 minutes
	system time =       0.00 seconds =       0.00 minutes
	total time  =          0 seconds =       0.00 minutes
Total time:
	user time   =       0.94 seconds =       0.02 minutes
	system time =       0.15 seconds =       0.00 minutes
	total time  =          0 seconds =       0.00 minutes

*** tstart() called on bozkaya
*** at Thu Apr  4 17:23:38 2013



  Options:
  ----------------------------------------------------------------------------
  BENCH                  => 0                
  CACHELEVEL             => 2                
  CCL_ENERGY             => FALSE            
  CC_DIIS_MAX_VECS       => 6                
  CC_DIIS_MIN_VECS       => 2                
  CC_MAXITER             => 50               
  CEPA_OS_SCALE          => 1.27             
  CEPA_SOS_SCALE         => 1.3              
  CEPA_SS_SCALE          => 1.13             
  CEPA_TYPE              => CEPA0            
  CUTOFF                 => 14               
  DEBUG                  => 0                
  DERTYPE                => NONE             
  DIE_IF_NOT_CONVERGED   => TRUE             
  DOCC                   => [  ]             
  DO_DIIS                => TRUE             
  DO_LEVEL_SHIFT         => TRUE             
  DO_SCS                 => FALSE            
  DO_SOS                 => TRUE            !
  E3_SCALE               => 0.25             
  EA_POLES               => FALSE            
  EKT_EA                 => FALSE            
  EKT_IP                 => FALSE            
  EP_EA_POLES            => FALSE            
  EP_IP_POLES            => FALSE            
  EP_MAXITER             => 30               
  E_CONVERGENCE          => 1e-08           !
  FREEZE_CORE            => FALSE            
  FROZEN_DOCC            => [  ]             
  FROZEN_UOCC            => [  ]             
  IP_POLES               => FALSE            
  LEVEL_SHIFT            => 0.02             
  LINEQ_SOLVER           => CDGESV           
  MAT_NUM_COLUMN_PRINT   => 5                
  MAX_MOGRAD_CONVERGENCE => 0.001            
  MOGRAD_DAMPING         => 1                
  MO_DIIS_NUM_VECS       => 6                
  MO_MAXITER             => 50               
  MO_READ                => FALSE            
  MO_STEP_MAX            => 0.5              
  MO_WRITE               => FALSE            
  MP2_OS_SCALE           => 1.2              
  MP2_SOS_SCALE          => 1.3              
  MP2_SOS_SCALE2         => 1.2              
  MP2_SS_SCALE           => 0.333333         
  MP2_TYPE               => DF               
  NAT_ORBS               => FALSE            
  NUM_FROZEN_DOCC        => 0                
  NUM_FROZEN_UOCC        => 0                
  OCC_ORBS_PRINT         => FALSE            
  OPT_METHOD             => ORB_RESP         
  ORB_OPT                => TRUE             
  ORB_RESP_SOLVER        => PCG              
  ORTH_TYPE              => MGS              
  PCG_BETA_TYPE          => FLETCHER_REEVES  
  PCG_CONVERGENCE        => 1e-06            
  PCG_MAXITER            => 30               
  PRINT                  => 1                
  PROPERTIES             => [  ]             
  PROPERTIES_ORIGIN      => [  ]             
  PUREAM                 => TRUE             
  RMS_MOGRAD_CONVERGENCE => 1e-06            
  R_CONVERGENCE          => 1e-05            
  SCS_TYPE               => SCS              
  SOCC                   => [  ]             
  SOS_TYPE               => SOS             !
  TPDM_ABCD_TYPE         => DIRECT           
  UNITS                  => ANGSTROMS        
  WFN                    => SCF              
  WFN_TYPE               => OMP2             
  WRITER_FILE_LABEL      => (empty)          


 ============================================================================== 
 ============================================================================== 
 ============================================================================== 

                       OMP2 (OO-MP2)   
              Program Written by Ugur Bozkaya,
              Latest Revision April 4, 2013.

 ============================================================================== 
 ============================================================================== 
 ============================================================================== 

	MO spaces per irreps... 

	IRREP   FC    OCC   VIR  FV 
	==============================
	  A1     0     3     8    0
	  A2     0     0     2    0
	  B1     0     1     3    0
	  B2     0     1     6    0
	==============================

	Memory is    250 MB 
	Cost of iabc is      0 MB 
	Cost of abcd is      0 MB 
	Switching to the incore algoritm for iabc..
	Switching to the incore algoritm for abcd..

	Computing MP2 energy using SCF MOs (Canonical MP2)... 
	============================================================================== 
	Nuclear Repulsion Energy (a.u.)    :     9.20185516167277
	SCF Energy (a.u.)                  :   -76.02683069218337
	REF Energy (a.u.)                  :   -76.02683069218338
	Alpha-Alpha Contribution (a.u.)    :    -0.02575900832738
	Alpha-Beta Contribution (a.u.)     :    -0.15241352991872
	Beta-Beta Contribution (a.u.)      :    -0.02575900832738
	Scaled_SS Correlation Energy (a.u.):    -0.01717267221826
	Scaled_OS Correlation Energy (a.u.):    -0.18289623590247
	SCS-MP2 Total Energy (a.u.)        :   -76.22689960030411
	SOS-MP2 Total Energy (a.u.)        :   -76.22496828107772
	SCSN-MP2 Total Energy (a.u.)       :   -76.11750240149578
	SCS-MI-MP2 Total Energy (a.u.)     :   -76.15425434563551
	SCS-MP2-VDW Total Energy (a.u.)    :   -76.24767901880674
	SOS-PI-MP2 Total Energy (a.u.)     :   -76.24020963406959
	MP2 Correlation Energy (a.u.)      :    -0.20393154657349
	MP2 Total Energy (a.u.)            :   -76.23076223875687
	============================================================================== 

	Number of independent-pairs:  33

 ============================================================================== 
 ================ Performing OMP2 iterations... =============================== 
 ============================================================================== 
	            Minimizing MP2-L Functional 
	            --------------------------- 
 Iter       E_total           DE           RMS MO Grad      MAX MO Grad      RMS T2    
 ----    ---------------    ----------     -----------      -----------     ---------- 
   1     -76.2316518543     -8.90e-04       5.81e-05         7.12e-04        6.05e-05 
   2     -76.2316534015     -1.55e-06       4.56e-06         6.21e-05        4.10e-06 
   3     -76.2316534124     -1.09e-08       3.66e-07         8.48e-06        3.68e-07 

 ============================================================================== 
 ======================== OMP2 ITERATIONS ARE CONVERGED ======================= 
 ============================================================================== 

	Orbitals are optimized now.
	Switching to the standard MP2 computation after semicanonicalization of the MOs... 

	Computing MP2 energy using optimized MOs... 
	============================================================================== 
	Nuclear Repulsion Energy (a.u.)    :     9.20185516167277
	SCF Energy (a.u.)                  :   -76.02683069218337
	REF Energy (a.u.)                  :   -76.02591679514079
	Alpha-Alpha Contribution (a.u.)    :    -0.02599262145482
	Alpha-Beta Contribution (a.u.)     :    -0.15375137432968
	Beta-Beta Contribution (a.u.)      :    -0.02599262145482
	Scaled_SS Correlation Energy (a.u.):    -0.01732841430321
	Scaled_OS Correlation Energy (a.u.):    -0.18450164919562
	SCS-MP2 Total Energy (a.u.)        :   -76.22774685863963
	SOS-MP2 Total Energy (a.u.)        :   -76.21041844433641
	SCSN-MP2 Total Energy (a.u.)       :   -76.11741082266177
	SCS-MI-MP2 Total Energy (a.u.)     :   -76.15447830822610
	SCS-MP2-VDW Total Energy (a.u.)    :   -76.24871117573761
	SOS-PI-MP2 Total Energy (a.u.)     :   -76.24116871920235
	MP2 Correlation Energy (a.u.)      :    -0.20573661723933
	MP2 Total Energy (a.u.)            :   -76.23165341238011
	============================================================================== 

	============================================================================== 
	================ OMP2 FINAL RESULTS ========================================== 
	============================================================================== 
	Nuclear Repulsion Energy (a.u.)    :     9.20185516167277
	SCF Energy (a.u.)                  :   -76.02683069218337
	REF Energy (a.u.)                  :   -76.02591679514079
	SCS-OMP2 Total Energy (a.u.)       :   -76.22774685863963
	SOS-OMP2 Total Energy (a.u.)       :   -76.21041844433641
	SCSN-OMP2 Total Energy (a.u.)      :   -76.11741082266177
	SCS-MI-OMP2 Total Energy (a.u.)    :   -76.15447830822610
	SCS-OMP2-VDW Total Energy (a.u.)   :   -76.24871117573761
	SOS-PI-OMP2 Total Energy (a.u.)    :   -76.24116871920235
	OMP2 Correlation Energy (a.u.)     :    -0.20482272019674
	Eomp2 - Eref (a.u.)                :    -0.20573661723932
	OMP2 Total Energy (a.u.)           :   -76.23165341238011
	============================================================================== 


*** tstop() called on bozkaya at Thu Apr  4 17:23:39 2013
Module time:
	user time   =       0.10 seconds =       0.00 minutes
	system time =       0.03 seconds =       0.00 minutes
	total time  =          1 seconds =       0.02 minutes
Total time:
	user time   =       1.04 seconds =       0.02 minutes
	system time =       0.18 seconds =       0.00 minutes
	total time  =          1 seconds =       0.02 minutes

  //>>>>>>>>>>>>>>>>>>>>>>>>>>>>>>>>>>>//
  //    Loading displacement 5 of 5    //
  //<<<<<<<<<<<<<<<<<<<<<<<<<<<<<<<<<<<//

*** tstart() called on bozkaya
*** at Thu Apr  4 17:23:39 2013


         ---------------------------------------------------------
                                   SCF
            by Justin Turney, Rob Parrish, and Andy Simmonett
                              RHF Reference
                        2 Threads,    250 MiB Core
         ---------------------------------------------------------

  ==> Geometry <==

    Molecular point group: c2v
    Full point group: C2v

    Geometry (in Angstrom), charge = 0, multiplicity = 1:

       Center              X                  Y                   Z       
    ------------   -----------------  -----------------  -----------------
           O          0.000000000000     0.000000000000    -0.065655108074
           H          0.000000000000    -0.757365949175     0.520997104936
           H          0.000000000000     0.757365949175     0.520997104936

  Running in c2v symmetry.

  Nuclear repulsion =    9.187386421477592

  Charge       = 0
  Multiplicity = 1
  Electrons    = 10
  Nalpha       = 5
  Nbeta        = 5

  ==> Algorithm <==

  SCF Algorithm Type is PK.
  DIIS enabled.
  MOM disabled.
  Fractional occupation disabled.
  Guess Type is CORE.
  Energy threshold   = 1.00e-10
  Density threshold  = 1.00e-10
  Integral threshold = 0.00e+00

  ==> Primary Basis <==

  Basis Set: CC-PVDZ
    Number of shells: 12
    Number of basis function: 24
    Number of Cartesian functions: 25
    Spherical Harmonics?: true
    Max angular momentum: 2

  ==> Pre-Iterations <==

   -------------------------------------------------------
    Irrep   Nso     Nmo     Nalpha   Nbeta   Ndocc  Nsocc
   -------------------------------------------------------
     A1        11      11       0       0       0       0
     A2         2       2       0       0       0       0
     B1         4       4       0       0       0       0
     B2         7       7       0       0       0       0
   -------------------------------------------------------
    Total      24      24       5       5       5       0
   -------------------------------------------------------

  ==> Integral Setup <==

 MINTS: Wrapper to libmints.
   by Justin Turney

   Calculation information:
      Number of atoms:                   3
      Number of AO shells:              12
      Number of SO shells:               9
      Number of primitives:             32
      Number of atomic orbitals:        25
      Number of basis functions:        24

      Number of irreps:                  4
      Number of functions per irrep: [  11    2    4    7 ]

      Overlap, kinetic, potential, dipole, and quadrupole integrals
        stored in file 35.

      Computing two-electron integrals...done
      Computed 11412 non-zero two-electron integrals.
        Stored in file 33.

	Batch   1 pq = [       0,     107] index = [             0,5778]
  ==> DiskJK: Disk-Based J/K Matrices <==

    J tasked:                  Yes
    K tasked:                  Yes
    wK tasked:                  No
    Memory (MB):               178
    Schwarz Cutoff:          0E+00

  Minimum eigenvalue in the overlap matrix is 3.4230868664E-02.
  Using Symmetric Orthogonalization.
  SCF Guess: Core (One-Electron) Hamiltonian.

  Guess energy:   -58.56332129244273

  ==> Iterations <==

                        Total Energy        Delta E     RMS |[F,P]|

	Occupation by irrep:
	         A1    A2    B1    B2 
	DOCC [     3,    0,    0,    2 ]

   @RHF iter   1:   -68.87414405851891   -6.88741e+01   2.25267e-01 
	Occupation by irrep:
	         A1    A2    B1    B2 
	DOCC [     3,    0,    1,    1 ]

   @RHF iter   2:   -69.94961388024070   -1.07547e+00   1.83937e-01 DIIS
   @RHF iter   3:   -75.73691793435385   -5.78730e+00   6.33065e-02 DIIS
   @RHF iter   4:   -76.00165601705397   -2.64738e-01   1.71675e-02 DIIS
   @RHF iter   5:   -76.02647588165978   -2.48199e-02   1.54305e-03 DIIS
   @RHF iter   6:   -76.02671906756559   -2.43186e-04   6.80188e-04 DIIS
   @RHF iter   7:   -76.02675940507523   -4.03375e-05   9.53593e-05 DIIS
   @RHF iter   8:   -76.02676100593216   -1.60086e-06   3.20127e-05 DIIS
   @RHF iter   9:   -76.02676109481280   -8.88806e-08   1.84393e-06 DIIS
   @RHF iter  10:   -76.02676109554528   -7.32484e-10   6.60581e-07 DIIS
   @RHF iter  11:   -76.02676109559292   -4.76348e-11   1.18001e-07 DIIS
   @RHF iter  12:   -76.02676109559425   -1.33582e-12   8.37834e-09 DIIS
   @RHF iter  13:   -76.02676109559430   -4.26326e-14   9.39245e-10 DIIS
   @RHF iter  14:   -76.02676109559430    0.00000e+00   1.23587e-10 DIIS
   @RHF iter  15:   -76.02676109559434   -4.26326e-14   7.78049e-12 DIIS

  ==> Post-Iterations <==

	Orbital Energies (a.u.)
	-----------------------

	Doubly Occupied:                                                      

	   1A1   -20.550579     2A1    -1.336336     1B2    -0.698827  
	   3A1    -0.566506     1B1    -0.493105  

	Virtual:                                                              

	   4A1     0.185436     2B2     0.256147     3B2     0.788656  
	   5A1     0.853784     6A1     1.163587     2B1     1.200369  
	   4B2     1.253383     7A1     1.444392     1A2     1.476182  
	   3B1     1.674338     8A1     1.867382     5B2     1.934293  
	   6B2     2.451040     9A1     2.488585     4B1     3.285193  
	   2A2     3.338052    10A1     3.509722    11A1     3.864815  
	   7B2     4.146867  

	Final Occupation by Irrep:
	         A1    A2    B1    B2 
	DOCC [     3,    0,    1,    1 ]

  Energy converged.

  @RHF Final Energy:   -76.02676109559434

   => Energetics <=

    Nuclear Repulsion Energy =              9.1873864214775924
    One-Electron Energy =                -123.1375893554428416
    Two-Electron Energy =                  37.9234418383709340
    DFT Exchange-Correlation Energy =       0.0000000000000000
    Empirical Dispersion Energy =           0.0000000000000000
    Total Energy =                        -76.0267610955943098



Properties will be evaluated at   0.000000,   0.000000,   0.000000 Bohr
  ==> Properties <==


Properties computed using the SCF density density matrix
  Nuclear Dipole Moment: (a.u.)
     X:     0.0000      Y:     0.0000      Z:     0.9765

  Electronic Dipole Moment: (a.u.)
     X:     0.0000      Y:     0.0000      Z:    -0.1670

  Dipole Moment: (a.u.)
     X:     0.0000      Y:     0.0000      Z:     0.8095     Total:     0.8095

  Dipole Moment: (Debye)
     X:     0.0000      Y:     0.0000      Z:     2.0576     Total:     2.0576


  Saving occupied orbitals to File 180.

*** tstop() called on bozkaya at Thu Apr  4 17:23:39 2013
Module time:
	user time   =       0.15 seconds =       0.00 minutes
	system time =       0.01 seconds =       0.00 minutes
	total time  =          0 seconds =       0.00 minutes
Total time:
	user time   =       1.21 seconds =       0.02 minutes
	system time =       0.19 seconds =       0.00 minutes
	total time  =          1 seconds =       0.02 minutes

*** tstart() called on bozkaya
*** at Thu Apr  4 17:23:39 2013



  Options:
  ----------------------------------------------------------------------------
  BENCH                  => 0                
  CACHELEVEL             => 2                
  CCL_ENERGY             => FALSE            
  CC_DIIS_MAX_VECS       => 6                
  CC_DIIS_MIN_VECS       => 2                
  CC_MAXITER             => 50               
  CEPA_OS_SCALE          => 1.27             
  CEPA_SOS_SCALE         => 1.3              
  CEPA_SS_SCALE          => 1.13             
  CEPA_TYPE              => CEPA0            
  CUTOFF                 => 14               
  DEBUG                  => 0                
  DERTYPE                => NONE             
  DIE_IF_NOT_CONVERGED   => TRUE             
  DOCC                   => [  ]             
  DO_DIIS                => TRUE             
  DO_LEVEL_SHIFT         => TRUE             
  DO_SCS                 => FALSE            
  DO_SOS                 => TRUE            !
  E3_SCALE               => 0.25             
  EA_POLES               => FALSE            
  EKT_EA                 => FALSE            
  EKT_IP                 => FALSE            
  EP_EA_POLES            => FALSE            
  EP_IP_POLES            => FALSE            
  EP_MAXITER             => 30               
  E_CONVERGENCE          => 1e-08           !
  FREEZE_CORE            => FALSE            
  FROZEN_DOCC            => [  ]             
  FROZEN_UOCC            => [  ]             
  IP_POLES               => FALSE            
  LEVEL_SHIFT            => 0.02             
  LINEQ_SOLVER           => CDGESV           
  MAT_NUM_COLUMN_PRINT   => 5                
  MAX_MOGRAD_CONVERGENCE => 0.001            
  MOGRAD_DAMPING         => 1                
  MO_DIIS_NUM_VECS       => 6                
  MO_MAXITER             => 50               
  MO_READ                => FALSE            
  MO_STEP_MAX            => 0.5              
  MO_WRITE               => FALSE            
  MP2_OS_SCALE           => 1.2              
  MP2_SOS_SCALE          => 1.3              
  MP2_SOS_SCALE2         => 1.2              
  MP2_SS_SCALE           => 0.333333         
  MP2_TYPE               => DF               
  NAT_ORBS               => FALSE            
  NUM_FROZEN_DOCC        => 0                
  NUM_FROZEN_UOCC        => 0                
  OCC_ORBS_PRINT         => FALSE            
  OPT_METHOD             => ORB_RESP         
  ORB_OPT                => TRUE             
  ORB_RESP_SOLVER        => PCG              
  ORTH_TYPE              => MGS              
  PCG_BETA_TYPE          => FLETCHER_REEVES  
  PCG_CONVERGENCE        => 1e-06            
  PCG_MAXITER            => 30               
  PRINT                  => 1                
  PROPERTIES             => [  ]             
  PROPERTIES_ORIGIN      => [  ]             
  PUREAM                 => TRUE             
  RMS_MOGRAD_CONVERGENCE => 1e-06            
  R_CONVERGENCE          => 1e-05            
  SCS_TYPE               => SCS              
  SOCC                   => [  ]             
  SOS_TYPE               => SOS             !
  TPDM_ABCD_TYPE         => DIRECT           
  UNITS                  => ANGSTROMS        
  WFN                    => SCF              
  WFN_TYPE               => OMP2             
  WRITER_FILE_LABEL      => (empty)          


 ============================================================================== 
 ============================================================================== 
 ============================================================================== 

                       OMP2 (OO-MP2)   
              Program Written by Ugur Bozkaya,
              Latest Revision April 4, 2013.

 ============================================================================== 
 ============================================================================== 
 ============================================================================== 

	MO spaces per irreps... 

	IRREP   FC    OCC   VIR  FV 
	==============================
	  A1     0     3     8    0
	  A2     0     0     2    0
	  B1     0     1     3    0
	  B2     0     1     6    0
	==============================

	Memory is    250 MB 
	Cost of iabc is      0 MB 
	Cost of abcd is      0 MB 
	Switching to the incore algoritm for iabc..
	Switching to the incore algoritm for abcd..

	Computing MP2 energy using SCF MOs (Canonical MP2)... 
	============================================================================== 
	Nuclear Repulsion Energy (a.u.)    :     9.18738642147759
	SCF Energy (a.u.)                  :   -76.02676109559434
	REF Energy (a.u.)                  :   -76.02676109559428
	Alpha-Alpha Contribution (a.u.)    :    -0.02576501624001
[...]

  Running in c2v symmetry.

  Nuclear repulsion =    9.122954222153943

  Charge       = 0
  Multiplicity = 1
  Electrons    = 10
  Nalpha       = 5
  Nbeta        = 5

  ==> Algorithm <==

  SCF Algorithm Type is PK.
  DIIS enabled.
  MOM disabled.
  Fractional occupation disabled.
  Guess Type is READ.
  Energy threshold   = 1.00e-10
  Density threshold  = 1.00e-10
  Integral threshold = 0.00e+00

  ==> Primary Basis <==

  Basis Set: CC-PVDZ
    Number of shells: 12
    Number of basis function: 24
    Number of Cartesian functions: 25
    Spherical Harmonics?: true
    Max angular momentum: 2

  ==> Pre-Iterations <==

   -------------------------------------------------------
    Irrep   Nso     Nmo     Nalpha   Nbeta   Ndocc  Nsocc
   -------------------------------------------------------
     A1        11      11       0       0       0       0
     A2         2       2       0       0       0       0
     B1         4       4       0       0       0       0
     B2         7       7       0       0       0       0
   -------------------------------------------------------
    Total      24      24       5       5       5       0
   -------------------------------------------------------

  ==> Integral Setup <==

 MINTS: Wrapper to libmints.
   by Justin Turney

   Calculation information:
      Number of atoms:                   3
      Number of AO shells:              12
      Number of SO shells:               9
      Number of primitives:             32
      Number of atomic orbitals:        25
      Number of basis functions:        24

      Number of irreps:                  4
      Number of functions per irrep: [  11    2    4    7 ]

      Overlap, kinetic, potential, dipole, and quadrupole integrals
        stored in file 35.

      Computing two-electron integrals...done
      Computed 11412 non-zero two-electron integrals.
        Stored in file 33.

	Batch   1 pq = [       0,     107] index = [             0,5778]
  ==> DiskJK: Disk-Based J/K Matrices <==

    J tasked:                  Yes
    K tasked:                  Yes
    wK tasked:                  No
    Memory (MB):               178
    Schwarz Cutoff:          0E+00

  Minimum eigenvalue in the overlap matrix is 3.4435157084E-02.
  Using Symmetric Orthogonalization.
  SCF Guess: Projection.

  Using orbitals from previous SCF, no projection.
  Guess energy:     0.00000000000000

  ==> Iterations <==

                        Total Energy        Delta E     RMS |[F,P]|

   @RHF iter   0:   -76.02415260635826   -7.60242e+01   3.76894e-04 
   @RHF iter   1:   -76.02621154030388   -2.05893e-03   6.29484e-05 
   @RHF iter   2:   -76.02621181590331   -2.75599e-07   3.17660e-05 DIIS
   @RHF iter   3:   -76.02621187937677   -6.34735e-08   4.14095e-06 DIIS
   @RHF iter   4:   -76.02621188196562   -2.58885e-09   1.14287e-06 DIIS
   @RHF iter   5:   -76.02621188216449   -1.98867e-10   1.96818e-07 DIIS
   @RHF iter   6:   -76.02621188217361   -9.12337e-12   3.75799e-08 DIIS
   @RHF iter   7:   -76.02621188217395   -3.41061e-13   5.48837e-09 DIIS
   @RHF iter   8:   -76.02621188217398   -2.84217e-14   1.08132e-09 DIIS
   @RHF iter   9:   -76.02621188217395    2.84217e-14   9.61407e-11 DIIS

  ==> Post-Iterations <==

	Orbital Energies (a.u.)
	-----------------------

	Doubly Occupied:                                                      

	   1A1   -20.553130     2A1    -1.334467     1B2    -0.690543  
	   3A1    -0.569854     1B1    -0.493427  

	Virtual:                                                              

	   4A1     0.183715     2B2     0.255298     3B2     0.775841  
	   5A1     0.857062     6A1     1.166130     2B1     1.199636  
	   4B2     1.256278     7A1     1.424005     1A2     1.481967  
	   3B1     1.660099     8A1     1.864093     5B2     1.939704  
	   6B2     2.428221     9A1     2.474615     4B1     3.290380  
	   2A2     3.322208    10A1     3.507417    11A1     3.841117  
	   7B2     4.151010  

	Final Occupation by Irrep:
	         A1    A2    B1    B2 
	DOCC [     3,    0,    1,    1 ]

  Energy converged.

  @RHF Final Energy:   -76.02621188217395

   => Energetics <=

    Nuclear Repulsion Energy =              9.1229542221539432
    One-Electron Energy =                -123.0154915908390336
    Two-Electron Energy =                  37.8663254865111298
    DFT Exchange-Correlation Energy =       0.0000000000000000
    Empirical Dispersion Energy =           0.0000000000000000
    Total Energy =                        -76.0262118821739534



Properties will be evaluated at   0.000000,   0.000000,   0.000000 Bohr
  ==> Properties <==


Properties computed using the SCF density density matrix
  Nuclear Dipole Moment: (a.u.)
     X:     0.0000      Y:     0.0000      Z:     1.0093

  Electronic Dipole Moment: (a.u.)
     X:     0.0000      Y:     0.0000      Z:    -0.1834

  Dipole Moment: (a.u.)
     X:     0.0000      Y:     0.0000      Z:     0.8259     Total:     0.8259

  Dipole Moment: (Debye)
     X:     0.0000      Y:     0.0000      Z:     2.0992     Total:     2.0992


  Saving occupied orbitals to File 180.

*** tstop() called on bozkaya at Thu Apr  4 17:23:41 2013
Module time:
	user time   =       0.15 seconds =       0.00 minutes
	system time =       0.00 seconds =       0.00 minutes
	total time  =          0 seconds =       0.00 minutes
Total time:
	user time   =       3.81 seconds =       0.06 minutes
	system time =       0.64 seconds =       0.01 minutes
	total time  =          3 seconds =       0.05 minutes

*** tstart() called on bozkaya
*** at Thu Apr  4 17:23:41 2013



  Options:
  ----------------------------------------------------------------------------
  BENCH                  => 0                
  CACHELEVEL             => 2                
  CCL_ENERGY             => FALSE            
  CC_DIIS_MAX_VECS       => 6                
  CC_DIIS_MIN_VECS       => 2                
  CC_MAXITER             => 50               
  CEPA_OS_SCALE          => 1.27             
  CEPA_SOS_SCALE         => 1.3              
  CEPA_SS_SCALE          => 1.13             
  CEPA_TYPE              => CEPA0            
  CUTOFF                 => 14               
  DEBUG                  => 0                
  DERTYPE                => NONE             
  DIE_IF_NOT_CONVERGED   => TRUE             
  DOCC                   => [  ]             
  DO_DIIS                => TRUE             
  DO_LEVEL_SHIFT         => TRUE             
  DO_SCS                 => FALSE            
  DO_SOS                 => TRUE            !
  E3_SCALE               => 0.25             
  EA_POLES               => FALSE            
  EKT_EA                 => FALSE            
  EKT_IP                 => FALSE            
  EP_EA_POLES            => FALSE            
  EP_IP_POLES            => FALSE            
  EP_MAXITER             => 30               
  E_CONVERGENCE          => 1e-08           !
  FREEZE_CORE            => FALSE            
  FROZEN_DOCC            => [  ]             
  FROZEN_UOCC            => [  ]             
  IP_POLES               => FALSE            
  LEVEL_SHIFT            => 0.02             
  LINEQ_SOLVER           => CDGESV           
  MAT_NUM_COLUMN_PRINT   => 5                
  MAX_MOGRAD_CONVERGENCE => 0.001            
  MOGRAD_DAMPING         => 1                
  MO_DIIS_NUM_VECS       => 6                
  MO_MAXITER             => 50               
  MO_READ                => FALSE            
  MO_STEP_MAX            => 0.5              
  MO_WRITE               => FALSE            
  MP2_OS_SCALE           => 1.2              
  MP2_SOS_SCALE          => 1.3              
  MP2_SOS_SCALE2         => 1.2              
  MP2_SS_SCALE           => 0.333333         
  MP2_TYPE               => DF               
  NAT_ORBS               => FALSE            
  NUM_FROZEN_DOCC        => 0                
  NUM_FROZEN_UOCC        => 0                
  OCC_ORBS_PRINT         => FALSE            
  OPT_METHOD             => ORB_RESP         
  ORB_OPT                => TRUE             
  ORB_RESP_SOLVER        => PCG              
  ORTH_TYPE              => MGS              
  PCG_BETA_TYPE          => FLETCHER_REEVES  
  PCG_CONVERGENCE        => 1e-06            
  PCG_MAXITER            => 30               
  PRINT                  => 1                
  PROPERTIES             => [  ]             
  PROPERTIES_ORIGIN      => [  ]             
  PUREAM                 => TRUE             
  RMS_MOGRAD_CONVERGENCE => 1e-06            
  R_CONVERGENCE          => 1e-05            
  SCS_TYPE               => SCS              
  SOCC                   => [  ]             
  SOS_TYPE               => SOS             !
  TPDM_ABCD_TYPE         => DIRECT           
  UNITS                  => ANGSTROMS        
  WFN                    => SCF              
  WFN_TYPE               => OMP2             
  WRITER_FILE_LABEL      => (empty)          


 ============================================================================== 
 ============================================================================== 
 ============================================================================== 

                       OMP2 (OO-MP2)   
              Program Written by Ugur Bozkaya,
              Latest Revision April 4, 2013.

 ============================================================================== 
 ============================================================================== 
 ============================================================================== 

	MO spaces per irreps... 

	IRREP   FC    OCC   VIR  FV 
	==============================
	  A1     0     3     8    0
	  A2     0     0     2    0
	  B1     0     1     3    0
	  B2     0     1     6    0
	==============================

	Memory is    250 MB 
	Cost of iabc is      0 MB 
	Cost of abcd is      0 MB 
	Switching to the incore algoritm for iabc..
	Switching to the incore algoritm for abcd..

	Computing MP2 energy using SCF MOs (Canonical MP2)... 
	============================================================================== 
	Nuclear Repulsion Energy (a.u.)    :     9.12295422215394
	SCF Energy (a.u.)                  :   -76.02621188217395
	REF Energy (a.u.)                  :   -76.02621188217398
	Alpha-Alpha Contribution (a.u.)    :    -0.02584028945803
	Alpha-Beta Contribution (a.u.)     :    -0.15309274817154
	Beta-Beta Contribution (a.u.)      :    -0.02584028945803
	Scaled_SS Correlation Energy (a.u.):    -0.01722685963869
	Scaled_OS Correlation Energy (a.u.):    -0.18371129780584
	SCS-MP2 Total Energy (a.u.)        :   -76.22715003961852
	SOS-MP2 Total Energy (a.u.)        :   -76.22523245479698
	SCSN-MP2 Total Energy (a.u.)       :   -76.11716970106625
	SCS-MI-MP2 Total Energy (a.u.)     :   -76.15411692824431
	SCS-MP2-VDW Total Energy (a.u.)    :   -76.24801088929159
	SOS-PI-MP2 Total Energy (a.u.)     :   -76.24054172961414
	MP2 Correlation Energy (a.u.)      :    -0.20477332708760
	MP2 Total Energy (a.u.)            :   -76.23098520926159
	============================================================================== 

	Number of independent-pairs:  33

 ============================================================================== 
 ================ Performing OMP2 iterations... =============================== 
 ============================================================================== 
	            Minimizing MP2-L Functional 
	            --------------------------- 
 Iter       E_total           DE           RMS MO Grad      MAX MO Grad      RMS T2    
 ----    ---------------    ----------     -----------      -----------     ---------- 
   1     -76.2319192596     -9.34e-04       6.15e-05         7.70e-04        6.31e-05 
   2     -76.2319210008     -1.74e-06       4.95e-06         6.63e-05        4.39e-06 
   3     -76.2319210138     -1.29e-08       4.02e-07         9.10e-06        4.06e-07 

 ============================================================================== 
 ======================== OMP2 ITERATIONS ARE CONVERGED ======================= 
 ============================================================================== 

	Orbitals are optimized now.
	Switching to the standard MP2 computation after semicanonicalization of the MOs... 

	Computing MP2 energy using optimized MOs... 
	============================================================================== 
	Nuclear Repulsion Energy (a.u.)    :     9.12295422215394
	SCF Energy (a.u.)                  :   -76.02621188217395
	REF Energy (a.u.)                  :   -76.02525144271658
	Alpha-Alpha Contribution (a.u.)    :    -0.02608509083932
	Alpha-Beta Contribution (a.u.)     :    -0.15449938937028
	Beta-Beta Contribution (a.u.)      :    -0.02608509083932
	Scaled_SS Correlation Energy (a.u.):    -0.01739006055954
	Scaled_OS Correlation Energy (a.u.):    -0.18539926724433
	SCS-MP2 Total Energy (a.u.)        :   -76.22804077052045
	SOS-MP2 Total Energy (a.u.)        :   -76.21065070996092
	SCSN-MP2 Total Energy (a.u.)       :   -76.11707096247099
	SCS-MI-MP2 Total Energy (a.u.)     :   -76.15435073283014
	SCS-MP2-VDW Total Energy (a.u.)    :   -76.24909575194987
	SOS-PI-MP2 Total Energy (a.u.)     :   -76.24155058783496
	MP2 Correlation Energy (a.u.)      :    -0.20666957104891
	MP2 Total Energy (a.u.)            :   -76.23192101376549
	============================================================================== 

	============================================================================== 
	================ OMP2 FINAL RESULTS ========================================== 
	============================================================================== 
	Nuclear Repulsion Energy (a.u.)    :     9.12295422215394
	SCF Energy (a.u.)                  :   -76.02621188217395
	REF Energy (a.u.)                  :   -76.02525144271658
	SCS-OMP2 Total Energy (a.u.)       :   -76.22804077052045
	SOS-OMP2 Total Energy (a.u.)       :   -76.21065070996092
	SCSN-OMP2 Total Energy (a.u.)      :   -76.11707096247099
	SCS-MI-OMP2 Total Energy (a.u.)    :   -76.15435073283014
	SCS-OMP2-VDW Total Energy (a.u.)   :   -76.24909575194987
	SOS-PI-OMP2 Total Energy (a.u.)    :   -76.24155058783496
	OMP2 Correlation Energy (a.u.)     :    -0.20570913159153
	Eomp2 - Eref (a.u.)                :    -0.20666957104891
	OMP2 Total Energy (a.u.)           :   -76.23192101376549
	============================================================================== 


*** tstop() called on bozkaya at Thu Apr  4 17:23:42 2013
Module time:
	user time   =       0.09 seconds =       0.00 minutes
	system time =       0.04 seconds =       0.00 minutes
	total time  =          1 seconds =       0.02 minutes
Total time:
	user time   =       3.90 seconds =       0.06 minutes
	system time =       0.68 seconds =       0.01 minutes
	total time  =          4 seconds =       0.07 minutes

-------------------------------------------------------------

  Computing gradient from energies (fd_1_0).
	Using 3-point formula.
	Energy without displacement:  -76.2106507100
	Check energies below for precision!
	Forces are for mass-weighted, symmetry-adapted cartesians (in au).

	 Coord      Energy(-)        Energy(+)        Force
	    0    -76.2106472084   -76.2106475599    -0.0000351490
	    1    -76.2106451144   -76.2106463587    -0.0001244298

	Gradient saved to wavefunction.

-------------------------------------------------------------

			-----------------------------------------
			 OPTKING 2.0: for geometry optimizations 
			  - R.A. King,  Bethel University        
			-----------------------------------------

	Previous internal coordinate definitions found.
	---Fragment 1 Geometry and Gradient---
	 O           0.0000000000        0.0000000000       -0.1282311035
	 H           0.0000000000       -1.4195256063        1.0175603335
	 H           0.0000000000        1.4195256063        1.0175603335
	             0.0000000000        0.0000000000       -0.0000470270
	             0.0000000000       -0.0000883287        0.0000235135
	             0.0000000000        0.0000883287        0.0000235135

	---Fragment 1 Intrafragment Coordinates---
	 - Coordinate -           - BOHR/RAD -       - ANG/DEG -
	 R(1,2)           =         1.824251	       0.965352
	 R(1,3)           =         1.824251	       0.965352
	 B(2,1,3)         =         1.783403	     102.181489

	Current energy   :       -76.2106507100

	Energy change for the previous step:
		Projected    :        -0.0000042153
		Actual       :        -0.0000040429
	Energy ratio indicates good step: Trust radius increased to 1.000e+00.


	Performing BFGS update with previous 1 gradient(s).
	Going to follow RFO solution 1.
	Projected energy change by RFO approximation:        -0.0000000245

	Back-transformation to cartesian coordinates...
	Successfully converged to displaced geometry.

	---Internal Coordinate Step in ANG or DEG, aJ/ANG or AJ/DEG ---
	 ----------------------------------------------------------------------
	 Coordinate             Previous        Force       Change         New 
	 ----------             --------       ------       ------       ------
	 R(1,2)          =      0.965352    -0.000688    -0.000073     0.965279
	 R(1,3)          =      0.965352    -0.000688    -0.000073     0.965279
	 B(2,1,3)        =    102.181489    -0.000005    -0.021891   102.159597
	 ----------------------------------------------------------------------

  ==> Convergence Check <==

  Measures of convergence in internal coordinates in au.
  Criteria marked as inactive (o), active & met (*), and active & unmet ( ).
  ---------------------------------------------------------------------------------------------
   Step     Total Energy     Delta E     MAX Force     RMS Force      MAX Disp      RMS Disp   
  ---------------------------------------------------------------------------------------------
    Convergence Criteria    1.00e-06 *    3.00e-04 *             o    1.20e-03 *             o
  ---------------------------------------------------------------------------------------------
      3     -76.21065071   -4.04e-06      8.35e-05 *    7.86e-05 o    3.82e-04 *    2.48e-04 o  ~
  ---------------------------------------------------------------------------------------------


  **** Optimization is complete! ****

  ==> Optimization Summary <==

  Measures of convergence in internal coordinates in au.
  --------------------------------------------------------------------------------------------------------------- ~
   Step         Total Energy             Delta E       MAX Force       RMS Force        MAX Disp        RMS Disp  ~
  --------------------------------------------------------------------------------------------------------------- ~
      1     -76.210443675149    -76.210443675149      0.00618113      0.00613725      0.03771734      0.02357091  ~
      2     -76.210646667067     -0.000202991917      0.00136264      0.00112498      0.00284404      0.00269161  ~
      3     -76.210650709961     -0.000004042894      0.00008350      0.00007862      0.00038208      0.00024773  ~
  --------------------------------------------------------------------------------------------------------------- ~

	Writing optimization data to binary file.
	Final energy is    -76.2106507099609
	Final (previous) structure:
	Cartesian Geometry (in Angstrom)
	    O     0.0000000000   0.0000000000  -0.0678569826
	    H     0.0000000000  -0.7511806552   0.5384697780
	    H     0.0000000000   0.7511806552   0.5384697780
	Saving final (previous) structure.
			--------------------------
			 OPTKING Finished Execution 
			--------------------------

    Final optimized geometry and variables:
    Molecular point group: c2v
    Full point group: C2v

    Geometry (in Angstrom), charge = 0, multiplicity = 1:

    O       
    H             1    0.965352
    H             1    0.965352      2  102.181489


*** PSI4 exiting successfully. Buy a developer a beer!
