
    -----------------------------------------------------------------------
          Psi4: An Open-Source Ab Initio Electronic Structure Package
                               Psi4 1.1rc3.dev5 

                         Git: Rev {master} 3fbd859 


    R. M. Parrish, L. A. Burns, D. G. A. Smith, A. C. Simmonett,
    A. E. DePrince III, E. G. Hohenstein, U. Bozkaya, A. Yu. Sokolov,
    R. Di Remigio, R. M. Richard, J. F. Gonthier, A. M. James,
    H. R. McAlexander, A. Kumar, M. Saitow, X. Wang, B. P. Pritchard,
    P. Verma, H. F. Schaefer III, K. Patkowski, R. A. King, E. F. Valeev,
    F. A. Evangelista, J. M. Turney, T. D. Crawford, and C. D. Sherrill,
    J. Chem. Theory Comput. in press (2017).
    (doi: 10.1021/acs.jctc.7b00174)

    -----------------------------------------------------------------------


    Psi4 started on: Monday, 15 May 2017 03:38PM

    Process ID:  15013
    PSIDATADIR: /home/psilocaluser/gits/hrw-direct/objdir4/stage/usr/local/psi4/share/psi4
    Memory:     500.0 MiB
    Threads:    1
    
  ==> Input File <==

--------------------------------------------------------------------------
#! Compute the IRC for HOOH torsional rotation at the RHF/DZP level of theory. 
# Print
# the path to a trajectory file for visualization
# in Jmol.
# grep '@IRC' on the output to see a nice printout
# of the progress of your IRC computation.

molecule h2o2 {
  H     0.0000000000   0.9803530335  -0.8498671785
  O     0.0000000000   0.6988545188   0.0536419016
  O     0.0000000000  -0.6988545188   0.0536419016
  H     0.0000000000  -0.9803530335  -0.8498671785
}

# g_convergence needs to be tight for IRCs:
set g_convergence gau_verytight

set {
  basis                      dzp
  opt_type                   irc
  geom_maxiter               50
  irc_direction              backward
}

frequencies('scf', dertype=1)

# Lower point group from C2v to C2
h2o2.reset_point_group('c2')

energy = optimize('scf')

compare_values(-150.8200278868627, energy, 5, "Energy of last IRC point")  #TEST
--------------------------------------------------------------------------
hessian() will perform frequency computation by finite difference of analytic gradients.

-------------------------------------------------------------

  Using finite-differences of gradients to determine vibrational frequencies and 
  normal modes.  Resulting frequencies are only valid at stationary points.
	Generating geometries for use with 3-point formula.
	Displacement size will be 5.00e-03.
	Number of atoms is 4.
	Number of irreps is 4.
	Number of SALCS is 6.
	Index of salcs per irrep:
	 1 :  0  1  2 
	 2 :  3 
	 3 : 
	 4 :  4  5 
	Number of SALC's per irrep:
		 Irrep 1: 3
		 Irrep 2: 1
		 Irrep 3: 0
		 Irrep 4: 2
	Number of geometries (including reference) is 10.
	Number of displacements per irrep:
	  Irrep 1: 6
	  Irrep 2: 1
	  Irrep 3: 0
	  Irrep 4: 2

-------------------------------------------------------------

  //>>>>>>>>>>>>>>>>>>>>>>>>>>>>>>>>>>>//
  //    Loading displacement 1 of 10   //
  //<<<<<<<<<<<<<<<<<<<<<<<<<<<<<<<<<<<//
gradient() will perform analytic gradient computation.

*** tstart() called on psinet
*** at Mon May 15 15:38:09 2017

   => Loading Basis Set <=

    Name: DZP
    Role: ORBITAL
    Keyword: BASIS
    atoms 1, 4 entry H          line    16 file /home/psilocaluser/gits/hrw-direct/objdir4/stage/usr/local/psi4/share/psi4/basis/dzp.gbs 
    atoms 2-3  entry O          line   121 file /home/psilocaluser/gits/hrw-direct/objdir4/stage/usr/local/psi4/share/psi4/basis/dzp.gbs 

    There are an even number of electrons - assuming singlet.
    Specify the multiplicity in the molecule input block.


         ---------------------------------------------------------
                                   SCF
            by Justin Turney, Rob Parrish, and Andy Simmonett
                              RHF Reference
                        1 Threads,    500 MiB Core
         ---------------------------------------------------------

  ==> Geometry <==

    Molecular point group: c2v
    Full point group: C2v

    Geometry (in Angstrom), charge = 0, multiplicity = 1:

       Center              X                  Y                   Z               Mass       
    ------------   -----------------  -----------------  -----------------  -----------------
           H         -0.000000000000     0.978489386875    -0.849954236217     1.007825032070
           O         -0.000000000000     0.698854518800     0.053554843883    15.994914619560
           O          0.000000000000    -0.698854518800     0.053554843883    15.994914619560
           H          0.000000000000    -0.978489386875    -0.849954236217     1.007825032070

  Running in c2v symmetry.

  Rotational constants: A =     10.89064  B =      0.96035  C =      0.88253 [cm^-1]
  Rotational constants: A = 326493.09066  B =  28790.57931  C =  26457.52117 [MHz]
  Nuclear repulsion =   37.897168242841325

  Charge       = 0
  Multiplicity = 1
  Electrons    = 18
  Nalpha       = 9
  Nbeta        = 9

  ==> Algorithm <==

  SCF Algorithm Type is DF.
  DIIS enabled.
  MOM disabled.
  Fractional occupation disabled.
  Guess Type is SAD.
  Energy threshold   = 1.00e-08
  Density threshold  = 1.00e-08
  Integral threshold = 0.00e+00

  ==> Primary Basis <==

  Basis Set: DZP
    Blend: DZP
    Number of shells: 20
    Number of basis function: 42
    Number of Cartesian functions: 42
    Spherical Harmonics?: false
    Max angular momentum: 2

   => Loading Basis Set <=

    Name: (DZP AUX)
    Role: JKFIT
    Keyword: DF_BASIS_SCF
    atoms 1, 4 entry H          line    22 file /home/psilocaluser/gits/hrw-direct/objdir4/stage/usr/local/psi4/share/psi4/basis/def2-qzvpp-jkfit.gbs 
    atoms 2-3  entry O          line   322 file /home/psilocaluser/gits/hrw-direct/objdir4/stage/usr/local/psi4/share/psi4/basis/def2-qzvpp-jkfit.gbs 

  ==> Pre-Iterations <==

   -------------------------------------------------------
    Irrep   Nso     Nmo     Nalpha   Nbeta   Ndocc  Nsocc
   -------------------------------------------------------
     A1        16      16       0       0       0       0
     A2         5       5       0       0       0       0
     B1         5       5       0       0       0       0
     B2        16      16       0       0       0       0
   -------------------------------------------------------
    Total      42      42       9       9       9       0
   -------------------------------------------------------

  ==> Integral Setup <==

  ==> DFJK: Density-Fitted J/K Matrices <==

    J tasked:                  Yes
    K tasked:                  Yes
    wK tasked:                  No
    OpenMP threads:              1
    Integrals threads:           1
    Memory (MB):               375
    Algorithm:                Core
    Integral Cache:           NONE
    Schwarz Cutoff:          1E-12
    Fitting Condition:       1E-12

   => Auxiliary Basis Set <=

  Basis Set: (DZP AUX)
    Blend: DEF2-QZVPP-JKFIT
    Number of shells: 62
    Number of basis function: 226
    Number of Cartesian functions: 226
    Spherical Harmonics?: false
    Max angular momentum: 4

  Minimum eigenvalue in the overlap matrix is 9.4194081030E-03.
  Using Symmetric Orthogonalization.

  SCF Guess: Superposition of Atomic Densities via on-the-fly atomic UHF.

  ==> Iterations <==

                           Total Energy        Delta E     RMS |[F,P]|

   @DF-RHF iter   0:  -150.75612804379639   -1.50756e+02   8.39124e-02 
   @DF-RHF iter   1:  -150.78448760234221   -2.83596e-02   9.61085e-03 
   @DF-RHF iter   2:  -150.80489884877116   -2.04112e-02   2.24510e-03 DIIS
   @DF-RHF iter   3:  -150.80627452982699   -1.37568e-03   7.76419e-04 DIIS
   @DF-RHF iter   4:  -150.80649784463344   -2.23315e-04   2.55864e-04 DIIS
   @DF-RHF iter   5:  -150.80653879539489   -4.09508e-05   7.46252e-05 DIIS
   @DF-RHF iter   6:  -150.80654442941824   -5.63402e-06   1.50067e-05 DIIS
   @DF-RHF iter   7:  -150.80654464329743   -2.13879e-07   3.38801e-06 DIIS
   @DF-RHF iter   8:  -150.80654465323661   -9.93919e-09   3.78028e-07 DIIS
   @DF-RHF iter   9:  -150.80654465332557   -8.89600e-11   6.26365e-08 DIIS
   @DF-RHF iter  10:  -150.80654465332776   -2.18847e-12   1.17057e-08 DIIS
   @DF-RHF iter  11:  -150.80654465332765    1.13687e-13   2.11719e-09 DIIS

  ==> Post-Iterations <==

    Orbital Energies (a.u.)
    -----------------------

    Doubly Occupied:                                                      

       1A1   -20.621392     1B2   -20.621060     2A1    -1.500794  
       2B2    -1.213863     3A1    -0.787657     1B1    -0.638699  
       4A1    -0.611647     3B2    -0.571687     1A2    -0.448425  

    Virtual:                                                              

       5A1     0.196380     4B2     0.233920     5B2     0.363604  
       6B2     0.797414     2B1     0.838742     6A1     0.843844  
       7A1     0.898943     2A2     0.923742     8A1     1.028215  
       7B2     1.058462     9A1     1.124135     8B2     1.149521  
       9B2     1.493852     3B1     1.719942    10A1     1.727751  
       3A2     1.885559     4B1     1.905289    10B2     2.115453  
      11A1     2.362947    12A1     2.532082    11B2     2.769662  
      13A1     2.778338     5B1     2.778866     4A2     2.804499  
       5A2     2.974964    12B2     3.002932    13B2     3.319543  
      14A1     3.595908    14B2     3.777649    15A1     4.062491  
      15B2     4.514247    16A1    45.233732    16B2    45.429773  

    Final Occupation by Irrep:
             A1    A2    B1    B2 
    DOCC [     4,    1,    1,    3 ]

  Energy converged.

  @DF-RHF Final Energy:  -150.80654465332765

   => Energetics <=

    Nuclear Repulsion Energy =             37.8971682428413246
    One-Electron Energy =                -283.3769757585014872
    Two-Electron Energy =                  94.6732628623324928
    DFT Exchange-Correlation Energy =       0.0000000000000000
    Empirical Dispersion Energy =           0.0000000000000000
    PCM Polarization Energy =               0.0000000000000000
    EFP Energy =                            0.0000000000000000
    Total Energy =                       -150.8065446533276486



Properties will be evaluated at   0.000000,   0.000000,   0.000000 Bohr

Properties computed using the SCF density matrix

  Nuclear Dipole Moment: (a.u.)
     X:    -0.0000      Y:    -0.0000      Z:    -1.5931

  Electronic Dipole Moment: (a.u.)
     X:     0.0000      Y:     0.0000      Z:     0.2115

  Dipole Moment: (a.u.)
     X:    -0.0000      Y:    -0.0000      Z:    -1.3816     Total:     1.3816

  Dipole Moment: (Debye)
     X:    -0.0000      Y:    -0.0000      Z:    -3.5116     Total:     3.5116


*** tstop() called on psinet at Mon May 15 15:38:09 2017
Module time:
	user time   =       0.59 seconds =       0.01 minutes
	system time =       0.02 seconds =       0.00 minutes
	total time  =          0 seconds =       0.00 minutes
Total time:
	user time   =       0.59 seconds =       0.01 minutes
	system time =       0.02 seconds =       0.00 minutes
	total time  =          0 seconds =       0.00 minutes

*** tstart() called on psinet
*** at Mon May 15 15:38:09 2017


         ------------------------------------------------------------
                                   SCF GRAD                          
                          Rob Parrish, Justin Turney,                
                       Andy Simmonett, and Alex Sokolov              
         ------------------------------------------------------------

  ==> Geometry <==

    Molecular point group: c2v
    Full point group: C2v

    Geometry (in Angstrom), charge = 0, multiplicity = 1:

       Center              X                  Y                   Z               Mass       
    ------------   -----------------  -----------------  -----------------  -----------------
           H         -0.000000000000     0.978489386875    -0.849954236217     1.007825032070
           O         -0.000000000000     0.698854518800     0.053554843883    15.994914619560
           O          0.000000000000    -0.698854518800     0.053554843883    15.994914619560
           H          0.000000000000    -0.978489386875    -0.849954236217     1.007825032070

  Nuclear repulsion =   37.897168242841325

  ==> Basis Set <==

  Basis Set: DZP
    Blend: DZP
    Number of shells: 20
    Number of basis function: 42
    Number of Cartesian functions: 42
    Spherical Harmonics?: false
    Max angular momentum: 2

  ==> DFJKGrad: Density-Fitted SCF Gradients <==

    Gradient:                    1
    J tasked:                  Yes
    K tasked:                  Yes
    wK tasked:                  No
    OpenMP threads:              1
    Integrals threads:           1
    Memory (MB):               375
    Schwarz Cutoff:          0E+00
    Fitting Condition:       1E-12

   => Auxiliary Basis Set <=

  Basis Set: (DZP AUX)
    Blend: DEF2-QZVPP-JKFIT
    Number of shells: 62
    Number of basis function: 226
    Number of Cartesian functions: 226
    Spherical Harmonics?: false
    Max angular momentum: 4


  -Total Gradient:
     Atom            X                  Y                   Z
    ------   -----------------  -----------------  -----------------
       1        0.000000000000    -0.000442255987     0.000517619286
       2       -0.000000000000     0.000234616864    -0.000517619286
       3        0.000000000000    -0.000234616864    -0.000517619286
       4       -0.000000000000     0.000442255987     0.000517619286


*** tstop() called on psinet at Mon May 15 15:38:10 2017
Module time:
	user time   =       0.21 seconds =       0.00 minutes
	system time =       0.01 seconds =       0.00 minutes
	total time  =          1 seconds =       0.02 minutes
Total time:
	user time   =       0.81 seconds =       0.01 minutes
	system time =       0.03 seconds =       0.00 minutes
	total time  =          1 seconds =       0.02 minutes

  //>>>>>>>>>>>>>>>>>>>>>>>>>>>>>>>>>>>//
  //    Loading displacement 2 of 10   //
  //<<<<<<<<<<<<<<<<<<<<<<<<<<<<<<<<<<<//
gradient() will perform analytic gradient computation.

*** tstart() called on psinet
*** at Mon May 15 15:38:10 2017

   => Loading Basis Set <=

    Name: DZP
    Role: ORBITAL
    Keyword: BASIS
    atoms 1, 4 entry H          line    16 file /home/psilocaluser/gits/hrw-direct/objdir4/stage/usr/local/psi4/share/psi4/basis/dzp.gbs 
    atoms 2-3  entry O          line   121 file /home/psilocaluser/gits/hrw-direct/objdir4/stage/usr/local/psi4/share/psi4/basis/dzp.gbs 


         ---------------------------------------------------------
                                   SCF
            by Justin Turney, Rob Parrish, and Andy Simmonett
                              RHF Reference
                        1 Threads,    500 MiB Core
         ---------------------------------------------------------

  ==> Geometry <==

    Molecular point group: c2v
    Full point group: C2v

    Geometry (in Angstrom), charge = 0, multiplicity = 1:

       Center              X                  Y                   Z               Mass       
    ------------   -----------------  -----------------  -----------------  -----------------
           H         -0.000000000000     0.982216680125    -0.849954236217     1.007825032070
           O         -0.000000000000     0.698854518800     0.053554843883    15.994914619560
           O          0.000000000000    -0.698854518800     0.053554843883    15.994914619560
           H          0.000000000000    -0.982216680125    -0.849954236217     1.007825032070

  Running in c2v symmetry.

  Rotational constants: A =     10.89064  B =      0.95955  C =      0.88185 [cm^-1]
  Rotational constants: A = 326493.09066  B =  28766.43913  C =  26437.13351 [MHz]
  Nuclear repulsion =   37.878017099166740

  Charge       = 0
  Multiplicity = 1
  Electrons    = 18
  Nalpha       = 9
  Nbeta        = 9

  ==> Algorithm <==

  SCF Algorithm Type is DF.
  DIIS enabled.
  MOM disabled.
  Fractional occupation disabled.
  Guess Type is SAD.
  Energy threshold   = 1.00e-08
  Density threshold  = 1.00e-08
  Integral threshold = 0.00e+00

  ==> Primary Basis <==

  Basis Set: DZP
    Blend: DZP
    Number of shells: 20
    Number of basis function: 42
    Number of Cartesian functions: 42
    Spherical Harmonics?: false
    Max angular momentum: 2

   => Loading Basis Set <=

    Name: (DZP AUX)
    Role: JKFIT
    Keyword: DF_BASIS_SCF
    atoms 1, 4 entry H          line    22 file /home/psilocaluser/gits/hrw-direct/objdir4/stage/usr/local/psi4/share/psi4/basis/def2-qzvpp-jkfit.gbs 
    atoms 2-3  entry O          line   322 file /home/psilocaluser/gits/hrw-direct/objdir4/stage/usr/local/psi4/share/psi4/basis/def2-qzvpp-jkfit.gbs 

  ==> Pre-Iterations <==

   -------------------------------------------------------
    Irrep   Nso     Nmo     Nalpha   Nbeta   Ndocc  Nsocc
   -------------------------------------------------------
     A1        16      16       0       0       0       0
     A2         5       5       0       0       0       0
     B1         5       5       0       0       0       0
     B2        16      16       0       0       0       0
   -------------------------------------------------------
    Total      42      42       9       9       9       0
   -------------------------------------------------------

  ==> Integral Setup <==

  ==> DFJK: Density-Fitted J/K Matrices <==

    J tasked:                  Yes
    K tasked:                  Yes
    wK tasked:                  No
    OpenMP threads:              1
    Integrals threads:           1
    Memory (MB):               375
    Algorithm:                Core
    Integral Cache:           NONE
    Schwarz Cutoff:          1E-12
    Fitting Condition:       1E-12

   => Auxiliary Basis Set <=

  Basis Set: (DZP AUX)
    Blend: DEF2-QZVPP-JKFIT
    Number of shells: 62
    Number of basis function: 226
    Number of Cartesian functions: 226
    Spherical Harmonics?: false
    Max angular momentum: 4

  Minimum eigenvalue in the overlap matrix is 9.4363878123E-03.
  Using Symmetric Orthogonalization.

  SCF Guess: Superposition of Atomic Densities via on-the-fly atomic UHF.

  ==> Iterations <==

                           Total Energy        Delta E     RMS |[F,P]|

   @DF-RHF iter   0:  -150.75335985940487   -1.50753e+02   8.37296e-02 
   @DF-RHF iter   1:  -150.78451857475267   -3.11587e-02   9.60453e-03 
   @DF-RHF iter   2:  -150.80490039152929   -2.03818e-02   2.24392e-03 DIIS
   @DF-RHF iter   3:  -150.80627462385490   -1.37423e-03   7.77238e-04 DIIS
   @DF-RHF iter   4:  -150.80649782302416   -2.23199e-04   2.55662e-04 DIIS
   @DF-RHF iter   5:  -150.80653878613708   -4.09631e-05   7.46102e-05 DIIS
   @DF-RHF iter   6:  -150.80654442122596   -5.63509e-06   1.50004e-05 DIIS
   @DF-RHF iter   7:  -150.80654463515401   -2.13928e-07   3.39442e-06 DIIS
   @DF-RHF iter   8:  -150.80654464515081   -9.99680e-09   3.79580e-07 DIIS
   @DF-RHF iter   9:  -150.80654464524073   -8.99263e-11   6.28266e-08 DIIS
   @DF-RHF iter  10:  -150.80654464524278   -2.04636e-12   1.17500e-08 DIIS
   @DF-RHF iter  11:  -150.80654464524287   -8.52651e-14   2.12820e-09 DIIS

  ==> Post-Iterations <==

    Orbital Energies (a.u.)
    -----------------------

    Doubly Occupied:                                                      

       1A1   -20.621387     1B2   -20.621055     2A1    -1.500176  
       2B2    -1.213484     3A1    -0.787312     1B1    -0.638511  
       4A1    -0.611405     3B2    -0.571142     1A2    -0.448295  

    Virtual:                                                              

       5A1     0.196473     4B2     0.233433     5B2     0.363464  
       6B2     0.797506     2B1     0.838875     6A1     0.844179  
       7A1     0.899446     2A2     0.923776     8A1     1.025963  
       7B2     1.059246     9A1     1.123963     8B2     1.148930  
       9B2     1.493834     3B1     1.719573    10A1     1.730280  
       3A2     1.885694     4B1     1.906086    10B2     2.113661  
      11A1     2.362409    12A1     2.529372    11B2     2.767919  
       5B1     2.777264    13A1     2.777373     4A2     2.803634  
       5A2     2.974729    12B2     3.002282    13B2     3.319151  
      14A1     3.592302    14B2     3.776681    15A1     4.062168  
      15B2     4.514511    16A1    45.233492    16B2    45.429584  

    Final Occupation by Irrep:
             A1    A2    B1    B2 
    DOCC [     4,    1,    1,    3 ]

  Energy converged.

  @DF-RHF Final Energy:  -150.80654464524287

   => Energetics <=

    Nuclear Repulsion Energy =             37.8780170991667404
    One-Electron Energy =                -283.3435870338047380
    Two-Electron Energy =                  94.6590252893951174
    DFT Exchange-Correlation Energy =       0.0000000000000000
    Empirical Dispersion Energy =           0.0000000000000000
    PCM Polarization Energy =               0.0000000000000000
    EFP Energy =                            0.0000000000000000
    Total Energy =                       -150.8065446452428660



Properties will be evaluated at   0.000000,   0.000000,   0.000000 Bohr

Properties computed using the SCF density matrix

  Nuclear Dipole Moment: (a.u.)
     X:     0.0000      Y:     0.0000      Z:    -1.5931

  Electronic Dipole Moment: (a.u.)
     X:     0.0000      Y:     0.0000      Z:     0.2111

  Dipole Moment: (a.u.)
     X:     0.0000      Y:     0.0000      Z:    -1.3820     Total:     1.3820

  Dipole Moment: (Debye)
     X:     0.0000      Y:     0.0000      Z:    -3.5127     Total:     3.5127


*** tstop() called on psinet at Mon May 15 15:38:10 2017
Module time:
	user time   =       0.55 seconds =       0.01 minutes
	system time =       0.02 seconds =       0.00 minutes
	total time  =          0 seconds =       0.00 minutes
Total time:
	user time   =       1.37 seconds =       0.02 minutes
	system time =       0.05 seconds =       0.00 minutes
	total time  =          1 seconds =       0.02 minutes

*** tstart() called on psinet
*** at Mon May 15 15:38:10 2017


         ------------------------------------------------------------
                                   SCF GRAD                          
                          Rob Parrish, Justin Turney,                
                       Andy Simmonett, and Alex Sokolov              
         ------------------------------------------------------------

  ==> Geometry <==

    Molecular point group: c2v
    Full point group: C2v

    Geometry (in Angstrom), charge = 0, multiplicity = 1:

       Center              X                  Y                   Z               Mass       
    ------------   -----------------  -----------------  -----------------  -----------------
           H         -0.000000000000     0.982216680125    -0.849954236217     1.007825032070
           O         -0.000000000000     0.698854518800     0.053554843883    15.994914619560
           O          0.000000000000    -0.698854518800     0.053554843883    15.994914619560
           H          0.000000000000    -0.982216680125    -0.849954236217     1.007825032070

  Nuclear repulsion =   37.878017099166740

  ==> Basis Set <==

  Basis Set: DZP
    Blend: DZP
    Number of shells: 20
    Number of basis function: 42
    Number of Cartesian functions: 42
    Spherical Harmonics?: false
    Max angular momentum: 2

  ==> DFJKGrad: Density-Fitted SCF Gradients <==

    Gradient:                    1
    J tasked:                  Yes
    K tasked:                  Yes
    wK tasked:                  No
    OpenMP threads:              1
    Integrals threads:           1
    Memory (MB):               375
    Schwarz Cutoff:          0E+00
    Fitting Condition:       1E-12

   => Auxiliary Basis Set <=

  Basis Set: (DZP AUX)
    Blend: DEF2-QZVPP-JKFIT
    Number of shells: 62
    Number of basis function: 226
    Number of Cartesian functions: 226
    Spherical Harmonics?: false
    Max angular momentum: 4


  -Total Gradient:
     Atom            X                  Y                   Z
    ------   -----------------  -----------------  -----------------
       1       -0.000000000000     0.000444116614    -0.000521717790
       2        0.000000000000    -0.000208609188     0.000521717790
       3       -0.000000000000     0.000208609188     0.000521717790
       4        0.000000000000    -0.000444116614    -0.000521717790


*** tstop() called on psinet at Mon May 15 15:38:11 2017
Module time:
	user time   =       0.21 seconds =       0.00 minutes
	system time =       0.01 seconds =       0.00 minutes
	total time  =          1 seconds =       0.02 minutes
Total time:
	user time   =       1.58 seconds =       0.03 minutes
	system time =       0.06 seconds =       0.00 minutes
	total time  =          2 seconds =       0.03 minutes

  //>>>>>>>>>>>>>>>>>>>>>>>>>>>>>>>>>>>//
  //    Loading displacement 3 of 10   //
  //<<<<<<<<<<<<<<<<<<<<<<<<<<<<<<<<<<<//
gradient() will perform analytic gradient computation.

*** tstart() called on psinet
*** at Mon May 15 15:38:11 2017

   => Loading Basis Set <=

    Name: DZP
    Role: ORBITAL
    Keyword: BASIS
    atoms 1, 4 entry H          line    16 file /home/psilocaluser/gits/hrw-direct/objdir4/stage/usr/local/psi4/share/psi4/basis/dzp.gbs 
    atoms 2-3  entry O          line   121 file /home/psilocaluser/gits/hrw-direct/objdir4/stage/usr/local/psi4/share/psi4/basis/dzp.gbs 


         ---------------------------------------------------------
                                   SCF
            by Justin Turney, Rob Parrish, and Andy Simmonett
                              RHF Reference
                        1 Threads,    500 MiB Core
         ---------------------------------------------------------

  ==> Geometry <==

    Molecular point group: c2v
    Full point group: C2v

    Geometry (in Angstrom), charge = 0, multiplicity = 1:

       Center              X                  Y                   Z               Mass       
    ------------   -----------------  -----------------  -----------------  -----------------
           H         -0.000000000000     0.980353033500    -0.851761806021     1.007825032070
           O         -0.000000000000     0.698854518800     0.053668737213    15.994914619560
           O          0.000000000000    -0.698854518800     0.053668737213    15.994914619560
           H          0.000000000000    -0.980353033500    -0.851761806021     1.007825032070

  Running in c2v symmetry.

  Rotational constants: A =     10.84446  B =      0.95995  C =      0.88188 [cm^-1]
  Rotational constants: A = 325108.82374  B =  28778.51563  C =  26438.21444 [MHz]
  Nuclear repulsion =   37.868169331549140

  Charge       = 0
  Multiplicity = 1
  Electrons    = 18
  Nalpha       = 9
  Nbeta        = 9

  ==> Algorithm <==

  SCF Algorithm Type is DF.
  DIIS enabled.
  MOM disabled.
  Fractional occupation disabled.
  Guess Type is SAD.
  Energy threshold   = 1.00e-08
  Density threshold  = 1.00e-08
  Integral threshold = 0.00e+00

  ==> Primary Basis <==

  Basis Set: DZP
    Blend: DZP
    Number of shells: 20
    Number of basis function: 42
    Number of Cartesian functions: 42
    Spherical Harmonics?: false
    Max angular momentum: 2

   => Loading Basis Set <=

    Name: (DZP AUX)
    Role: JKFIT
    Keyword: DF_BASIS_SCF
    atoms 1, 4 entry H          line    22 file /home/psilocaluser/gits/hrw-direct/objdir4/stage/usr/local/psi4/share/psi4/basis/def2-qzvpp-jkfit.gbs 
    atoms 2-3  entry O          line   322 file /home/psilocaluser/gits/hrw-direct/objdir4/stage/usr/local/psi4/share/psi4/basis/def2-qzvpp-jkfit.gbs 

  ==> Pre-Iterations <==

   -------------------------------------------------------
    Irrep   Nso     Nmo     Nalpha   Nbeta   Ndocc  Nsocc
   -------------------------------------------------------
     A1        16      16       0       0       0       0
     A2         5       5       0       0       0       0
     B1         5       5       0       0       0       0
     B2        16      16       0       0       0       0
   -------------------------------------------------------
    Total      42      42       9       9       9       0
   -------------------------------------------------------

  ==> Integral Setup <==

  ==> DFJK: Density-Fitted J/K Matrices <==

    J tasked:                  Yes
    K tasked:                  Yes
    wK tasked:                  No
    OpenMP threads:              1
    Integrals threads:           1
    Memory (MB):               375
    Algorithm:                Core
    Integral Cache:           NONE
    Schwarz Cutoff:          1E-12
    Fitting Condition:       1E-12

   => Auxiliary Basis Set <=

  Basis Set: (DZP AUX)
    Blend: DEF2-QZVPP-JKFIT
    Number of shells: 62
    Number of basis function: 226
    Number of Cartesian functions: 226
    Spherical Harmonics?: false
    Max angular momentum: 4

  Minimum eigenvalue in the overlap matrix is 9.4314452743E-03.
  Using Symmetric Orthogonalization.

  SCF Guess: Superposition of Atomic Densities via on-the-fly atomic UHF.

  ==> Iterations <==

                           Total Energy        Delta E     RMS |[F,P]|

   @DF-RHF iter   0:  -150.98636109842619   -1.50986e+02   9.08448e-02 
   @DF-RHF iter   1:  -150.76229823020370    2.24063e-01   1.26543e-02 
   @DF-RHF iter   2:  -150.80366569896651   -4.13675e-02   3.05029e-03 DIIS
   @DF-RHF iter   3:  -150.80610999474791   -2.44430e-03   1.01265e-03 DIIS
   @DF-RHF iter   4:  -150.80648514656409   -3.75152e-04   3.61563e-04 DIIS
   @DF-RHF iter   5:  -150.80653603246816   -5.08859e-05   6.18100e-05 DIIS
   @DF-RHF iter   6:  -150.80653846731931   -2.43485e-06   7.62178e-06 DIIS
   @DF-RHF iter   7:  -150.80653850249467   -3.51754e-08   1.14441e-06 DIIS
   @DF-RHF iter   8:  -150.80653850353369   -1.03901e-09   2.12691e-07 DIIS
   @DF-RHF iter   9:  -150.80653850357371   -4.00178e-11   4.43621e-08 DIIS
   @DF-RHF iter  10:  -150.80653850357544   -1.73372e-12   1.34314e-08 DIIS
   @DF-RHF iter  11:  -150.80653850357567   -2.27374e-13   2.31587e-09 DIIS

  ==> Post-Iterations <==

    Orbital Energies (a.u.)
    -----------------------

    Doubly Occupied:                                                      

       1A1   -20.621499     1B2   -20.621167     2A1    -1.500072  
       2B2    -1.212863     3A1    -0.786812     1B1    -0.638517  
       4A1    -0.611415     3B2    -0.571011     1A2    -0.448250  

    Virtual:                                                              

       5A1     0.195849     4B2     0.233551     5B2     0.363245  
       6B2     0.797354     2B1     0.838848     6A1     0.844263  
       7A1     0.899241     2A2     0.923800     8A1     1.026611  
       7B2     1.058943     9A1     1.123059     8B2     1.147725  
       9B2     1.493922     3B1     1.719572    10A1     1.728657  
       3A2     1.885176     4B1     1.905630    10B2     2.113906  
      11A1     2.362569    12A1     2.528750    11B2     2.765727  
      13A1     2.775222     5B1     2.776144     4A2     2.804291  
       5A2     2.972589    12B2     3.002159    13B2     3.317367  
      14A1     3.589756    14B2     3.773111    15A1     4.061893  
      15B2     4.513924    16A1    45.233117    16B2    45.429491  

    Final Occupation by Irrep:
             A1    A2    B1    B2 
    DOCC [     4,    1,    1,    3 ]

  Energy converged.

  @DF-RHF Final Energy:  -150.80653850357567

   => Energetics <=

    Nuclear Repulsion Energy =             37.8681693315491401
    One-Electron Energy =                -283.3261995825777149
    Two-Electron Energy =                  94.6514917474529085
    DFT Exchange-Correlation Energy =       0.0000000000000000
    Empirical Dispersion Energy =           0.0000000000000000
    PCM Polarization Energy =               0.0000000000000000
    EFP Energy =                            0.0000000000000000
    Total Energy =                       -150.8065385035756663



Properties will be evaluated at   0.000000,   0.000000,   0.000000 Bohr

Properties computed using the SCF density matrix

  Nuclear Dipole Moment: (a.u.)
     X:     0.0000      Y:    -0.0000      Z:    -1.5965

  Electronic Dipole Moment: (a.u.)
     X:     0.0000      Y:     0.0000      Z:     0.2134

  Dipole Moment: (a.u.)
     X:     0.0000      Y:    -0.0000      Z:    -1.3831     Total:     1.3831

  Dipole Moment: (Debye)
     X:     0.0000      Y:    -0.0000      Z:    -3.5154     Total:     3.5154


*** tstop() called on psinet at Mon May 15 15:38:11 2017
Module time:
	user time   =       0.56 seconds =       0.01 minutes
	system time =       0.02 seconds =       0.00 minutes
	total time  =          0 seconds =       0.00 minutes
Total time:
	user time   =       2.15 seconds =       0.04 minutes
	system time =       0.08 seconds =       0.00 minutes
	total time  =          2 seconds =       0.03 minutes

*** tstart() called on psinet
*** at Mon May 15 15:38:11 2017


         ------------------------------------------------------------
                                   SCF GRAD                          
                          Rob Parrish, Justin Turney,                
                       Andy Simmonett, and Alex Sokolov              
         ------------------------------------------------------------

  ==> Geometry <==

    Molecular point group: c2v
    Full point group: C2v

    Geometry (in Angstrom), charge = 0, multiplicity = 1:

       Center              X                  Y                   Z               Mass       
    ------------   -----------------  -----------------  -----------------  -----------------
           H         -0.000000000000     0.980353033500    -0.851761806021     1.007825032070
           O         -0.000000000000     0.698854518800     0.053668737213    15.994914619560
           O          0.000000000000    -0.698854518800     0.053668737213    15.994914619560
           H          0.000000000000    -0.980353033500    -0.851761806021     1.007825032070

  Nuclear repulsion =   37.868169331549140

  ==> Basis Set <==

  Basis Set: DZP
    Blend: DZP
    Number of shells: 20
    Number of basis function: 42
    Number of Cartesian functions: 42
    Spherical Harmonics?: false
    Max angular momentum: 2

  ==> DFJKGrad: Density-Fitted SCF Gradients <==

    Gradient:                    1
    J tasked:                  Yes
    K tasked:                  Yes
    wK tasked:                  No
    OpenMP threads:              1
    Integrals threads:           1
    Memory (MB):               375
    Schwarz Cutoff:          0E+00
    Fitting Condition:       1E-12

   => Auxiliary Basis Set <=

  Basis Set: (DZP AUX)
    Blend: DEF2-QZVPP-JKFIT
    Number of shells: 62
    Number of basis function: 226
    Number of Cartesian functions: 226
    Spherical Harmonics?: false
    Max angular momentum: 4


  -Total Gradient:
     Atom            X                  Y                   Z
    ------   -----------------  -----------------  -----------------
       1       -0.000000000000     0.000531184708    -0.002116031532
       2        0.000000000000    -0.000688474373     0.002116031532
       3       -0.000000000000     0.000688474373     0.002116031532
       4        0.000000000000    -0.000531184708    -0.002116031532


*** tstop() called on psinet at Mon May 15 15:38:11 2017
Module time:
	user time   =       0.22 seconds =       0.00 minutes
	system time =       0.00 seconds =       0.00 minutes
	total time  =          0 seconds =       0.00 minutes
Total time:
	user time   =       2.37 seconds =       0.04 minutes
	system time =       0.08 seconds =       0.00 minutes
	total time  =          2 seconds =       0.03 minutes

  //>>>>>>>>>>>>>>>>>>>>>>>>>>>>>>>>>>>//
  //    Loading displacement 4 of 10   //
  //<<<<<<<<<<<<<<<<<<<<<<<<<<<<<<<<<<<//
gradient() will perform analytic gradient computation.

*** tstart() called on psinet
*** at Mon May 15 15:38:11 2017

   => Loading Basis Set <=

    Name: DZP
    Role: ORBITAL
    Keyword: BASIS
    atoms 1, 4 entry H          line    16 file /home/psilocaluser/gits/hrw-direct/objdir4/stage/usr/local/psi4/share/psi4/basis/dzp.gbs 
    atoms 2-3  entry O          line   121 file /home/psilocaluser/gits/hrw-direct/objdir4/stage/usr/local/psi4/share/psi4/basis/dzp.gbs 


         ---------------------------------------------------------
                                   SCF
            by Justin Turney, Rob Parrish, and Andy Simmonett
                              RHF Reference
                        1 Threads,    500 MiB Core
         ---------------------------------------------------------

  ==> Geometry <==

    Molecular point group: c2v
    Full point group: C2v

    Geometry (in Angstrom), charge = 0, multiplicity = 1:

       Center              X                  Y                   Z               Mass       
    ------------   -----------------  -----------------  -----------------  -----------------
           H         -0.000000000000     0.980353033500    -0.848146666413     1.007825032070
           O         -0.000000000000     0.698854518800     0.053440950553    15.994914619560
           O          0.000000000000    -0.698854518800     0.053440950553    15.994914619560
           H          0.000000000000    -0.980353033500    -0.848146666413     1.007825032070

  Running in c2v symmetry.

  Rotational constants: A =     10.93711  B =      0.95995  C =      0.88249 [cm^-1]
  Rotational constants: A = 327886.21746  B =  28778.51563  C =  26456.43866 [MHz]
  Nuclear repulsion =   37.907096426335663

  Charge       = 0
  Multiplicity = 1
  Electrons    = 18
  Nalpha       = 9
  Nbeta        = 9

  ==> Algorithm <==

  SCF Algorithm Type is DF.
  DIIS enabled.
  MOM disabled.
  Fractional occupation disabled.
  Guess Type is SAD.
  Energy threshold   = 1.00e-08
  Density threshold  = 1.00e-08
  Integral threshold = 0.00e+00

  ==> Primary Basis <==

  Basis Set: DZP
    Blend: DZP
    Number of shells: 20
    Number of basis function: 42
    Number of Cartesian functions: 42
    Spherical Harmonics?: false
    Max angular momentum: 2

   => Loading Basis Set <=

    Name: (DZP AUX)
    Role: JKFIT
    Keyword: DF_BASIS_SCF
    atoms 1, 4 entry H          line    22 file /home/psilocaluser/gits/hrw-direct/objdir4/stage/usr/local/psi4/share/psi4/basis/def2-qzvpp-jkfit.gbs 
    atoms 2-3  entry O          line   322 file /home/psilocaluser/gits/hrw-direct/objdir4/stage/usr/local/psi4/share/psi4/basis/def2-qzvpp-jkfit.gbs 

  ==> Pre-Iterations <==

   -------------------------------------------------------
    Irrep   Nso     Nmo     Nalpha   Nbeta   Ndocc  Nsocc
   -------------------------------------------------------
     A1        16      16       0       0       0       0
     A2         5       5       0       0       0       0
     B1         5       5       0       0       0       0
     B2        16      16       0       0       0       0
   -------------------------------------------------------
    Total      42      42       9       9       9       0
   -------------------------------------------------------

  ==> Integral Setup <==

  ==> DFJK: Density-Fitted J/K Matrices <==

    J tasked:                  Yes
    K tasked:                  Yes
    wK tasked:                  No
    OpenMP threads:              1
    Integrals threads:           1
    Memory (MB):               375
    Algorithm:                Core
    Integral Cache:           NONE
    Schwarz Cutoff:          1E-12
    Fitting Condition:       1E-12

   => Auxiliary Basis Set <=

  Basis Set: (DZP AUX)
    Blend: DEF2-QZVPP-JKFIT
    Number of shells: 62
    Number of basis function: 226
    Number of Cartesian functions: 226
    Spherical Harmonics?: false
    Max angular momentum: 4

  Minimum eigenvalue in the overlap matrix is 9.4243061957E-03.
  Using Symmetric Orthogonalization.

  SCF Guess: Superposition of Atomic Densities via on-the-fly atomic UHF.

  ==> Iterations <==

                           Total Energy        Delta E     RMS |[F,P]|

   @DF-RHF iter   0:  -150.99617950309846   -1.50996e+02   8.58864e-02 
   @DF-RHF iter   1:  -150.75071703564151    2.45462e-01   1.40296e-02 
   @DF-RHF iter   2:  -150.80087069393898   -5.01537e-02   4.61251e-03 DIIS
   @DF-RHF iter   3:  -150.80576273681115   -4.89204e-03   1.37200e-03 DIIS
   @DF-RHF iter   4:  -150.80645250428273   -6.89767e-04   4.02378e-04 DIIS
   @DF-RHF iter   5:  -150.80653497397242   -8.24697e-05   7.17722e-05 DIIS
   @DF-RHF iter   6:  -150.80653840774352   -3.43377e-06   9.83623e-06 DIIS
   @DF-RHF iter   7:  -150.80653846855523   -6.08117e-08   1.75660e-06 DIIS
   @DF-RHF iter   8:  -150.80653847134511   -2.78987e-09   4.71638e-07 DIIS
   @DF-RHF iter   9:  -150.80653847157848   -2.33371e-10   9.47908e-08 DIIS
   @DF-RHF iter  10:  -150.80653847158771   -9.23706e-12   1.91065e-08 DIIS
   @DF-RHF iter  11:  -150.80653847158806   -3.41061e-13   2.31278e-09 DIIS

  ==> Post-Iterations <==

    Orbital Energies (a.u.)
    -----------------------

    Doubly Occupied:                                                      

       1A1   -20.621280     1B2   -20.620947     2A1    -1.500900  
       2B2    -1.214490     3A1    -0.788159     1B1    -0.638693  
       4A1    -0.611638     3B2    -0.571818     1A2    -0.448471  

    Virtual:                                                              

       5A1     0.197003     4B2     0.233802     5B2     0.363823  
       6B2     0.797567     2B1     0.838768     6A1     0.843758  
       7A1     0.899148     2A2     0.923717     8A1     1.027562  
       7B2     1.058768     9A1     1.125055     8B2     1.150733  
       9B2     1.493769     3B1     1.719948    10A1     1.729388  
       3A2     1.886081     4B1     1.905747    10B2     2.115198  
      11A1     2.362780    12A1     2.532713    11B2     2.771841  
       5B1     2.779989    13A1     2.780497     4A2     2.803848  
       5A2     2.977104    12B2     3.003070    13B2     3.321338  
      14A1     3.598508    14B2     3.781266    15A1     4.062767  
      15B2     4.514835    16A1    45.234109    16B2    45.429865  

    Final Occupation by Irrep:
             A1    A2    B1    B2 
    DOCC [     4,    1,    1,    3 ]

  Energy converged.

  @DF-RHF Final Energy:  -150.80653847158806

   => Energetics <=

    Nuclear Repulsion Energy =             37.9070964263356629
    One-Electron Energy =                -283.3944755032340481
    Two-Electron Energy =                  94.6808406053103226
    DFT Exchange-Correlation Energy =       0.0000000000000000
    Empirical Dispersion Energy =           0.0000000000000000
    PCM Polarization Energy =               0.0000000000000000
    EFP Energy =                            0.0000000000000000
    Total Energy =                       -150.8065384715880555



Properties will be evaluated at   0.000000,   0.000000,   0.000000 Bohr

Properties computed using the SCF density matrix

  Nuclear Dipole Moment: (a.u.)
     X:     0.0000      Y:    -0.0000      Z:    -1.5897

  Electronic Dipole Moment: (a.u.)
     X:     0.0000      Y:     0.0000      Z:     0.2092

  Dipole Moment: (a.u.)
     X:     0.0000      Y:    -0.0000      Z:    -1.3805     Total:     1.3805

  Dipole Moment: (Debye)
     X:     0.0000      Y:    -0.0000      Z:    -3.5089     Total:     3.5089


*** tstop() called on psinet at Mon May 15 15:38:12 2017
Module time:
	user time   =       0.54 seconds =       0.01 minutes
	system time =       0.02 seconds =       0.00 minutes
	total time  =          1 seconds =       0.02 minutes
Total time:
	user time   =       2.92 seconds =       0.05 minutes
	system time =       0.10 seconds =       0.00 minutes
	total time  =          3 seconds =       0.05 minutes

*** tstart() called on psinet
*** at Mon May 15 15:38:12 2017


         ------------------------------------------------------------
                                   SCF GRAD                          
                          Rob Parrish, Justin Turney,                
                       Andy Simmonett, and Alex Sokolov              
         ------------------------------------------------------------

  ==> Geometry <==

    Molecular point group: c2v
    Full point group: C2v

    Geometry (in Angstrom), charge = 0, multiplicity = 1:

       Center              X                  Y                   Z               Mass       
    ------------   -----------------  -----------------  -----------------  -----------------
           H         -0.000000000000     0.980353033500    -0.848146666413     1.007825032070
           O         -0.000000000000     0.698854518800     0.053440950553    15.994914619560
           O          0.000000000000    -0.698854518800     0.053440950553    15.994914619560
           H          0.000000000000    -0.980353033500    -0.848146666413     1.007825032070

  Nuclear repulsion =   37.907096426335663

  ==> Basis Set <==

  Basis Set: DZP
    Blend: DZP
    Number of shells: 20
    Number of basis function: 42
    Number of Cartesian functions: 42
    Spherical Harmonics?: false
    Max angular momentum: 2

  ==> DFJKGrad: Density-Fitted SCF Gradients <==

    Gradient:                    1
    J tasked:                  Yes
    K tasked:                  Yes
    wK tasked:                  No
    OpenMP threads:              1
    Integrals threads:           1
    Memory (MB):               375
    Schwarz Cutoff:          0E+00
    Fitting Condition:       1E-12

   => Auxiliary Basis Set <=

  Basis Set: (DZP AUX)
    Blend: DEF2-QZVPP-JKFIT
    Number of shells: 62
    Number of basis function: 226
    Number of Cartesian functions: 226
    Spherical Harmonics?: false
    Max angular momentum: 4


  -Total Gradient:
     Atom            X                  Y                   Z
    ------   -----------------  -----------------  -----------------
       1        0.000000000000    -0.000540576554     0.002137499525
       2       -0.000000000000     0.000728398729    -0.002137499525
       3        0.000000000000    -0.000728398729    -0.002137499525
       4       -0.000000000000     0.000540576554     0.002137499525


*** tstop() called on psinet at Mon May 15 15:38:12 2017
Module time:
	user time   =       0.24 seconds =       0.00 minutes
	system time =       0.00 seconds =       0.00 minutes
	total time  =          0 seconds =       0.00 minutes
Total time:
	user time   =       3.16 seconds =       0.05 minutes
	system time =       0.10 seconds =       0.00 minutes
	total time  =          3 seconds =       0.05 minutes

  //>>>>>>>>>>>>>>>>>>>>>>>>>>>>>>>>>>>//
  //    Loading displacement 5 of 10   //
  //<<<<<<<<<<<<<<<<<<<<<<<<<<<<<<<<<<<//
gradient() will perform analytic gradient computation.

*** tstart() called on psinet
*** at Mon May 15 15:38:12 2017

   => Loading Basis Set <=

    Name: DZP
    Role: ORBITAL
    Keyword: BASIS
    atoms 1, 4 entry H          line    16 file /home/psilocaluser/gits/hrw-direct/objdir4/stage/usr/local/psi4/share/psi4/basis/dzp.gbs 
    atoms 2-3  entry O          line   121 file /home/psilocaluser/gits/hrw-direct/objdir4/stage/usr/local/psi4/share/psi4/basis/dzp.gbs 


         ---------------------------------------------------------
                                   SCF
            by Justin Turney, Rob Parrish, and Andy Simmonett
                              RHF Reference
                        1 Threads,    500 MiB Core
         ---------------------------------------------------------

  ==> Geometry <==

    Molecular point group: c2v
    Full point group: C2v

    Geometry (in Angstrom), charge = 0, multiplicity = 1:

       Center              X                  Y                   Z               Mass       
    ------------   -----------------  -----------------  -----------------  -----------------
           H         -0.000000000000     0.980353033500    -0.849954236217     1.007825032070
           O         -0.000000000000     0.698386713461     0.053554843883    15.994914619560
           O          0.000000000000    -0.698386713461     0.053554843883    15.994914619560
           H          0.000000000000    -0.980353033500    -0.849954236217     1.007825032070

  Running in c2v symmetry.

  Rotational constants: A =     10.89064  B =      0.96109  C =      0.88315 [cm^-1]
  Rotational constants: A = 326493.09066  B =  28812.82285  C =  26476.30457 [MHz]
  Nuclear repulsion =   37.903475269584533

  Charge       = 0
  Multiplicity = 1
  Electrons    = 18
  Nalpha       = 9
  Nbeta        = 9

  ==> Algorithm <==

  SCF Algorithm Type is DF.
  DIIS enabled.
  MOM disabled.
  Fractional occupation disabled.
  Guess Type is SAD.
  Energy threshold   = 1.00e-08
  Density threshold  = 1.00e-08
  Integral threshold = 0.00e+00

  ==> Primary Basis <==

  Basis Set: DZP
    Blend: DZP
    Number of shells: 20
    Number of basis function: 42
    Number of Cartesian functions: 42
    Spherical Harmonics?: false
    Max angular momentum: 2

   => Loading Basis Set <=

    Name: (DZP AUX)
    Role: JKFIT
    Keyword: DF_BASIS_SCF
    atoms 1, 4 entry H          line    22 file /home/psilocaluser/gits/hrw-direct/objdir4/stage/usr/local/psi4/share/psi4/basis/def2-qzvpp-jkfit.gbs 
    atoms 2-3  entry O          line   322 file /home/psilocaluser/gits/hrw-direct/objdir4/stage/usr/local/psi4/share/psi4/basis/def2-qzvpp-jkfit.gbs 

  ==> Pre-Iterations <==

   -------------------------------------------------------
    Irrep   Nso     Nmo     Nalpha   Nbeta   Ndocc  Nsocc
   -------------------------------------------------------
     A1        16      16       0       0       0       0
     A2         5       5       0       0       0       0
     B1         5       5       0       0       0       0
     B2        16      16       0       0       0       0
   -------------------------------------------------------
    Total      42      42       9       9       9       0
   -------------------------------------------------------

  ==> Integral Setup <==

  ==> DFJK: Density-Fitted J/K Matrices <==

    J tasked:                  Yes
    K tasked:                  Yes
    wK tasked:                  No
    OpenMP threads:              1
    Integrals threads:           1
    Memory (MB):               375
    Algorithm:                Core
    Integral Cache:           NONE
    Schwarz Cutoff:          1E-12
    Fitting Condition:       1E-12

   => Auxiliary Basis Set <=

  Basis Set: (DZP AUX)
    Blend: DEF2-QZVPP-JKFIT
    Number of shells: 62
    Number of basis function: 226
    Number of Cartesian functions: 226
    Spherical Harmonics?: false
    Max angular momentum: 4

  Minimum eigenvalue in the overlap matrix is 9.4154525153E-03.
  Using Symmetric Orthogonalization.

  SCF Guess: Superposition of Atomic Densities via on-the-fly atomic UHF.

  ==> Iterations <==

                           Total Energy        Delta E     RMS |[F,P]|

   @DF-RHF iter   0:  -150.86031893056779   -1.50860e+02   8.52608e-02 
   @DF-RHF iter   1:  -150.76147276384364    9.88462e-02   1.30512e-02 
   @DF-RHF iter   2:  -150.80222634736174   -4.07536e-02   4.21400e-03 DIIS
   @DF-RHF iter   3:  -150.80605508197135   -3.82873e-03   1.15618e-03 DIIS
   @DF-RHF iter   4:  -150.80649083142751   -4.35749e-04   3.25501e-04 DIIS
   @DF-RHF iter   5:  -150.80654260436566   -5.17729e-05   6.43471e-05 DIIS
   @DF-RHF iter   6:  -150.80654545696405   -2.85260e-06   1.05080e-05 DIIS
   @DF-RHF iter   7:  -150.80654553714930   -8.01853e-08   2.42238e-06 DIIS
   @DF-RHF iter   8:  -150.80654554322604   -6.07673e-09   5.57063e-07 DIIS
   @DF-RHF iter   9:  -150.80654554356119   -3.35149e-10   7.78230e-08 DIIS
   @DF-RHF iter  10:  -150.80654554356659   -5.40012e-12   1.43097e-08 DIIS
   @DF-RHF iter  11:  -150.80654554356659    0.00000e+00   1.69576e-09 DIIS

  ==> Post-Iterations <==

    Orbital Energies (a.u.)
    -----------------------

    Doubly Occupied:                                                      

       1A1   -20.621295     1B2   -20.620962     2A1    -1.500878  
       2B2    -1.213411     3A1    -0.787704     1B1    -0.638796  
       4A1    -0.611766     3B2    -0.571153     1A2    -0.448130  

    Virtual:                                                              

       5A1     0.196400     4B2     0.234010     5B2     0.363971  
       6B2     0.797468     2B1     0.838846     6A1     0.844082  
       7A1     0.898952     2A2     0.923764     8A1     1.026831  
       7B2     1.059037     9A1     1.123974     8B2     1.149180  
       9B2     1.494122     3B1     1.719610    10A1     1.729107  
       3A2     1.885791     4B1     1.905673    10B2     2.114826  
      11A1     2.363748    12A1     2.530593    11B2     2.768826  
       5B1     2.777662    13A1     2.777978     4A2     2.804952  
       5A2     2.975119    12B2     3.002474    13B2     3.319914  
      14A1     3.593574    14B2     3.777320    15A1     4.062484  
      15B2     4.514714    16A1    45.234120    16B2    45.429648  

    Final Occupation by Irrep:
             A1    A2    B1    B2 
    DOCC [     4,    1,    1,    3 ]

  Energy converged.

  @DF-RHF Final Energy:  -150.80654554356659

   => Energetics <=

    Nuclear Repulsion Energy =             37.9034752695845327
    One-Electron Energy =                -283.3918487667883142
    Two-Electron Energy =                  94.6818279536371818
    DFT Exchange-Correlation Energy =       0.0000000000000000
    Empirical Dispersion Energy =           0.0000000000000000
    PCM Polarization Energy =               0.0000000000000000
    EFP Energy =                            0.0000000000000000
    Total Energy =                       -150.8065455435665854



Properties will be evaluated at   0.000000,   0.000000,   0.000000 Bohr

Properties computed using the SCF density matrix

  Nuclear Dipole Moment: (a.u.)
     X:     0.0000      Y:    -0.0000      Z:    -1.5931

  Electronic Dipole Moment: (a.u.)
     X:     0.0000      Y:     0.0000      Z:     0.2113

  Dipole Moment: (a.u.)
     X:     0.0000      Y:    -0.0000      Z:    -1.3818     Total:     1.3818

  Dipole Moment: (Debye)
     X:     0.0000      Y:    -0.0000      Z:    -3.5121     Total:     3.5121


*** tstop() called on psinet at Mon May 15 15:38:13 2017
Module time:
	user time   =       0.53 seconds =       0.01 minutes
	system time =       0.02 seconds =       0.00 minutes
	total time  =          1 seconds =       0.02 minutes
Total time:
	user time   =       3.70 seconds =       0.06 minutes
	system time =       0.12 seconds =       0.00 minutes
	total time  =          4 seconds =       0.07 minutes

*** tstart() called on psinet
*** at Mon May 15 15:38:13 2017


         ------------------------------------------------------------
                                   SCF GRAD                          
                          Rob Parrish, Justin Turney,                
                       Andy Simmonett, and Alex Sokolov              
         ------------------------------------------------------------

  ==> Geometry <==

    Molecular point group: c2v
    Full point group: C2v

    Geometry (in Angstrom), charge = 0, multiplicity = 1:

       Center              X                  Y                   Z               Mass       
    ------------   -----------------  -----------------  -----------------  -----------------
           H         -0.000000000000     0.980353033500    -0.849954236217     1.007825032070
           O         -0.000000000000     0.698386713461     0.053554843883    15.994914619560
           O          0.000000000000    -0.698386713461     0.053554843883    15.994914619560
           H          0.000000000000    -0.980353033500    -0.849954236217     1.007825032070

  Nuclear repulsion =   37.903475269584533

  ==> Basis Set <==

  Basis Set: DZP
    Blend: DZP
    Number of shells: 20
    Number of basis function: 42
    Number of Cartesian functions: 42
    Spherical Harmonics?: false
    Max angular momentum: 2

  ==> DFJKGrad: Density-Fitted SCF Gradients <==

    Gradient:                    1
    J tasked:                  Yes
    K tasked:                  Yes
    wK tasked:                  No
    OpenMP threads:              1
    Integrals threads:           1
    Memory (MB):               375
    Schwarz Cutoff:          0E+00
    Fitting Condition:       1E-12

   => Auxiliary Basis Set <=

  Basis Set: (DZP AUX)
    Blend: DEF2-QZVPP-JKFIT
    Number of shells: 62
    Number of basis function: 226
    Number of Cartesian functions: 226
    Spherical Harmonics?: false
    Max angular momentum: 4


  -Total Gradient:
     Atom            X                  Y                   Z
    ------   -----------------  -----------------  -----------------
       1       -0.000000000000     0.000056029501    -0.000174437026
       2        0.000000000000    -0.000769600356     0.000174437026
       3       -0.000000000000     0.000769600356     0.000174437026
       4        0.000000000000    -0.000056029501    -0.000174437026


*** tstop() called on psinet at Mon May 15 15:38:13 2017
Module time:
	user time   =       0.22 seconds =       0.00 minutes
	system time =       0.00 seconds =       0.00 minutes
	total time  =          0 seconds =       0.00 minutes
Total time:
	user time   =       3.92 seconds =       0.07 minutes
	system time =       0.12 seconds =       0.00 minutes
	total time  =          4 seconds =       0.07 minutes

  //>>>>>>>>>>>>>>>>>>>>>>>>>>>>>>>>>>>//
  //    Loading displacement 6 of 10   //
  //<<<<<<<<<<<<<<<<<<<<<<<<<<<<<<<<<<<//
gradient() will perform analytic gradient computation.

*** tstart() called on psinet
*** at Mon May 15 15:38:13 2017

   => Loading Basis Set <=

    Name: DZP
    Role: ORBITAL
    Keyword: BASIS
    atoms 1, 4 entry H          line    16 file /home/psilocaluser/gits/hrw-direct/objdir4/stage/usr/local/psi4/share/psi4/basis/dzp.gbs 
    atoms 2-3  entry O          line   121 file /home/psilocaluser/gits/hrw-direct/objdir4/stage/usr/local/psi4/share/psi4/basis/dzp.gbs 


         ---------------------------------------------------------
                                   SCF
            by Justin Turney, Rob Parrish, and Andy Simmonett
                              RHF Reference
                        1 Threads,    500 MiB Core
         ---------------------------------------------------------

  ==> Geometry <==

    Molecular point group: c2v
    Full point group: C2v

    Geometry (in Angstrom), charge = 0, multiplicity = 1:

       Center              X                  Y                   Z               Mass       
    ------------   -----------------  -----------------  -----------------  -----------------
           H         -0.000000000000     0.980353033500    -0.849954236217     1.007825032070
           O         -0.000000000000     0.699322324139     0.053554843883    15.994914619560
           O          0.000000000000    -0.699322324139     0.053554843883    15.994914619560
           H          0.000000000000    -0.980353033500    -0.849954236217     1.007825032070

  Running in c2v symmetry.

  Rotational constants: A =     10.89064  B =      0.95881  C =      0.88122 [cm^-1]
  Rotational constants: A = 326493.09066  B =  28744.26712  C =  26418.40563 [MHz]
  Nuclear repulsion =   37.871748446155507

  Charge       = 0
  Multiplicity = 1
  Electrons    = 18
  Nalpha       = 9
  Nbeta        = 9

  ==> Algorithm <==

  SCF Algorithm Type is DF.
  DIIS enabled.
  MOM disabled.
  Fractional occupation disabled.
  Guess Type is SAD.
  Energy threshold   = 1.00e-08
  Density threshold  = 1.00e-08
  Integral threshold = 0.00e+00

  ==> Primary Basis <==

  Basis Set: DZP
    Blend: DZP
    Number of shells: 20
    Number of basis function: 42
    Number of Cartesian functions: 42
    Spherical Harmonics?: false
    Max angular momentum: 2

   => Loading Basis Set <=

    Name: (DZP AUX)
    Role: JKFIT
    Keyword: DF_BASIS_SCF
    atoms 1, 4 entry H          line    22 file /home/psilocaluser/gits/hrw-direct/objdir4/stage/usr/local/psi4/share/psi4/basis/def2-qzvpp-jkfit.gbs 
    atoms 2-3  entry O          line   322 file /home/psilocaluser/gits/hrw-direct/objdir4/stage/usr/local/psi4/share/psi4/basis/def2-qzvpp-jkfit.gbs 

  ==> Pre-Iterations <==

   -------------------------------------------------------
    Irrep   Nso     Nmo     Nalpha   Nbeta   Ndocc  Nsocc
   -------------------------------------------------------
     A1        16      16       0       0       0       0
     A2         5       5       0       0       0       0
     B1         5       5       0       0       0       0
     B2        16      16       0       0       0       0
   -------------------------------------------------------
    Total      42      42       9       9       9       0
   -------------------------------------------------------

  ==> Integral Setup <==

  ==> DFJK: Density-Fitted J/K Matrices <==

    J tasked:                  Yes
    K tasked:                  Yes
    wK tasked:                  No
    OpenMP threads:              1
    Integrals threads:           1
    Memory (MB):               375
    Algorithm:                Core
    Integral Cache:           NONE
    Schwarz Cutoff:          1E-12
    Fitting Condition:       1E-12

   => Auxiliary Basis Set <=

  Basis Set: (DZP AUX)
    Blend: DEF2-QZVPP-JKFIT
    Number of shells: 62
    Number of basis function: 226
    Number of Cartesian functions: 226
    Spherical Harmonics?: false
    Max angular momentum: 4

  Minimum eigenvalue in the overlap matrix is 9.4403207964E-03.
  Using Symmetric Orthogonalization.

  SCF Guess: Superposition of Atomic Densities via on-the-fly atomic UHF.

  ==> Iterations <==

                           Total Energy        Delta E     RMS |[F,P]|

   @DF-RHF iter   0:  -150.96859440236597   -1.50969e+02   9.23292e-02 
   @DF-RHF iter   1:  -150.76667375263858    2.01921e-01   1.22118e-02 
   @DF-RHF iter   2:  -150.80438360371329   -3.77099e-02   2.63540e-03 DIIS
   @DF-RHF iter   3:  -150.80624984011268   -1.86624e-03   8.24931e-04 DIIS
   @DF-RHF iter   4:  -150.80651043727698   -2.60597e-04   3.11834e-04 DIIS
   @DF-RHF iter   5:  -150.80654353499153   -3.30977e-05   5.61676e-05 DIIS
   @DF-RHF iter   6:  -150.80654546458845   -1.92960e-06   6.80006e-06 DIIS
   @DF-RHF iter   7:  -150.80654549278000   -2.81916e-08   1.07381e-06 DIIS
   @DF-RHF iter   8:  -150.80654549374367   -9.63666e-10   2.42507e-07 DIIS
   @DF-RHF iter   9:  -150.80654549380174   -5.80656e-11   5.90441e-08 DIIS
   @DF-RHF iter  10:  -150.80654549380512   -3.38218e-12   1.50896e-08 DIIS
   @DF-RHF iter  11:  -150.80654549380543   -3.12639e-13   2.44407e-09 DIIS

  ==> Post-Iterations <==

    Orbital Energies (a.u.)
    -----------------------

    Doubly Occupied:                                                      

       1A1   -20.621484     1B2   -20.621152     2A1    -1.500093  
       2B2    -1.213937     3A1    -0.787267     1B1    -0.638414  
       4A1    -0.611287     3B2    -0.571676     1A2    -0.448590  

    Virtual:                                                              

       5A1     0.196454     4B2     0.233342     5B2     0.363100  
       6B2     0.797455     2B1     0.838771     6A1     0.843941  
       7A1     0.899435     2A2     0.923754     8A1     1.027345  
       7B2     1.058674     9A1     1.124127     8B2     1.149268  
       9B2     1.493569     3B1     1.719908    10A1     1.728933  
       3A2     1.885460     4B1     1.905704    10B2     2.114271  
      11A1     2.361607    12A1     2.530872    11B2     2.768761  
      13A1     2.777742     5B1     2.778472     4A2     2.803187  
       5A2     2.974574    12B2     3.002742    13B2     3.318785  
      14A1     3.594640    14B2     3.777011    15A1     4.062178  
      15B2     4.514042    16A1    45.233106    16B2    45.429708  

    Final Occupation by Irrep:
             A1    A2    B1    B2 
    DOCC [     4,    1,    1,    3 ]

  Energy converged.

  @DF-RHF Final Energy:  -150.80654549380543

   => Energetics <=

    Nuclear Repulsion Energy =             37.8717484461555074
    One-Electron Energy =                -283.3287853058652672
    Two-Electron Energy =                  94.6504913659043439
    DFT Exchange-Correlation Energy =       0.0000000000000000
    Empirical Dispersion Energy =           0.0000000000000000
    PCM Polarization Energy =               0.0000000000000000
    EFP Energy =                            0.0000000000000000
    Total Energy =                       -150.8065454938054302



Properties will be evaluated at   0.000000,   0.000000,   0.000000 Bohr

Properties computed using the SCF density matrix

  Nuclear Dipole Moment: (a.u.)
     X:     0.0000      Y:    -0.0000      Z:    -1.5931

  Electronic Dipole Moment: (a.u.)
     X:     0.0000      Y:     0.0000      Z:     0.2113

  Dipole Moment: (a.u.)
     X:     0.0000      Y:    -0.0000      Z:    -1.3818     Total:     1.3818

  Dipole Moment: (Debye)
     X:     0.0000      Y:    -0.0000      Z:    -3.5122     Total:     3.5122


*** tstop() called on psinet at Mon May 15 15:38:13 2017
Module time:
	user time   =       0.54 seconds =       0.01 minutes
	system time =       0.02 seconds =       0.00 minutes
	total time  =          0 seconds =       0.00 minutes
Total time:
	user time   =       4.47 seconds =       0.07 minutes
	system time =       0.14 seconds =       0.00 minutes
	total time  =          4 seconds =       0.07 minutes

*** tstart() called on psinet
*** at Mon May 15 15:38:13 2017


         ------------------------------------------------------------
                                   SCF GRAD                          
                          Rob Parrish, Justin Turney,                
                       Andy Simmonett, and Alex Sokolov              
         ------------------------------------------------------------

  ==> Geometry <==

    Molecular point group: c2v
    Full point group: C2v

    Geometry (in Angstrom), charge = 0, multiplicity = 1:

       Center              X                  Y                   Z               Mass       
    ------------   -----------------  -----------------  -----------------  -----------------
           H         -0.000000000000     0.980353033500    -0.849954236217     1.007825032070
           O         -0.000000000000     0.699322324139     0.053554843883    15.994914619560
           O          0.000000000000    -0.699322324139     0.053554843883    15.994914619560
           H          0.000000000000    -0.980353033500    -0.849954236217     1.007825032070

  Nuclear repulsion =   37.871748446155507

  ==> Basis Set <==

  Basis Set: DZP
    Blend: DZP
    Number of shells: 20
    Number of basis function: 42
    Number of Cartesian functions: 42
    Spherical Harmonics?: false
    Max angular momentum: 2

  ==> DFJKGrad: Density-Fitted SCF Gradients <==

    Gradient:                    1
    J tasked:                  Yes
    K tasked:                  Yes
    wK tasked:                  No
    OpenMP threads:              1
    Integrals threads:           1
    Memory (MB):               375
    Schwarz Cutoff:          0E+00
    Fitting Condition:       1E-12

   => Auxiliary Basis Set <=

  Basis Set: (DZP AUX)
    Blend: DEF2-QZVPP-JKFIT
    Number of shells: 62
    Number of basis function: 226
    Number of Cartesian functions: 226
    Spherical Harmonics?: false
    Max angular momentum: 4


  -Total Gradient:
     Atom            X                  Y                   Z
    ------   -----------------  -----------------  -----------------
       1        0.000000000000    -0.000055286666     0.000170656914
       2       -0.000000000000     0.000794635258    -0.000170656914
       3        0.000000000000    -0.000794635258    -0.000170656914
       4       -0.000000000000     0.000055286666     0.000170656914


*** tstop() called on psinet at Mon May 15 15:38:14 2017
Module time:
	user time   =       0.21 seconds =       0.00 minutes
	system time =       0.00 seconds =       0.00 minutes
	total time  =          1 seconds =       0.02 minutes
Total time:
	user time   =       4.68 seconds =       0.08 minutes
	system time =       0.14 seconds =       0.00 minutes
	total time  =          5 seconds =       0.08 minutes

  //>>>>>>>>>>>>>>>>>>>>>>>>>>>>>>>>>>>//
  //    Loading displacement 7 of 10   //
  //<<<<<<<<<<<<<<<<<<<<<<<<<<<<<<<<<<<//
gradient() will perform analytic gradient computation.

*** tstart() called on psinet
*** at Mon May 15 15:38:14 2017

   => Loading Basis Set <=

    Name: DZP
    Role: ORBITAL
    Keyword: BASIS
    atoms 1, 4 entry H          line    16 file /home/psilocaluser/gits/hrw-direct/objdir4/stage/usr/local/psi4/share/psi4/basis/dzp.gbs 
    atoms 2-3  entry O          line   121 file /home/psilocaluser/gits/hrw-direct/objdir4/stage/usr/local/psi4/share/psi4/basis/dzp.gbs 


         ---------------------------------------------------------
                                   SCF
            by Justin Turney, Rob Parrish, and Andy Simmonett
                              RHF Reference
                        1 Threads,    500 MiB Core
         ---------------------------------------------------------

  ==> Geometry <==

    Molecular point group: c2
    Full point group: C2

    Geometry (in Angstrom), charge = 0, multiplicity = 1:

       Center              X                  Y                   Z               Mass       
    ------------   -----------------  -----------------  -----------------  -----------------
           H         -0.001757850361     0.980353033500    -0.849954236217     1.007825032070
           O          0.000155374891     0.698854518800     0.053554843883    15.994914619560
           O         -0.000155374891    -0.698854518800     0.053554843883    15.994914619560
           H          0.001757850361    -0.980353033500    -0.849954236217     1.007825032070

  Running in c2 symmetry.

  Rotational constants: A =     10.89059  B =      0.95995  C =      0.88219 [cm^-1]
  Rotational constants: A = 326491.61403  B =  28778.50416  C =  26447.33310 [MHz]
  Nuclear repulsion =   37.887580741593574

  Charge       = 0
  Multiplicity = 1
  Electrons    = 18
  Nalpha       = 9
  Nbeta        = 9

  ==> Algorithm <==

  SCF Algorithm Type is DF.
  DIIS enabled.
  MOM disabled.
  Fractional occupation disabled.
  Guess Type is SAD.
  Energy threshold   = 1.00e-08
  Density threshold  = 1.00e-08
  Integral threshold = 0.00e+00

  ==> Primary Basis <==

  Basis Set: DZP
    Blend: DZP
    Number of shells: 20
    Number of basis function: 42
    Number of Cartesian functions: 42
    Spherical Harmonics?: false
    Max angular momentum: 2

   => Loading Basis Set <=

    Name: (DZP AUX)
    Role: JKFIT
    Keyword: DF_BASIS_SCF
    atoms 1, 4 entry H          line    22 file /home/psilocaluser/gits/hrw-direct/objdir4/stage/usr/local/psi4/share/psi4/basis/def2-qzvpp-jkfit.gbs 
    atoms 2-3  entry O          line   322 file /home/psilocaluser/gits/hrw-direct/objdir4/stage/usr/local/psi4/share/psi4/basis/def2-qzvpp-jkfit.gbs 

  ==> Pre-Iterations <==

   -------------------------------------------------------
    Irrep   Nso     Nmo     Nalpha   Nbeta   Ndocc  Nsocc
   -------------------------------------------------------
     A         21      21       0       0       0       0
     B         21      21       0       0       0       0
   -------------------------------------------------------
    Total      42      42       9       9       9       0
   -------------------------------------------------------

  ==> Integral Setup <==

  ==> DFJK: Density-Fitted J/K Matrices <==

    J tasked:                  Yes
    K tasked:                  Yes
    wK tasked:                  No
    OpenMP threads:              1
    Integrals threads:           1
    Memory (MB):               375
    Algorithm:                Core
    Integral Cache:           NONE
    Schwarz Cutoff:          1E-12
    Fitting Condition:       1E-12

   => Auxiliary Basis Set <=

  Basis Set: (DZP AUX)
    Blend: DEF2-QZVPP-JKFIT
    Number of shells: 62
    Number of basis function: 226
    Number of Cartesian functions: 226
    Spherical Harmonics?: false
    Max angular momentum: 4

  Minimum eigenvalue in the overlap matrix is 9.4279074043E-03.
  Using Symmetric Orthogonalization.

  SCF Guess: Superposition of Atomic Densities via on-the-fly atomic UHF.

  ==> Iterations <==

                           Total Energy        Delta E     RMS |[F,P]|

   @DF-RHF iter   0:  -151.25125812841077   -1.51251e+02   8.47536e-02 
   @DF-RHF iter   1:  -150.75340677818218    4.97851e-01   1.10989e-02 
   @DF-RHF iter   2:  -150.80179902592363   -4.83922e-02   3.46725e-03 DIIS
   @DF-RHF iter   3:  -150.80591308340220   -4.11406e-03   9.72734e-04 DIIS
   @DF-RHF iter   4:  -150.80647026041018   -5.57177e-04   3.22190e-04 DIIS
   @DF-RHF iter   5:  -150.80654236528514   -7.21049e-05   5.53236e-05 DIIS
   @DF-RHF iter   6:  -150.80654611587823   -3.75059e-06   1.32749e-05 DIIS
   @DF-RHF iter   7:  -150.80654639303179   -2.77154e-07   3.29369e-06 DIIS
   @DF-RHF iter   8:  -150.80654641062941   -1.75976e-08   5.67729e-07 DIIS
   @DF-RHF iter   9:  -150.80654641108021   -4.50797e-10   1.15601e-07 DIIS
   @DF-RHF iter  10:  -150.80654641109464   -1.44382e-11   1.83501e-08 DIIS
   @DF-RHF iter  11:  -150.80654641109479   -1.42109e-13   3.72907e-09 DIIS

  ==> Post-Iterations <==

    Orbital Energies (a.u.)
    -----------------------

    Doubly Occupied:                                                      

       1A    -20.621390     1B    -20.621057     2A     -1.500485  
       2B     -1.213674     3A     -0.787484     3B     -0.638606  
       4A     -0.611526     4B     -0.571414     5A     -0.448360  

    Virtual:                                                              

       6A      0.196427     5B      0.233677     6B      0.363533  
       7B      0.797460     8B      0.838809     7A      0.844012  
       8A      0.899194     9A      0.923758    10A      1.027088  
       9B      1.058854    11A      1.124050    10B      1.149222  
      11B      1.493843    12B      1.719762    12A      1.729020  
      13A      1.885623    13B      1.905685    14B      2.114551  
      14A      2.362682    15A      2.530728    15B      2.768732  
      16A      2.777821    16B      2.778124    17A      2.804107  
      18A      2.974840    17B      3.002607    18B      3.319346  
      19A      3.594106    19B      3.777157    20A      4.062330  
      20B      4.514377    21A     45.233612    21B     45.429678  

    Final Occupation by Irrep:
              A     B 
    DOCC [     5,    4 ]

  Energy converged.

  @DF-RHF Final Energy:  -150.80654641109479

   => Energetics <=

    Nuclear Repulsion Energy =             37.8875807415935739
    One-Electron Energy =                -283.3602628446450353
    Two-Electron Energy =                  94.6661356919566686
    DFT Exchange-Correlation Energy =       0.0000000000000000
    Empirical Dispersion Energy =           0.0000000000000000
    PCM Polarization Energy =               0.0000000000000000
    EFP Energy =                            0.0000000000000000
    Total Energy =                       -150.8065464110947858



Properties will be evaluated at   0.000000,   0.000000,   0.000000 Bohr

Properties computed using the SCF density matrix

  Nuclear Dipole Moment: (a.u.)
     X:     0.0000      Y:    -0.0000      Z:    -1.5931

  Electronic Dipole Moment: (a.u.)
     X:     0.0000      Y:     0.0000      Z:     0.2113

  Dipole Moment: (a.u.)
     X:     0.0000      Y:    -0.0000      Z:    -1.3818     Total:     1.3818

  Dipole Moment: (Debye)
     X:     0.0000      Y:    -0.0000      Z:    -3.5121     Total:     3.5121


*** tstop() called on psinet at Mon May 15 15:38:14 2017
Module time:
	user time   =       0.50 seconds =       0.01 minutes
	system time =       0.01 seconds =       0.00 minutes
	total time  =          0 seconds =       0.00 minutes
Total time:
	user time   =       5.20 seconds =       0.09 minutes
	system time =       0.15 seconds =       0.00 minutes
	total time  =          5 seconds =       0.08 minutes

*** tstart() called on psinet
*** at Mon May 15 15:38:14 2017


         ------------------------------------------------------------
                                   SCF GRAD                          
                          Rob Parrish, Justin Turney,                
                       Andy Simmonett, and Alex Sokolov              
         ------------------------------------------------------------

  ==> Geometry <==

    Molecular point group: c2
    Full point group: C2

    Geometry (in Angstrom), charge = 0, multiplicity = 1:

       Center              X                  Y                   Z               Mass       
    ------------   -----------------  -----------------  -----------------  -----------------
           H         -0.001757850361     0.980353033500    -0.849954236217     1.007825032070
           O          0.000155374891     0.698854518800     0.053554843883    15.994914619560
           O         -0.000155374891    -0.698854518800     0.053554843883    15.994914619560
           H          0.001757850361    -0.980353033500    -0.849954236217     1.007825032070

  Nuclear repulsion =   37.887580741593574

  ==> Basis Set <==

  Basis Set: DZP
    Blend: DZP
    Number of shells: 20
    Number of basis function: 42
    Number of Cartesian functions: 42
    Spherical Harmonics?: false
    Max angular momentum: 2

  ==> DFJKGrad: Density-Fitted SCF Gradients <==

    Gradient:                    1
    J tasked:                  Yes
    K tasked:                  Yes
    wK tasked:                  No
    OpenMP threads:              1
    Integrals threads:           1
    Memory (MB):               375
    Schwarz Cutoff:          0E+00
    Fitting Condition:       1E-12

   => Auxiliary Basis Set <=

  Basis Set: (DZP AUX)
    Blend: DEF2-QZVPP-JKFIT
    Number of shells: 62
    Number of basis function: 226
    Number of Cartesian functions: 226
    Spherical Harmonics?: false
    Max angular momentum: 4


  -Total Gradient:
     Atom            X                  Y                   Z
    ------   -----------------  -----------------  -----------------
       1        0.000053764242     0.000000930443    -0.000004149513
       2       -0.000075419150     0.000014073348     0.000004149513
       3        0.000075419150    -0.000014073348     0.000004149513
       4       -0.000053764242    -0.000000930443    -0.000004149513


*** tstop() called on psinet at Mon May 15 15:38:14 2017
Module time:
	user time   =       0.22 seconds =       0.00 minutes
	system time =       0.00 seconds =       0.00 minutes
	total time  =          0 seconds =       0.00 minutes
Total time:
	user time   =       5.42 seconds =       0.09 minutes
	system time =       0.15 seconds =       0.00 minutes
	total time  =          5 seconds =       0.08 minutes

  //>>>>>>>>>>>>>>>>>>>>>>>>>>>>>>>>>>>//
  //    Loading displacement 8 of 10   //
  //<<<<<<<<<<<<<<<<<<<<<<<<<<<<<<<<<<<//
gradient() will perform analytic gradient computation.

*** tstart() called on psinet
*** at Mon May 15 15:38:14 2017

   => Loading Basis Set <=

    Name: DZP
    Role: ORBITAL
    Keyword: BASIS
    atoms 1, 4 entry H          line    16 file /home/psilocaluser/gits/hrw-direct/objdir4/stage/usr/local/psi4/share/psi4/basis/dzp.gbs 
    atoms 2-3  entry O          line   121 file /home/psilocaluser/gits/hrw-direct/objdir4/stage/usr/local/psi4/share/psi4/basis/dzp.gbs 


         ---------------------------------------------------------
                                   SCF
            by Justin Turney, Rob Parrish, and Andy Simmonett
[...]
			--------------------------
			 OPTKING Finished Execution 
			--------------------------

    Structure for next step:
    Molecular point group: c2
    Full point group: C2

    Geometry (in Angstrom), charge = 0, multiplicity = 1:

    H            0.251321437924     1.144506528645    -0.510625953364
    O           -0.318708454242     0.617564021355     0.032174077203
    O            0.318708454242    -0.617564021355     0.032174077203
    H           -0.251321437924    -1.144506528645    -0.510625953364

gradient() will perform analytic gradient computation.

*** tstart() called on psinet
*** at Mon May 15 15:38:40 2017

   => Loading Basis Set <=

    Name: DZP
    Role: ORBITAL
    Keyword: BASIS
    atoms 1, 4 entry H          line    16 file /home/psilocaluser/gits/hrw-direct/objdir4/stage/usr/local/psi4/share/psi4/basis/dzp.gbs 
    atoms 2-3  entry O          line   121 file /home/psilocaluser/gits/hrw-direct/objdir4/stage/usr/local/psi4/share/psi4/basis/dzp.gbs 


         ---------------------------------------------------------
                                   SCF
            by Justin Turney, Rob Parrish, and Andy Simmonett
                              RHF Reference
                        1 Threads,    500 MiB Core
         ---------------------------------------------------------

  ==> Geometry <==

    Molecular point group: c2
    Full point group: C2

    Geometry (in Angstrom), charge = 0, multiplicity = 1:

       Center              X                  Y                   Z               Mass       
    ------------   -----------------  -----------------  -----------------  -----------------
           H          0.251321437924     1.144506528645    -0.510625953364     1.007825032070
           O         -0.318708454242     0.617564021355     0.032174077203    15.994914619560
           O          0.318708454242    -0.617564021355     0.032174077203    15.994914619560
           H         -0.251321437924    -1.144506528645    -0.510625953364     1.007825032070

  Running in c2 symmetry.

  Rotational constants: A =     10.72362  B =      0.94904  C =      0.92536 [cm^-1]
  Rotational constants: A = 321485.95237  B =  28451.60132  C =  27741.51780 [MHz]
  Nuclear repulsion =   38.120040532544870

  Charge       = 0
  Multiplicity = 1
  Electrons    = 18
  Nalpha       = 9
  Nbeta        = 9

  ==> Algorithm <==

  SCF Algorithm Type is DF.
  DIIS enabled.
  MOM disabled.
  Fractional occupation disabled.
  Guess Type is READ.
  Energy threshold   = 1.00e-08
  Density threshold  = 1.00e-08
  Integral threshold = 0.00e+00

  ==> Primary Basis <==

  Basis Set: DZP
    Blend: DZP
    Number of shells: 20
    Number of basis function: 42
    Number of Cartesian functions: 42
    Spherical Harmonics?: false
    Max angular momentum: 2

   => Loading Basis Set <=

    Name: (DZP AUX)
    Role: JKFIT
    Keyword: DF_BASIS_SCF
    atoms 1, 4 entry H          line    22 file /home/psilocaluser/gits/hrw-direct/objdir4/stage/usr/local/psi4/share/psi4/basis/def2-qzvpp-jkfit.gbs 
    atoms 2-3  entry O          line   322 file /home/psilocaluser/gits/hrw-direct/objdir4/stage/usr/local/psi4/share/psi4/basis/def2-qzvpp-jkfit.gbs 

  Reading orbitals from file 180, no projection.

  ==> Pre-Iterations <==

   -------------------------------------------------------
    Irrep   Nso     Nmo     Nalpha   Nbeta   Ndocc  Nsocc
   -------------------------------------------------------
     A         21      21       0       0       0       0
     B         21      21       0       0       0       0
   -------------------------------------------------------
    Total      42      42       9       9       9       0
   -------------------------------------------------------

  ==> Integral Setup <==

  ==> DFJK: Density-Fitted J/K Matrices <==

    J tasked:                  Yes
    K tasked:                  Yes
    wK tasked:                  No
    OpenMP threads:              1
    Integrals threads:           1
    Memory (MB):               375
    Algorithm:                Core
    Integral Cache:           NONE
    Schwarz Cutoff:          1E-12
    Fitting Condition:       1E-12

   => Auxiliary Basis Set <=

  Basis Set: (DZP AUX)
    Blend: DEF2-QZVPP-JKFIT
    Number of shells: 62
    Number of basis function: 226
    Number of Cartesian functions: 226
    Spherical Harmonics?: false
    Max angular momentum: 4

  Minimum eigenvalue in the overlap matrix is 9.5185651782E-03.
  Using Symmetric Orthogonalization.

  SCF Guess: Orbitals guess was supplied from a previous computation.

  ==> Iterations <==

                           Total Energy        Delta E     RMS |[F,P]|

   @DF-RHF iter   0:  -150.81831769334650   -1.50818e+02   2.12974e-03 
   @DF-RHF iter   1:  -150.81973728097842   -1.41959e-03   5.12699e-04 
   @DF-RHF iter   2:  -150.81993439105793   -1.97110e-04   1.96827e-04 DIIS
   @DF-RHF iter   3:  -150.81998058246072   -4.61914e-05   6.89813e-05 DIIS
   @DF-RHF iter   4:  -150.81998564317107   -5.06071e-06   2.06659e-05 DIIS
   @DF-RHF iter   5:  -150.81998616511089   -5.21940e-07   4.12820e-06 DIIS
   @DF-RHF iter   6:  -150.81998618575560   -2.06447e-08   8.63121e-07 DIIS
   @DF-RHF iter   7:  -150.81998618671224   -9.56646e-10   2.17833e-07 DIIS
   @DF-RHF iter   8:  -150.81998618677795   -6.57110e-11   5.14011e-08 DIIS
   @DF-RHF iter   9:  -150.81998618678222   -4.26326e-12   1.85718e-08 DIIS
   @DF-RHF iter  10:  -150.81998618678296   -7.38964e-13   4.68457e-09 DIIS

  ==> Post-Iterations <==

    Orbital Energies (a.u.)
    -----------------------

    Doubly Occupied:                                                      

       1A    -20.619394     1B    -20.619044     2A     -1.504800  
       2B     -1.208150     3A     -0.737809     3B     -0.714280  
       4A     -0.622557     5A     -0.504814     4B     -0.478085  

    Virtual:                                                              

       6A      0.232833     5B      0.236888     6B      0.334980  
       7B      0.779513     7A      0.839943     8A      0.875285  
       8B      0.880682     9A      0.894410     9B      0.974900  
      10B      1.130359    10A      1.130387    11A      1.226981  
      11B      1.422161    12B      1.681590    12A      1.715612  
      13A      1.858146    13B      1.898231    14A      2.361501  
      15A      2.425150    14B      2.453078    15B      2.614357  
      16A      2.699895    17A      2.828952    16B      2.932163  
      17B      2.976349    18B      3.134139    18A      3.183283  
      19A      3.656319    19B      3.700275    20A      4.139000  
      20B      4.476410    21A     45.276144    21B     45.408858  

    Final Occupation by Irrep:
              A     B 
    DOCC [     5,    4 ]

  Energy converged.

  @DF-RHF Final Energy:  -150.81998618678296

   => Energetics <=

    Nuclear Repulsion Energy =             38.1200405325448699
    One-Electron Energy =                -283.8621852241294619
    Two-Electron Energy =                  94.9221585048016436
    DFT Exchange-Correlation Energy =       0.0000000000000000
    Empirical Dispersion Energy =           0.0000000000000000
    PCM Polarization Energy =               0.0000000000000000
    EFP Energy =                            0.0000000000000000
    Total Energy =                       -150.8199861867829554



Properties will be evaluated at   0.000000,   0.000000,   0.000000 Bohr

Properties computed using the SCF density matrix

  Nuclear Dipole Moment: (a.u.)
     X:    -0.0000      Y:    -0.0000      Z:    -0.9571

  Electronic Dipole Moment: (a.u.)
     X:     0.0000      Y:     0.0000      Z:     0.1119

  Dipole Moment: (a.u.)
     X:    -0.0000      Y:    -0.0000      Z:    -0.8452     Total:     0.8452

  Dipole Moment: (Debye)
     X:    -0.0000      Y:    -0.0000      Z:    -2.1483     Total:     2.1483


*** tstop() called on psinet at Mon May 15 15:38:41 2017
Module time:
	user time   =       0.32 seconds =       0.01 minutes
	system time =       0.01 seconds =       0.00 minutes
	total time  =          1 seconds =       0.02 minutes
Total time:
	user time   =      30.89 seconds =       0.51 minutes
	system time =       0.95 seconds =       0.02 minutes
	total time  =         32 seconds =       0.53 minutes

*** tstart() called on psinet
*** at Mon May 15 15:38:41 2017


         ------------------------------------------------------------
                                   SCF GRAD                          
                          Rob Parrish, Justin Turney,                
                       Andy Simmonett, and Alex Sokolov              
         ------------------------------------------------------------

  ==> Geometry <==

    Molecular point group: c2
    Full point group: C2

    Geometry (in Angstrom), charge = 0, multiplicity = 1:

       Center              X                  Y                   Z               Mass       
    ------------   -----------------  -----------------  -----------------  -----------------
           H          0.251321437924     1.144506528645    -0.510625953364     1.007825032070
           O         -0.318708454242     0.617564021355     0.032174077203    15.994914619560
           O          0.318708454242    -0.617564021355     0.032174077203    15.994914619560
           H         -0.251321437924    -1.144506528645    -0.510625953364     1.007825032070

  Nuclear repulsion =   38.120040532544870

  ==> Basis Set <==

  Basis Set: DZP
    Blend: DZP
    Number of shells: 20
    Number of basis function: 42
    Number of Cartesian functions: 42
    Spherical Harmonics?: false
    Max angular momentum: 2

  ==> DFJKGrad: Density-Fitted SCF Gradients <==

    Gradient:                    1
    J tasked:                  Yes
    K tasked:                  Yes
    wK tasked:                  No
    OpenMP threads:              1
    Integrals threads:           1
    Memory (MB):               375
    Schwarz Cutoff:          0E+00
    Fitting Condition:       1E-12

   => Auxiliary Basis Set <=

  Basis Set: (DZP AUX)
    Blend: DEF2-QZVPP-JKFIT
    Number of shells: 62
    Number of basis function: 226
    Number of Cartesian functions: 226
    Spherical Harmonics?: false
    Max angular momentum: 4


  -Total Gradient:
     Atom            X                  Y                   Z
    ------   -----------------  -----------------  -----------------
       1        0.000419910493    -0.000874890158    -0.000775775282
       2       -0.000767792424    -0.000710045512     0.000775775282
       3        0.000767792424     0.000710045512     0.000775775282
       4       -0.000419910493     0.000874890158    -0.000775775282


*** tstop() called on psinet at Mon May 15 15:38:41 2017
Module time:
	user time   =       0.22 seconds =       0.00 minutes
	system time =       0.00 seconds =       0.00 minutes
	total time  =          0 seconds =       0.00 minutes
Total time:
	user time   =      31.11 seconds =       0.52 minutes
	system time =       0.95 seconds =       0.02 minutes
	total time  =         32 seconds =       0.53 minutes

			-----------------------------------------
			 OPTKING 2.0: for geometry optimizations 
			  - R.A. King,  Bethel University        
			-----------------------------------------

	Previous internal coordinate definitions found.
	---Fragment 1 Geometry and Gradient---
	 H           0.4749286890        2.1628038964       -0.9649432082
	 O          -0.6022716948        1.1670268699        0.0608001945
	 O           0.6022716948       -1.1670268699        0.0608001945
	 H          -0.4749286890       -2.1628038964       -0.9649432082
	             0.0004199105       -0.0008748902       -0.0007757753
	            -0.0007677924       -0.0007100455        0.0007757753
	             0.0007677924        0.0007100455        0.0007757753
	            -0.0004199105        0.0008748902       -0.0007757753

	---Fragment 1 Intrafragment Coordinates---
	 - Coordinate -           - BOHR/RAD -       - ANG/DEG -
	 R(1,2)           =         1.789995	       0.947225
	 R(2,3)           =         2.626544	       1.389907
	 R(3,4)           =         1.789995	       0.947225
	 B(1,2,3)         =         1.790939	     102.613262
	 B(2,3,4)         =         1.790939	     102.613262
	 D(1,2,3,4)       =        -1.886367	    -108.080851

	Current energy   :      -150.8199861868

	Energy change for the previous step:
		Projected    :         0.0000395427
		Actual       :         0.0000417007

	Performing Bofill update.
	Previous computed or guess Hessian on step 1.
	Steps to be used in Hessian update: 42 41

@IRC
@IRC Houston, we've found a minimum!
@IRC

    Determining lagrangian multiplier for constrained minimization.

    Lagrangian multiplier is converged.

	Back-transformation to cartesian coordinates...
	Successfully converged to displaced geometry.

	--- Internal Coordinate Step in ANG or DEG, aJ/ANG or AJ/DEG ---
	 ---------------------------------------------------------------------------
	   Coordinate                Previous        Force       Change         New 
	   ----------                --------       ------       ------       ------
	    1 R(1,2)          =      0.947225    -0.001735    -0.000412     0.946813
	    2 R(2,3)          =      1.389907     0.010289     0.002012     1.391920
	    3 R(3,4)          =      0.947225    -0.001735    -0.000412     0.946813
	    4 B(1,2,3)        =    102.613262     0.000142    -0.244061   102.369201
	    5 B(2,3,4)        =    102.613262     0.000142    -0.244061   102.369201
	    6 D(1,2,3,4)      =   -108.080851    -0.000020    -9.567682  -117.648533
	 ---------------------------------------------------------------------------
  Gradient in step direction:   -0.0010600229
  Hessian in step direction :    0.0095556058
  Projected energy change for next step:   -0.000043698942387
	Successfully symmetrized geometry.

	 **** Optimization is complete! ****
	Writing optimization data to binary file.
	Final energy is   -150.8199861867830
	Final (previous) structure:
	Cartesian Geometry (in Angstrom)
	    H     0.2653648349   1.1701439009  -0.4499672023
	    O    -0.3314020711   0.6119904918   0.0283521177
	    O     0.3314020711  -0.6119904918   0.0283521177
	    H    -0.2653648349  -1.1701439009  -0.4499672023
	Saving final (previous) structure.
@IRC ----------------------------------------------
@IRC            ****      IRC Report      ****
@IRC ----------------------------------------------
@IRC  Step    Energy              Change in Energy 
@IRC ----------------------------------------------
@IRC    0  -150.806546209733   -150.806546209733
@IRC    1  -150.806864170826     -0.000317961093
@IRC    2  -150.807781268041     -0.000917097215
@IRC    3  -150.809193634888     -0.001412366847
@IRC    4  -150.810947018858     -0.001753383970
@IRC    5  -150.812862097099     -0.001915078241
@IRC    6  -150.814759543223     -0.001897446124
@IRC    7  -150.816482505795     -0.001722962572
@IRC    8  -150.817913071471     -0.001430565676
@IRC    9  -150.818981705762     -0.001068634291
@IRC   10  -150.819668685677     -0.000686979915
@IRC   11  -150.819998261716     -0.000329576039
@IRC   12  -150.820027880139     -0.000029618423
@IRC   13  -150.820027887478     -0.000000007339
@IRC ----------------------------------------------

@IRC -----------------------------------------------------
@IRC              ****     IRC Steps     ****             
@IRC -----------------------------------------------------
@IRC        |          Distance         |
@IRC Step   | Step    Arc       Line    |    Coord   0    Coord   1    Coord   2    Coord   3
@IRC ------------------------------------------------------------------------------------------
@IRC    0     -0.00  -0.00000   -0.00000      1.78833409   2.64128729   1.78833409   1.87282583
@IRC    1     -0.20  -0.19995   -0.17486      1.78845468   2.64083241   1.78845468   1.87115818
@IRC    2     -0.40  -0.39995   -0.34945      1.78884433   2.63955373   1.78884433   1.86789777
@IRC    3     -0.60  -0.59994   -0.52360      1.78939114   2.63755590   1.78939114   1.86212831
@IRC    4     -0.80  -0.79992   -0.69704      1.78998818   2.63492768   1.78998818   1.85499788
@IRC    5     -1.00  -0.99991   -0.86968      1.79052949   2.63189056   1.79052949   1.84672409
@IRC    6     -1.20  -1.19989   -1.04150      1.79088739   2.62874983   1.79088739   1.83785727
@IRC    7     -1.40  -1.39986   -1.21252      1.79102715   2.62591798   1.79102715   1.82890664
@IRC    8     -1.60  -1.59982   -1.38281      1.79091813   2.62390458   1.79091813   1.82028351
@IRC    9     -1.80  -1.79978   -1.55241      1.79061400   2.62323212   1.79061400   1.81220027
@IRC   10     -2.00  -1.99974   -1.72134      1.79017961   2.62424208   1.79017961   1.80464086
@IRC   11     -2.20  -2.19972   -1.88958      1.78969376   2.62682147   1.78969376   1.79749373
@IRC   12     -2.40  -2.39970   -2.05718      1.78921765   2.63034484   1.78921765   1.79076457
@IRC   13     -2.60  -2.42853   -2.05726      1.78921775   2.63034590   1.78921775   1.79081771
@IRC ------------------------------------------------------------------------------------------
@IRC         |          Distance         |
@IRC  Step   | Step    Arc       Line    |    Coord   4    Coord   5
@IRC ----------------------------------------------------------------
@IRC    0     -0.00  -0.00000   -0.00000      1.87282583   0.00000000
@IRC    1     -0.20  -0.19995   -0.17486      1.87115818  -0.17484661
@IRC    2     -0.40  -0.39995   -0.34945      1.86789777  -0.34937095
@IRC    3     -0.60  -0.59994   -0.52360      1.86212831  -0.52330977
@IRC    4     -0.80  -0.79992   -0.69704      1.85499788  -0.69643903
@IRC    5     -1.00  -0.99991   -0.86968      1.84672409  -0.86865659
@IRC    6     -1.20  -1.19989   -1.04150      1.83785727  -1.03998071
@IRC    7     -1.40  -1.39986   -1.21252      1.82890664  -1.21050667
@IRC    8     -1.60  -1.59982   -1.38281      1.82028351  -1.38034789
@IRC    9     -1.80  -1.79978   -1.55241      1.81220027  -1.54956811
@IRC   10     -2.00  -1.99974   -1.72134      1.80464086  -1.71815191
@IRC   11     -2.20  -2.19972   -1.88958      1.79749373  -1.88606593
@IRC   12     -2.40  -2.39970   -2.05718      1.79076457  -2.05335882
@IRC   13     -2.60  -2.42853   -2.05726      1.79081771  -2.05334606
@IRC ----------------------------------------------------------------

	---Fragment 1 Intrafragment Coordinates---
	 - Coordinate -           - BOHR/RAD -       - ANG/DEG -
	 R(1,2)           =         1.789218	       0.946813
	 R(2,3)           =         2.630346	       1.391919
	 R(3,4)           =         1.789218	       0.946813
	 B(1,2,3)         =         1.790818	     102.606297
	 B(2,3,4)         =         1.790818	     102.606297
	 D(1,2,3,4)       =        -2.053346	    -117.648063

	---Fragment 1 Intrafragment Coordinates---
	 - Coordinate -           - BOHR/RAD -       - ANG/DEG -
	 R(1,2)           =         1.789218	       0.946813
	 R(2,3)           =         2.630346	       1.391919
	 R(3,4)           =         1.789218	       0.946813
	 B(1,2,3)         =         1.790818	     102.606297
	 B(2,3,4)         =         1.790818	     102.606297
	 D(1,2,3,4)       =        -2.053346	    -117.648063

			--------------------------
			 OPTKING Finished Execution 
			--------------------------

    Final optimized geometry and variables:
    Molecular point group: c2
    Full point group: C2

    Geometry (in Angstrom), charge = 0, multiplicity = 1:

    H            0.265364834859     1.170143900918    -0.449967290010
    O           -0.331402071100     0.611990491799     0.028352029959
    O            0.331402071100    -0.611990491799     0.028352029959
    H           -0.265364834859    -1.170143900918    -0.449967290010

	Cleaning optimization helper files.
	Energy of last IRC point..........................................PASSED

*** Psi4 exiting successfully. Buy a developer a beer!
