    -----------------------------------------------------------------------
          Psi4: An Open-Source Ab Initio Electronic Structure Package
                              Psi4 0.5 Driver

                          Git: Rev {master} dbe9080

    J. M. Turney, A. C. Simmonett, R. M. Parrish, E. G. Hohenstein,
    F. A. Evangelista, J. T. Fermann, B. J. Mintz, L. A. Burns, J. J. Wilke,
    M. L. Abrams, N. J. Russ, M. L. Leininger, C. L. Janssen, E. T. Seidl,
    W. D. Allen, H. F. Schaefer, R. A. King, E. F. Valeev, C. D. Sherrill,
    and T. D. Crawford, WIREs Comput. Mol. Sci. 2, 556-565 (2012)
    (doi: 10.1002/wcms.93)

                         Additional Contributions by
    A. E. DePrince, M. Saitow, U. Bozkaya, A. Yu. Sokolov
    -----------------------------------------------------------------------


    Psi4 started on: Mon Mar 14 15:16:42 2016

    Process ID:  10971
    PSI4DATADIR: /home/dsmith/Gits/dgas_psi/share
    Memory level set to 256.000 MB

  ==> Input File <==

--------------------------------------------------------------------------
# Compute the IRC for HOOH torsional rotation
# at the RHF/DZP level of theory, and print
# the path to a trajectory file for visualization
# in Jmol.
# grep '@IRC' on the output to see a nice printout
# of the progress of your IRC computation.

molecule h2o2 {
  H     0.0000000000   0.9803530335  -0.8498671785
  O     0.0000000000   0.6988545188   0.0536419016
  O     0.0000000000  -0.6988545188   0.0536419016
  H     0.0000000000  -0.9803530335  -0.8498671785
}

# g_convergence needs to be tight for IRCs:
set g_convergence gau_verytight

set {
  basis                      dzp
  opt_type                   irc
  geom_maxiter               50
  irc_direction              backward
}

frequencies('scf')

# Lower point group from C2v to C2
h2o2.reset_point_group('c2')

energy = optimize('scf')

compare_values(energy, -150.8200278868627, 5, "Energy of last IRC point")
--------------------------------------------------------------------------
hessian() will perform frequency computation by finite difference of analytic gradients.

-------------------------------------------------------------

  Using finite-differences of gradients to determine vibrational frequencies and 
  normal modes.  Resulting frequencies are only valid at stationary points.
	Generating geometries for use with 3-point formula.
	Displacement size will be 5.00e-03.
	Number of atoms is 4.
	Number of irreps is 4.
	Number of SALCS is 6.
	Index of salcs per irrep:
	 1 :  0  1  2 
	 2 :  3 
	 3 : 
	 4 :  4  5 
	Number of SALC's per irrep:
		 Irrep 1: 3
		 Irrep 2: 1
		 Irrep 3: 0
		 Irrep 4: 2
	Number of geometries (including reference) is 10.
	Number of displacements per irrep:
	  Irrep 1: 6
	  Irrep 2: 1
	  Irrep 3: 0
	  Irrep 4: 2

-------------------------------------------------------------

  //>>>>>>>>>>>>>>>>>>>>>>>>>>>>>>>>>>>//
  //    Loading displacement 1 of 10   //
  //<<<<<<<<<<<<<<<<<<<<<<<<<<<<<<<<<<<//

*** tstart() called on ds1.sherrill.chemistry.gatech.edu
*** at Mon Mar 14 15:16:43 2016


         ---------------------------------------------------------
                                   SCF
            by Justin Turney, Rob Parrish, and Andy Simmonett
                              RHF Reference
                        1 Threads,    256 MiB Core
         ---------------------------------------------------------

  ==> Geometry <==

    Molecular point group: c2v
    Full point group: C2v

    Geometry (in Angstrom), charge = 0, multiplicity = 1:

       Center              X                  Y                   Z               Mass       
    ------------   -----------------  -----------------  -----------------  -----------------
           H         -0.000000000000     0.978489386875    -0.849954236217     1.007825032070
           O         -0.000000000000     0.698854518800     0.053554843883    15.994914619560
           O          0.000000000000    -0.698854518800     0.053554843883    15.994914619560
           H          0.000000000000    -0.978489386875    -0.849954236217     1.007825032070

  Running in c2v symmetry.

  Rotational constants: A =     10.89064  B =      0.96035  C =      0.88253 [cm^-1]
  Rotational constants: A = 326493.09066  B =  28790.57931  C =  26457.52117 [MHz]
  Nuclear repulsion =   37.897168242841339

  Charge       = 0
  Multiplicity = 1
  Electrons    = 18
  Nalpha       = 9
  Nbeta        = 9

  ==> Algorithm <==

  SCF Algorithm Type is DF.
  DIIS enabled.
  MOM disabled.
  Fractional occupation disabled.
  Guess Type is CORE.
  Energy threshold   = 1.00e-08
  Density threshold  = 1.00e-08
  Integral threshold = 0.00e+00

  ==> Primary Basis <==

  Basis Set: DZP
    Number of shells: 20
    Number of basis function: 42
    Number of Cartesian functions: 42
    Spherical Harmonics?: false
    Max angular momentum: 2

  ==> Pre-Iterations <==

   -------------------------------------------------------
    Irrep   Nso     Nmo     Nalpha   Nbeta   Ndocc  Nsocc
   -------------------------------------------------------
     A1        16      16       0       0       0       0
     A2         5       5       0       0       0       0
     B1         5       5       0       0       0       0
     B2        16      16       0       0       0       0
   -------------------------------------------------------
    Total      42      42       9       9       9       0
   -------------------------------------------------------

  ==> Integral Setup <==

  ==> DFJK: Density-Fitted J/K Matrices <==

    J tasked:                  Yes
    K tasked:                  Yes
    wK tasked:                  No
    OpenMP threads:              1
    Integrals threads:           1
    Memory (MB):               183
    Algorithm:                Core
    Integral Cache:           NONE
    Schwarz Cutoff:          1E-12
    Fitting Condition:       1E-12

   => Auxiliary Basis Set <=

  Basis Set: 
    Number of shells: 62
    Number of basis function: 226
    Number of Cartesian functions: 226
    Spherical Harmonics?: false
    Max angular momentum: 4

  Minimum eigenvalue in the overlap matrix is 9.4194081030E-03.
  Using Symmetric Orthogonalization.
  SCF Guess: Core (One-Electron) Hamiltonian.

  ==> Iterations <==

                           Total Energy        Delta E     RMS |[F,P]|

    Occupation by irrep:
             A1    A2    B1    B2 
    DOCC [     4,    0,    1,    4 ]

   @DF-RHF iter   1:  -139.38298498284911   -1.39383e+02   2.59403e-01 
    Occupation by irrep:
             A1    A2    B1    B2 
    DOCC [     4,    1,    1,    3 ]

   @DF-RHF iter   2:  -142.44273826723369   -3.05975e+00   1.47769e-01 DIIS
   @DF-RHF iter   3:  -149.92203789707980   -7.47930e+00   5.95489e-02 DIIS
   @DF-RHF iter   4:  -150.75358703879758   -8.31549e-01   1.31668e-02 DIIS
   @DF-RHF iter   5:  -150.80509110511426   -5.15041e-02   1.82665e-03 DIIS
   @DF-RHF iter   6:  -150.80642355049773   -1.33245e-03   4.58919e-04 DIIS
   @DF-RHF iter   7:  -150.80653994356564   -1.16393e-04   8.99688e-05 DIIS
   @DF-RHF iter   8:  -150.80654444337861   -4.49981e-06   1.84912e-05 DIIS
   @DF-RHF iter   9:  -150.80654464696940   -2.03591e-07   2.80590e-06 DIIS
   @DF-RHF iter  10:  -150.80654465274648   -5.77708e-09   6.88917e-07 DIIS
   @DF-RHF iter  11:  -150.80654465321717   -4.70692e-10   1.98235e-07 DIIS
   @DF-RHF iter  12:  -150.80654465324844   -3.12639e-11   3.34058e-08 DIIS
   @DF-RHF iter  13:  -150.80654465324920   -7.67386e-13   4.30899e-09 DIIS

  ==> Post-Iterations <==

    Orbital Energies (a.u.)
    -----------------------

    Doubly Occupied:                                                      

       1A1   -20.621392     1B2   -20.621060     2A1    -1.500794  
       2B2    -1.213863     3A1    -0.787657     1B1    -0.638699  
       4A1    -0.611647     3B2    -0.571687     1A2    -0.448425  

    Virtual:                                                              

       5A1     0.196380     4B2     0.233920     5B2     0.363604  
       6B2     0.797414     2B1     0.838742     6A1     0.843844  
       7A1     0.898943     2A2     0.923742     8A1     1.028215  
       7B2     1.058462     9A1     1.124135     8B2     1.149521  
       9B2     1.493852     3B1     1.719942    10A1     1.727751  
       3A2     1.885559     4B1     1.905289    10B2     2.115453  
      11A1     2.362947    12A1     2.532082    11B2     2.769662  
      13A1     2.778338     5B1     2.778866     4A2     2.804499  
       5A2     2.974964    12B2     3.002932    13B2     3.319543  
      14A1     3.595908    14B2     3.777649    15A1     4.062491  
      15B2     4.514247    16A1    45.233732    16B2    45.429773  

    Final Occupation by Irrep:
             A1    A2    B1    B2 
    DOCC [     4,    1,    1,    3 ]

  Energy converged.

  @DF-RHF Final Energy:  -150.80654465324920

   => Energetics <=

    Nuclear Repulsion Energy =             37.8971682428413388
    One-Electron Energy =                -283.3769759924427944
    Two-Electron Energy =                  94.6732630963522865
    DFT Exchange-Correlation Energy =       0.0000000000000000
    Empirical Dispersion Energy =           0.0000000000000000
    PCM Polarization Energy =               0.0000000000000000
    EFP Energy =                            0.0000000000000000
    Total Energy =                       -150.8065446532491762

    Alert: EFP and PCM quantities not currently incorporated into SCF psivars.

Properties will be evaluated at   0.000000,   0.000000,   0.000000 Bohr
  ==> Properties <==


Properties computed using the SCF density matrix

  Nuclear Dipole Moment: (a.u.)
     X:    -0.0000      Y:    -0.0000      Z:    -1.5931

  Electronic Dipole Moment: (a.u.)
     X:     0.0000      Y:     0.0000      Z:     0.2115

  Dipole Moment: (a.u.)
     X:    -0.0000      Y:    -0.0000      Z:    -1.3816     Total:     1.3816

  Dipole Moment: (Debye)
     X:    -0.0000      Y:    -0.0000      Z:    -3.5116     Total:     3.5116


  Saving occupied orbitals to File 180.

*** tstop() called on ds1.sherrill.chemistry.gatech.edu at Mon Mar 14 15:16:43 2016
Module time:
	user time   =       0.16 seconds =       0.00 minutes
	system time =       0.00 seconds =       0.00 minutes
	total time  =          0 seconds =       0.00 minutes
Total time:
	user time   =       0.16 seconds =       0.00 minutes
	system time =       0.00 seconds =       0.00 minutes
	total time  =          0 seconds =       0.00 minutes

*** tstart() called on ds1.sherrill.chemistry.gatech.edu
*** at Mon Mar 14 15:16:43 2016


         ------------------------------------------------------------
                                   SCF GRAD                          
                          Rob Parrish, Justin Turney,                
                       Andy Simmonett, and Alex Sokolov              
         ------------------------------------------------------------

  ==> Geometry <==

    Molecular point group: c2v
    Full point group: C2v

    Geometry (in Angstrom), charge = 0, multiplicity = 1:

       Center              X                  Y                   Z               Mass       
    ------------   -----------------  -----------------  -----------------  -----------------
           H         -0.000000000000     0.978489386875    -0.849954236217     1.007825032070
           O         -0.000000000000     0.698854518800     0.053554843883    15.994914619560
           O          0.000000000000    -0.698854518800     0.053554843883    15.994914619560
           H          0.000000000000    -0.978489386875    -0.849954236217     1.007825032070

  Nuclear repulsion =   37.897168242841339

  ==> Basis Set <==

  Basis Set: DZP
    Number of shells: 20
    Number of basis function: 42
    Number of Cartesian functions: 42
    Spherical Harmonics?: false
    Max angular momentum: 2

  ==> DFJKGrad: Density-Fitted SCF Gradients <==

    Gradient:                    1
    J tasked:                  Yes
    K tasked:                  Yes
    wK tasked:                  No
    OpenMP threads:              1
    Integrals threads:           1
    Memory (MB):               183
    Schwarz Cutoff:          0E+00
    Fitting Condition:       1E-12

   => Auxiliary Basis Set <=

  Basis Set: 
    Number of shells: 62
    Number of basis function: 226
    Number of Cartesian functions: 226
    Spherical Harmonics?: false
    Max angular momentum: 4


  -Total Gradient:
     Atom            X                  Y                   Z
    ------   -----------------  -----------------  -----------------
       1        0.000000000000    -0.000442231031     0.000517552953
       2       -0.000000000000     0.000234590232    -0.000517552953
       3        0.000000000000    -0.000234590232    -0.000517552953
       4       -0.000000000000     0.000442231031     0.000517552953


*** tstop() called on ds1.sherrill.chemistry.gatech.edu at Mon Mar 14 15:16:43 2016
Module time:
	user time   =       0.18 seconds =       0.00 minutes
	system time =       0.01 seconds =       0.00 minutes
	total time  =          0 seconds =       0.00 minutes
Total time:
	user time   =       0.34 seconds =       0.01 minutes
	system time =       0.01 seconds =       0.00 minutes
	total time  =          0 seconds =       0.00 minutes

  //>>>>>>>>>>>>>>>>>>>>>>>>>>>>>>>>>>>//
  //    Loading displacement 2 of 10   //
  //<<<<<<<<<<<<<<<<<<<<<<<<<<<<<<<<<<<//

*** tstart() called on ds1.sherrill.chemistry.gatech.edu
*** at Mon Mar 14 15:16:43 2016


         ---------------------------------------------------------
                                   SCF
            by Justin Turney, Rob Parrish, and Andy Simmonett
                              RHF Reference
                        1 Threads,    256 MiB Core
         ---------------------------------------------------------

  ==> Geometry <==

    Molecular point group: c2v
    Full point group: C2v

    Geometry (in Angstrom), charge = 0, multiplicity = 1:

       Center              X                  Y                   Z               Mass       
    ------------   -----------------  -----------------  -----------------  -----------------
           H         -0.000000000000     0.982216680125    -0.849954236217     1.007825032070
           O         -0.000000000000     0.698854518800     0.053554843883    15.994914619560
           O          0.000000000000    -0.698854518800     0.053554843883    15.994914619560
           H          0.000000000000    -0.982216680125    -0.849954236217     1.007825032070

  Running in c2v symmetry.

  Rotational constants: A =     10.89064  B =      0.95955  C =      0.88185 [cm^-1]
  Rotational constants: A = 326493.09066  B =  28766.43913  C =  26437.13351 [MHz]
  Nuclear repulsion =   37.878017099166762

  Charge       = 0
  Multiplicity = 1
  Electrons    = 18
  Nalpha       = 9
  Nbeta        = 9

  ==> Algorithm <==

  SCF Algorithm Type is DF.
  DIIS enabled.
  MOM disabled.
  Fractional occupation disabled.
  Guess Type is CORE.
  Energy threshold   = 1.00e-08
  Density threshold  = 1.00e-08
  Integral threshold = 0.00e+00

  ==> Primary Basis <==

  Basis Set: DZP
    Number of shells: 20
    Number of basis function: 42
    Number of Cartesian functions: 42
    Spherical Harmonics?: false
    Max angular momentum: 2

  ==> Pre-Iterations <==

   -------------------------------------------------------
    Irrep   Nso     Nmo     Nalpha   Nbeta   Ndocc  Nsocc
   -------------------------------------------------------
     A1        16      16       0       0       0       0
     A2         5       5       0       0       0       0
     B1         5       5       0       0       0       0
     B2        16      16       0       0       0       0
   -------------------------------------------------------
    Total      42      42       9       9       9       0
   -------------------------------------------------------

  ==> Integral Setup <==

  ==> DFJK: Density-Fitted J/K Matrices <==

    J tasked:                  Yes
    K tasked:                  Yes
    wK tasked:                  No
    OpenMP threads:              1
    Integrals threads:           1
    Memory (MB):               183
    Algorithm:                Core
    Integral Cache:           NONE
    Schwarz Cutoff:          1E-12
    Fitting Condition:       1E-12

   => Auxiliary Basis Set <=

  Basis Set: 
    Number of shells: 62
    Number of basis function: 226
    Number of Cartesian functions: 226
    Spherical Harmonics?: false
    Max angular momentum: 4

  Minimum eigenvalue in the overlap matrix is 9.4363878123E-03.
  Using Symmetric Orthogonalization.
  SCF Guess: Core (One-Electron) Hamiltonian.

  ==> Iterations <==

                           Total Energy        Delta E     RMS |[F,P]|

    Occupation by irrep:
             A1    A2    B1    B2 
    DOCC [     4,    0,    1,    4 ]

   @DF-RHF iter   1:  -139.38872945177874   -1.39389e+02   2.59297e-01 
    Occupation by irrep:
             A1    A2    B1    B2 
    DOCC [     4,    1,    1,    3 ]

   @DF-RHF iter   2:  -142.44428868126789   -3.05556e+00   1.47767e-01 DIIS
   @DF-RHF iter   3:  -149.92123650802262   -7.47695e+00   5.95509e-02 DIIS
   @DF-RHF iter   4:  -150.75355701808525   -8.32321e-01   1.31600e-02 DIIS
   @DF-RHF iter   5:  -150.80508179888059   -5.15248e-02   1.83166e-03 DIIS
   @DF-RHF iter   6:  -150.80642260320360   -1.34080e-03   4.60202e-04 DIIS
   @DF-RHF iter   7:  -150.80653990079927   -1.17298e-04   9.02620e-05 DIIS
   @DF-RHF iter   8:  -150.80654443402574   -4.53323e-06   1.85615e-05 DIIS
   @DF-RHF iter   9:  -150.80654463920689   -2.05181e-07   2.80598e-06 DIIS
   @DF-RHF iter  10:  -150.80654464495075   -5.74386e-09   6.83956e-07 DIIS
   @DF-RHF iter  11:  -150.80654464541317   -4.62421e-10   1.98234e-07 DIIS
   @DF-RHF iter  12:  -150.80654464544455   -3.13776e-11   3.36043e-08 DIIS
   @DF-RHF iter  13:  -150.80654464544529   -7.38964e-13   4.34916e-09 DIIS

  ==> Post-Iterations <==

    Orbital Energies (a.u.)
    -----------------------

    Doubly Occupied:                                                      

       1A1   -20.621387     1B2   -20.621055     2A1    -1.500176  
       2B2    -1.213484     3A1    -0.787312     1B1    -0.638511  
       4A1    -0.611405     3B2    -0.571142     1A2    -0.448295  

    Virtual:                                                              

       5A1     0.196473     4B2     0.233433     5B2     0.363464  
       6B2     0.797506     2B1     0.838875     6A1     0.844179  
       7A1     0.899446     2A2     0.923776     8A1     1.025963  
       7B2     1.059246     9A1     1.123963     8B2     1.148930  
       9B2     1.493834     3B1     1.719573    10A1     1.730280  
       3A2     1.885694     4B1     1.906086    10B2     2.113661  
      11A1     2.362409    12A1     2.529372    11B2     2.767919  
       5B1     2.777264    13A1     2.777373     4A2     2.803634  
       5A2     2.974729    12B2     3.002282    13B2     3.319151  
      14A1     3.592302    14B2     3.776681    15A1     4.062168  
      15B2     4.514511    16A1    45.233492    16B2    45.429584  

    Final Occupation by Irrep:
             A1    A2    B1    B2 
    DOCC [     4,    1,    1,    3 ]

  Energy converged.

  @DF-RHF Final Energy:  -150.80654464544529

   => Energetics <=

    Nuclear Repulsion Energy =             37.8780170991667617
    One-Electron Energy =                -283.3435872693723923
    Two-Electron Energy =                  94.6590255247603523
    DFT Exchange-Correlation Energy =       0.0000000000000000
    Empirical Dispersion Energy =           0.0000000000000000
    PCM Polarization Energy =               0.0000000000000000
    EFP Energy =                            0.0000000000000000
    Total Energy =                       -150.8065446454452854

    Alert: EFP and PCM quantities not currently incorporated into SCF psivars.

Properties will be evaluated at   0.000000,   0.000000,   0.000000 Bohr
  ==> Properties <==


Properties computed using the SCF density matrix

  Nuclear Dipole Moment: (a.u.)
     X:    -0.0000      Y:    -0.0000      Z:    -1.5931

  Electronic Dipole Moment: (a.u.)
     X:     0.0000      Y:     0.0000      Z:     0.2111

  Dipole Moment: (a.u.)
     X:    -0.0000      Y:    -0.0000      Z:    -1.3820     Total:     1.3820

  Dipole Moment: (Debye)
     X:    -0.0000      Y:    -0.0000      Z:    -3.5127     Total:     3.5127


  Saving occupied orbitals to File 180.

*** tstop() called on ds1.sherrill.chemistry.gatech.edu at Mon Mar 14 15:16:43 2016
Module time:
	user time   =       0.12 seconds =       0.00 minutes
	system time =       0.01 seconds =       0.00 minutes
	total time  =          0 seconds =       0.00 minutes
Total time:
	user time   =       0.49 seconds =       0.01 minutes
	system time =       0.02 seconds =       0.00 minutes
	total time  =          0 seconds =       0.00 minutes

*** tstart() called on ds1.sherrill.chemistry.gatech.edu
*** at Mon Mar 14 15:16:43 2016


         ------------------------------------------------------------
                                   SCF GRAD                          
                          Rob Parrish, Justin Turney,                
                       Andy Simmonett, and Alex Sokolov              
         ------------------------------------------------------------

  ==> Geometry <==

    Molecular point group: c2v
    Full point group: C2v

    Geometry (in Angstrom), charge = 0, multiplicity = 1:

       Center              X                  Y                   Z               Mass       
    ------------   -----------------  -----------------  -----------------  -----------------
           H         -0.000000000000     0.982216680125    -0.849954236217     1.007825032070
           O         -0.000000000000     0.698854518800     0.053554843883    15.994914619560
           O          0.000000000000    -0.698854518800     0.053554843883    15.994914619560
           H          0.000000000000    -0.982216680125    -0.849954236217     1.007825032070

  Nuclear repulsion =   37.878017099166762

  ==> Basis Set <==

  Basis Set: DZP
    Number of shells: 20
    Number of basis function: 42
    Number of Cartesian functions: 42
    Spherical Harmonics?: false
    Max angular momentum: 2

  ==> DFJKGrad: Density-Fitted SCF Gradients <==

    Gradient:                    1
    J tasked:                  Yes
    K tasked:                  Yes
    wK tasked:                  No
    OpenMP threads:              1
    Integrals threads:           1
    Memory (MB):               183
    Schwarz Cutoff:          0E+00
    Fitting Condition:       1E-12

   => Auxiliary Basis Set <=

  Basis Set: 
    Number of shells: 62
    Number of basis function: 226
    Number of Cartesian functions: 226
    Spherical Harmonics?: false
    Max angular momentum: 4


  -Total Gradient:
     Atom            X                  Y                   Z
    ------   -----------------  -----------------  -----------------
       1       -0.000000000000     0.000444142210    -0.000521781117
       2        0.000000000000    -0.000208637794     0.000521781117
       3       -0.000000000000     0.000208637794     0.000521781117
       4        0.000000000000    -0.000444142210    -0.000521781117


*** tstop() called on ds1.sherrill.chemistry.gatech.edu at Mon Mar 14 15:16:43 2016
Module time:
	user time   =       0.17 seconds =       0.00 minutes
	system time =       0.00 seconds =       0.00 minutes
	total time  =          0 seconds =       0.00 minutes
Total time:
	user time   =       0.66 seconds =       0.01 minutes
	system time =       0.02 seconds =       0.00 minutes
	total time  =          0 seconds =       0.00 minutes

  //>>>>>>>>>>>>>>>>>>>>>>>>>>>>>>>>>>>//
  //    Loading displacement 3 of 10   //
  //<<<<<<<<<<<<<<<<<<<<<<<<<<<<<<<<<<<//

*** tstart() called on ds1.sherrill.chemistry.gatech.edu
*** at Mon Mar 14 15:16:43 2016


         ---------------------------------------------------------
                                   SCF
            by Justin Turney, Rob Parrish, and Andy Simmonett
                              RHF Reference
                        1 Threads,    256 MiB Core
         ---------------------------------------------------------

  ==> Geometry <==

    Molecular point group: c2v
    Full point group: C2v

    Geometry (in Angstrom), charge = 0, multiplicity = 1:

       Center              X                  Y                   Z               Mass       
    ------------   -----------------  -----------------  -----------------  -----------------
           H         -0.000000000000     0.980353033500    -0.851761806021     1.007825032070
           O         -0.000000000000     0.698854518800     0.053668737213    15.994914619560
           O          0.000000000000    -0.698854518800     0.053668737213    15.994914619560
           H          0.000000000000    -0.980353033500    -0.851761806021     1.007825032070

  Running in c2v symmetry.

  Rotational constants: A =     10.84446  B =      0.95995  C =      0.88188 [cm^-1]
  Rotational constants: A = 325108.82374  B =  28778.51563  C =  26438.21444 [MHz]
  Nuclear repulsion =   37.868169331549154

  Charge       = 0
  Multiplicity = 1
  Electrons    = 18
  Nalpha       = 9
  Nbeta        = 9

  ==> Algorithm <==

  SCF Algorithm Type is DF.
  DIIS enabled.
  MOM disabled.
  Fractional occupation disabled.
  Guess Type is CORE.
  Energy threshold   = 1.00e-08
  Density threshold  = 1.00e-08
  Integral threshold = 0.00e+00

  ==> Primary Basis <==

  Basis Set: DZP
    Number of shells: 20
    Number of basis function: 42
    Number of Cartesian functions: 42
    Spherical Harmonics?: false
    Max angular momentum: 2

  ==> Pre-Iterations <==

   -------------------------------------------------------
    Irrep   Nso     Nmo     Nalpha   Nbeta   Ndocc  Nsocc
   -------------------------------------------------------
     A1        16      16       0       0       0       0
     A2         5       5       0       0       0       0
     B1         5       5       0       0       0       0
     B2        16      16       0       0       0       0
   -------------------------------------------------------
    Total      42      42       9       9       9       0
   -------------------------------------------------------

  ==> Integral Setup <==

  ==> DFJK: Density-Fitted J/K Matrices <==

    J tasked:                  Yes
    K tasked:                  Yes
    wK tasked:                  No
    OpenMP threads:              1
    Integrals threads:           1
    Memory (MB):               183
    Algorithm:                Core
    Integral Cache:           NONE
    Schwarz Cutoff:          1E-12
    Fitting Condition:       1E-12

   => Auxiliary Basis Set <=

  Basis Set: 
    Number of shells: 62
    Number of basis function: 226
    Number of Cartesian functions: 226
    Spherical Harmonics?: false
    Max angular momentum: 4

  Minimum eigenvalue in the overlap matrix is 9.4314452743E-03.
  Using Symmetric Orthogonalization.
  SCF Guess: Core (One-Electron) Hamiltonian.

  ==> Iterations <==

                           Total Energy        Delta E     RMS |[F,P]|

    Occupation by irrep:
             A1    A2    B1    B2 
    DOCC [     4,    0,    1,    4 ]

   @DF-RHF iter   1:  -139.39222100459983   -1.39392e+02   2.59197e-01 
    Occupation by irrep:
             A1    A2    B1    B2 
    DOCC [     4,    1,    1,    3 ]

   @DF-RHF iter   2:  -142.44141580831689   -3.04919e+00   1.47804e-01 DIIS
   @DF-RHF iter   3:  -149.92045370685042   -7.47904e+00   5.95523e-02 DIIS
   @DF-RHF iter   4:  -150.75350837794221   -8.33055e-01   1.31539e-02 DIIS
   @DF-RHF iter   5:  -150.80506705743244   -5.15587e-02   1.83671e-03 DIIS
   @DF-RHF iter   6:  -150.80641577187546   -1.34871e-03   4.61513e-04 DIIS
   @DF-RHF iter   7:  -150.80653374685897   -1.17975e-04   9.03819e-05 DIIS
   @DF-RHF iter   8:  -150.80653829185096   -4.54499e-06   1.85878e-05 DIIS
   @DF-RHF iter   9:  -150.80653849730737   -2.05456e-07   2.79777e-06 DIIS
   @DF-RHF iter  10:  -150.80653850298728   -5.67991e-09   6.76560e-07 DIIS
   @DF-RHF iter  11:  -150.80653850343691   -4.49631e-10   1.96970e-07 DIIS
   @DF-RHF iter  12:  -150.80653850346803   -3.11218e-11   3.38184e-08 DIIS
   @DF-RHF iter  13:  -150.80653850346880   -7.67386e-13   4.46293e-09 DIIS

  ==> Post-Iterations <==

    Orbital Energies (a.u.)
    -----------------------

    Doubly Occupied:                                                      

       1A1   -20.621499     1B2   -20.621167     2A1    -1.500072  
       2B2    -1.212863     3A1    -0.786812     1B1    -0.638517  
       4A1    -0.611415     3B2    -0.571011     1A2    -0.448250  

    Virtual:                                                              

       5A1     0.195849     4B2     0.233551     5B2     0.363245  
       6B2     0.797354     2B1     0.838848     6A1     0.844263  
       7A1     0.899241     2A2     0.923800     8A1     1.026611  
       7B2     1.058943     9A1     1.123059     8B2     1.147725  
       9B2     1.493922     3B1     1.719572    10A1     1.728657  
       3A2     1.885176     4B1     1.905630    10B2     2.113906  
      11A1     2.362569    12A1     2.528750    11B2     2.765727  
      13A1     2.775222     5B1     2.776144     4A2     2.804291  
       5A2     2.972589    12B2     3.002159    13B2     3.317367  
      14A1     3.589756    14B2     3.773111    15A1     4.061893  
      15B2     4.513924    16A1    45.233117    16B2    45.429491  

    Final Occupation by Irrep:
             A1    A2    B1    B2 
    DOCC [     4,    1,    1,    3 ]

  Energy converged.

  @DF-RHF Final Energy:  -150.80653850346880

   => Energetics <=

    Nuclear Repulsion Energy =             37.8681693315491543
    One-Electron Energy =                -283.3261998763412066
    Two-Electron Energy =                  94.6514920413232517
    DFT Exchange-Correlation Energy =       0.0000000000000000
    Empirical Dispersion Energy =           0.0000000000000000
    PCM Polarization Energy =               0.0000000000000000
    EFP Energy =                            0.0000000000000000
    Total Energy =                       -150.8065385034688006

    Alert: EFP and PCM quantities not currently incorporated into SCF psivars.

Properties will be evaluated at   0.000000,   0.000000,   0.000000 Bohr
  ==> Properties <==


Properties computed using the SCF density matrix

  Nuclear Dipole Moment: (a.u.)
     X:     0.0000      Y:    -0.0000      Z:    -1.5965

  Electronic Dipole Moment: (a.u.)
     X:     0.0000      Y:     0.0000      Z:     0.2134

  Dipole Moment: (a.u.)
     X:     0.0000      Y:    -0.0000      Z:    -1.3831     Total:     1.3831

  Dipole Moment: (Debye)
     X:     0.0000      Y:    -0.0000      Z:    -3.5154     Total:     3.5154


  Saving occupied orbitals to File 180.

*** tstop() called on ds1.sherrill.chemistry.gatech.edu at Mon Mar 14 15:16:43 2016
Module time:
	user time   =       0.13 seconds =       0.00 minutes
	system time =       0.00 seconds =       0.00 minutes
	total time  =          0 seconds =       0.00 minutes
Total time:
	user time   =       0.82 seconds =       0.01 minutes
	system time =       0.02 seconds =       0.00 minutes
	total time  =          0 seconds =       0.00 minutes

*** tstart() called on ds1.sherrill.chemistry.gatech.edu
*** at Mon Mar 14 15:16:43 2016


         ------------------------------------------------------------
                                   SCF GRAD                          
                          Rob Parrish, Justin Turney,                
                       Andy Simmonett, and Alex Sokolov              
         ------------------------------------------------------------

  ==> Geometry <==

    Molecular point group: c2v
    Full point group: C2v

    Geometry (in Angstrom), charge = 0, multiplicity = 1:

       Center              X                  Y                   Z               Mass       
    ------------   -----------------  -----------------  -----------------  -----------------
           H         -0.000000000000     0.980353033500    -0.851761806021     1.007825032070
           O         -0.000000000000     0.698854518800     0.053668737213    15.994914619560
           O          0.000000000000    -0.698854518800     0.053668737213    15.994914619560
           H          0.000000000000    -0.980353033500    -0.851761806021     1.007825032070

  Nuclear repulsion =   37.868169331549154

  ==> Basis Set <==

  Basis Set: DZP
    Number of shells: 20
    Number of basis function: 42
    Number of Cartesian functions: 42
    Spherical Harmonics?: false
    Max angular momentum: 2

  ==> DFJKGrad: Density-Fitted SCF Gradients <==

    Gradient:                    1
    J tasked:                  Yes
    K tasked:                  Yes
    wK tasked:                  No
    OpenMP threads:              1
    Integrals threads:           1
    Memory (MB):               183
    Schwarz Cutoff:          0E+00
    Fitting Condition:       1E-12

   => Auxiliary Basis Set <=

  Basis Set: 
    Number of shells: 62
    Number of basis function: 226
    Number of Cartesian functions: 226
    Spherical Harmonics?: false
    Max angular momentum: 4


  -Total Gradient:
     Atom            X                  Y                   Z
    ------   -----------------  -----------------  -----------------
       1       -0.000000000000     0.000531150993    -0.002115943031
       2        0.000000000000    -0.000688437449     0.002115943031
       3       -0.000000000000     0.000688437449     0.002115943031
       4        0.000000000000    -0.000531150993    -0.002115943031


*** tstop() called on ds1.sherrill.chemistry.gatech.edu at Mon Mar 14 15:16:44 2016
Module time:
	user time   =       0.17 seconds =       0.00 minutes
	system time =       0.00 seconds =       0.00 minutes
	total time  =          1 seconds =       0.02 minutes
Total time:
	user time   =       0.99 seconds =       0.02 minutes
	system time =       0.02 seconds =       0.00 minutes
	total time  =          1 seconds =       0.02 minutes

  //>>>>>>>>>>>>>>>>>>>>>>>>>>>>>>>>>>>//
  //    Loading displacement 4 of 10   //
  //<<<<<<<<<<<<<<<<<<<<<<<<<<<<<<<<<<<//

*** tstart() called on ds1.sherrill.chemistry.gatech.edu
*** at Mon Mar 14 15:16:44 2016


         ---------------------------------------------------------
                                   SCF
            by Justin Turney, Rob Parrish, and Andy Simmonett
                              RHF Reference
                        1 Threads,    256 MiB Core
         ---------------------------------------------------------

  ==> Geometry <==

    Molecular point group: c2v
    Full point group: C2v

    Geometry (in Angstrom), charge = 0, multiplicity = 1:

       Center              X                  Y                   Z               Mass       
    ------------   -----------------  -----------------  -----------------  -----------------
           H         -0.000000000000     0.980353033500    -0.848146666413     1.007825032070
           O         -0.000000000000     0.698854518800     0.053440950553    15.994914619560
           O          0.000000000000    -0.698854518800     0.053440950553    15.994914619560
           H          0.000000000000    -0.980353033500    -0.848146666413     1.007825032070

  Running in c2v symmetry.

  Rotational constants: A =     10.93711  B =      0.95995  C =      0.88249 [cm^-1]
  Rotational constants: A = 327886.21746  B =  28778.51563  C =  26456.43866 [MHz]
  Nuclear repulsion =   37.907096426335677

  Charge       = 0
  Multiplicity = 1
  Electrons    = 18
  Nalpha       = 9
  Nbeta        = 9

  ==> Algorithm <==

  SCF Algorithm Type is DF.
  DIIS enabled.
  MOM disabled.
  Fractional occupation disabled.
  Guess Type is CORE.
  Energy threshold   = 1.00e-08
  Density threshold  = 1.00e-08
  Integral threshold = 0.00e+00

  ==> Primary Basis <==

  Basis Set: DZP
    Number of shells: 20
    Number of basis function: 42
    Number of Cartesian functions: 42
    Spherical Harmonics?: false
    Max angular momentum: 2

  ==> Pre-Iterations <==

   -------------------------------------------------------
    Irrep   Nso     Nmo     Nalpha   Nbeta   Ndocc  Nsocc
   -------------------------------------------------------
     A1        16      16       0       0       0       0
     A2         5       5       0       0       0       0
     B1         5       5       0       0       0       0
     B2        16      16       0       0       0       0
   -------------------------------------------------------
    Total      42      42       9       9       9       0
   -------------------------------------------------------

  ==> Integral Setup <==

  ==> DFJK: Density-Fitted J/K Matrices <==

    J tasked:                  Yes
    K tasked:                  Yes
    wK tasked:                  No
    OpenMP threads:              1
    Integrals threads:           1
    Memory (MB):               183
    Algorithm:                Core
    Integral Cache:           NONE
    Schwarz Cutoff:          1E-12
    Fitting Condition:       1E-12

   => Auxiliary Basis Set <=

  Basis Set: 
    Number of shells: 62
    Number of basis function: 226
    Number of Cartesian functions: 226
    Spherical Harmonics?: false
    Max angular momentum: 4

  Minimum eigenvalue in the overlap matrix is 9.4243061957E-03.
  Using Symmetric Orthogonalization.
  SCF Guess: Core (One-Electron) Hamiltonian.

  ==> Iterations <==

                           Total Energy        Delta E     RMS |[F,P]|

    Occupation by irrep:
             A1    A2    B1    B2 
    DOCC [     4,    0,    1,    4 ]

   @DF-RHF iter   1:  -139.37944971317319   -1.39379e+02   2.59504e-01 
    Occupation by irrep:
             A1    A2    B1    B2 
    DOCC [     4,    1,    1,    3 ]

   @DF-RHF iter   2:  -142.44560777001684   -3.06616e+00   1.47732e-01 DIIS
   @DF-RHF iter   3:  -149.92280564172248   -7.47720e+00   5.95476e-02 DIIS
   @DF-RHF iter   4:  -150.75362291789341   -8.30817e-01   1.31728e-02 DIIS
   @DF-RHF iter   5:  -150.80509343718859   -5.14705e-02   1.82164e-03 DIIS
   @DF-RHF iter   6:  -150.80641805026528   -1.32461e-03   4.57616e-04 DIIS
   @DF-RHF iter   7:  -150.80653377372755   -1.15723e-04   8.98499e-05 DIIS
   @DF-RHF iter   8:  -150.80653826199790   -4.48827e-06   1.84666e-05 DIIS
   @DF-RHF iter   9:  -150.80653846537396   -2.03376e-07   2.81514e-06 DIIS
   @DF-RHF iter  10:  -150.80653847122088   -5.84691e-09   6.96511e-07 DIIS
   @DF-RHF iter  11:  -150.80653847170478   -4.83908e-10   1.99393e-07 DIIS
   @DF-RHF iter  12:  -150.80653847173636   -3.15765e-11   3.31930e-08 DIIS
   @DF-RHF iter  13:  -150.80653847173704   -6.82121e-13   4.19975e-09 DIIS

  ==> Post-Iterations <==

    Orbital Energies (a.u.)
    -----------------------

    Doubly Occupied:                                                      

       1A1   -20.621280     1B2   -20.620947     2A1    -1.500900  
       2B2    -1.214490     3A1    -0.788159     1B1    -0.638693  
       4A1    -0.611638     3B2    -0.571818     1A2    -0.448471  

    Virtual:                                                              

       5A1     0.197003     4B2     0.233802     5B2     0.363823  
       6B2     0.797567     2B1     0.838768     6A1     0.843758  
       7A1     0.899148     2A2     0.923717     8A1     1.027562  
       7B2     1.058768     9A1     1.125055     8B2     1.150733  
       9B2     1.493769     3B1     1.719948    10A1     1.729388  
       3A2     1.886081     4B1     1.905747    10B2     2.115198  
      11A1     2.362780    12A1     2.532713    11B2     2.771841  
       5B1     2.779989    13A1     2.780497     4A2     2.803848  
       5A2     2.977104    12B2     3.003070    13B2     3.321338  
      14A1     3.598508    14B2     3.781266    15A1     4.062767  
      15B2     4.514835    16A1    45.234109    16B2    45.429865  

    Final Occupation by Irrep:
             A1    A2    B1    B2 
    DOCC [     4,    1,    1,    3 ]

  Energy converged.

  @DF-RHF Final Energy:  -150.80653847173704

   => Energetics <=

    Nuclear Repulsion Energy =             37.9070964263356771
    One-Electron Energy =                -283.3944758688653565
    Two-Electron Energy =                  94.6808409707926160
    DFT Exchange-Correlation Energy =       0.0000000000000000
    Empirical Dispersion Energy =           0.0000000000000000
    PCM Polarization Energy =               0.0000000000000000
    EFP Energy =                            0.0000000000000000
    Total Energy =                       -150.8065384717370705

    Alert: EFP and PCM quantities not currently incorporated into SCF psivars.

Properties will be evaluated at   0.000000,   0.000000,   0.000000 Bohr
  ==> Properties <==


Properties computed using the SCF density matrix

  Nuclear Dipole Moment: (a.u.)
     X:     0.0000      Y:    -0.0000      Z:    -1.5897

  Electronic Dipole Moment: (a.u.)
     X:     0.0000      Y:     0.0000      Z:     0.2092

  Dipole Moment: (a.u.)
     X:     0.0000      Y:    -0.0000      Z:    -1.3805     Total:     1.3805

  Dipole Moment: (Debye)
     X:     0.0000      Y:    -0.0000      Z:    -3.5089     Total:     3.5089


  Saving occupied orbitals to File 180.

*** tstop() called on ds1.sherrill.chemistry.gatech.edu at Mon Mar 14 15:16:44 2016
Module time:
	user time   =       0.14 seconds =       0.00 minutes
	system time =       0.01 seconds =       0.00 minutes
	total time  =          0 seconds =       0.00 minutes
Total time:
	user time   =       1.18 seconds =       0.02 minutes
	system time =       0.03 seconds =       0.00 minutes
	total time  =          1 seconds =       0.02 minutes

*** tstart() called on ds1.sherrill.chemistry.gatech.edu
*** at Mon Mar 14 15:16:44 2016


         ------------------------------------------------------------
                                   SCF GRAD                          
                          Rob Parrish, Justin Turney,                
                       Andy Simmonett, and Alex Sokolov              
         ------------------------------------------------------------

  ==> Geometry <==

    Molecular point group: c2v
    Full point group: C2v

    Geometry (in Angstrom), charge = 0, multiplicity = 1:

       Center              X                  Y                   Z               Mass       
    ------------   -----------------  -----------------  -----------------  -----------------
           H         -0.000000000000     0.980353033500    -0.848146666413     1.007825032070
           O         -0.000000000000     0.698854518800     0.053440950553    15.994914619560
           O          0.000000000000    -0.698854518800     0.053440950553    15.994914619560
           H          0.000000000000    -0.980353033500    -0.848146666413     1.007825032070

  Nuclear repulsion =   37.907096426335677

  ==> Basis Set <==

  Basis Set: DZP
    Number of shells: 20
    Number of basis function: 42
    Number of Cartesian functions: 42
    Spherical Harmonics?: false
    Max angular momentum: 2

  ==> DFJKGrad: Density-Fitted SCF Gradients <==

    Gradient:                    1
    J tasked:                  Yes
    K tasked:                  Yes
    wK tasked:                  No
    OpenMP threads:              1
    Integrals threads:           1
    Memory (MB):               183
    Schwarz Cutoff:          0E+00
    Fitting Condition:       1E-12

   => Auxiliary Basis Set <=

  Basis Set: 
    Number of shells: 62
    Number of basis function: 226
    Number of Cartesian functions: 226
    Spherical Harmonics?: false
    Max angular momentum: 4


  -Total Gradient:
     Atom            X                  Y                   Z
    ------   -----------------  -----------------  -----------------
       1        0.000000000000    -0.000540637967     0.002137672832
       2       -0.000000000000     0.000728479492    -0.002137672831
       3        0.000000000000    -0.000728479492    -0.002137672831
       4       -0.000000000000     0.000540637967     0.002137672832


*** tstop() called on ds1.sherrill.chemistry.gatech.edu at Mon Mar 14 15:16:44 2016
Module time:
	user time   =       0.17 seconds =       0.00 minutes
	system time =      -0.00 seconds =      -0.00 minutes
	total time  =          0 seconds =       0.00 minutes
Total time:
	user time   =       1.35 seconds =       0.02 minutes
	system time =       0.03 seconds =       0.00 minutes
	total time  =          1 seconds =       0.02 minutes

  //>>>>>>>>>>>>>>>>>>>>>>>>>>>>>>>>>>>//
  //    Loading displacement 5 of 10   //
  //<<<<<<<<<<<<<<<<<<<<<<<<<<<<<<<<<<<//

*** tstart() called on ds1.sherrill.chemistry.gatech.edu
*** at Mon Mar 14 15:16:44 2016


         ---------------------------------------------------------
                                   SCF
            by Justin Turney, Rob Parrish, and Andy Simmonett
                              RHF Reference
                        1 Threads,    256 MiB Core
         ---------------------------------------------------------

  ==> Geometry <==

    Molecular point group: c2v
    Full point group: C2v

    Geometry (in Angstrom), charge = 0, multiplicity = 1:

       Center              X                  Y                   Z               Mass       
    ------------   -----------------  -----------------  -----------------  -----------------
           H         -0.000000000000     0.980353033500    -0.849954236217     1.007825032070
           O         -0.000000000000     0.698386713461     0.053554843883    15.994914619560
           O          0.000000000000    -0.698386713461     0.053554843883    15.994914619560
           H          0.000000000000    -0.980353033500    -0.849954236217     1.007825032070

  Running in c2v symmetry.

  Rotational constants: A =     10.89064  B =      0.96109  C =      0.88315 [cm^-1]
  Rotational constants: A = 326493.09066  B =  28812.82285  C =  26476.30457 [MHz]
  Nuclear repulsion =   37.903475269584554

  Charge       = 0
  Multiplicity = 1
  Electrons    = 18
  Nalpha       = 9
  Nbeta        = 9

  ==> Algorithm <==

  SCF Algorithm Type is DF.
  DIIS enabled.
  MOM disabled.
  Fractional occupation disabled.
  Guess Type is CORE.
  Energy threshold   = 1.00e-08
  Density threshold  = 1.00e-08
  Integral threshold = 0.00e+00

  ==> Primary Basis <==

  Basis Set: DZP
    Number of shells: 20
    Number of basis function: 42
    Number of Cartesian functions: 42
    Spherical Harmonics?: false
    Max angular momentum: 2

  ==> Pre-Iterations <==

   -------------------------------------------------------
    Irrep   Nso     Nmo     Nalpha   Nbeta   Ndocc  Nsocc
   -------------------------------------------------------
     A1        16      16       0       0       0       0
     A2         5       5       0       0       0       0
     B1         5       5       0       0       0       0
     B2        16      16       0       0       0       0
   -------------------------------------------------------
    Total      42      42       9       9       9       0
   -------------------------------------------------------

  ==> Integral Setup <==

  ==> DFJK: Density-Fitted J/K Matrices <==

    J tasked:                  Yes
    K tasked:                  Yes
    wK tasked:                  No
    OpenMP threads:              1
    Integrals threads:           1
    Memory (MB):               183
    Algorithm:                Core
    Integral Cache:           NONE
    Schwarz Cutoff:          1E-12
    Fitting Condition:       1E-12

   => Auxiliary Basis Set <=

  Basis Set: 
    Number of shells: 62
    Number of basis function: 226
    Number of Cartesian functions: 226
    Spherical Harmonics?: false
    Max angular momentum: 4

  Minimum eigenvalue in the overlap matrix is 9.4154525153E-03.
  Using Symmetric Orthogonalization.
  SCF Guess: Core (One-Electron) Hamiltonian.

  ==> Iterations <==

                           Total Energy        Delta E     RMS |[F,P]|

    Occupation by irrep:
             A1    A2    B1    B2 
    DOCC [     4,    0,    1,    4 ]

   @DF-RHF iter   1:  -139.38171841093572   -1.39382e+02   2.59350e-01 
    Occupation by irrep:
             A1    A2    B1    B2 
    DOCC [     4,    1,    1,    3 ]

   @DF-RHF iter   2:  -142.43657673295624   -3.05486e+00   1.47853e-01 DIIS
   @DF-RHF iter   3:  -149.92127091704597   -7.48469e+00   5.95594e-02 DIIS
   @DF-RHF iter   4:  -150.75357893123046   -8.32308e-01   1.31616e-02 DIIS
   @DF-RHF iter   5:  -150.80508599574117   -5.15071e-02   1.83031e-03 DIIS
   @DF-RHF iter   6:  -150.80642373006668   -1.33773e-03   4.60122e-04 DIIS
   @DF-RHF iter   7:  -150.80654080839761   -1.17078e-04   9.01813e-05 DIIS
   @DF-RHF iter   8:  -150.80654533251698   -4.52412e-06   1.85351e-05 DIIS
   @DF-RHF iter   9:  -150.80654553702851   -2.04512e-07   2.80340e-06 DIIS
   @DF-RHF iter  10:  -150.80654554276407   -5.73556e-09   6.83397e-07 DIIS
   @DF-RHF iter  11:  -150.80654554322481   -4.60744e-10   1.97525e-07 DIIS
   @DF-RHF iter  12:  -150.80654554325591   -3.10934e-11   3.36303e-08 DIIS
   @DF-RHF iter  13:  -150.80654554325670   -7.95808e-13   4.43326e-09 DIIS

  ==> Post-Iterations <==

    Orbital Energies (a.u.)
    -----------------------

    Doubly Occupied:                                                      

       1A1   -20.621295     1B2   -20.620962     2A1    -1.500878  
       2B2    -1.213411     3A1    -0.787704     1B1    -0.638796  
       4A1    -0.611766     3B2    -0.571153     1A2    -0.448130  

    Virtual:                                                              

       5A1     0.196400     4B2     0.234010     5B2     0.363971  
       6B2     0.797468     2B1     0.838846     6A1     0.844082  
       7A1     0.898952     2A2     0.923764     8A1     1.026831  
       7B2     1.059037     9A1     1.123974     8B2     1.149180  
       9B2     1.494122     3B1     1.719610    10A1     1.729107  
       3A2     1.885791     4B1     1.905673    10B2     2.114826  
      11A1     2.363748    12A1     2.530593    11B2     2.768826  
       5B1     2.777662    13A1     2.777978     4A2     2.804952  
       5A2     2.975119    12B2     3.002474    13B2     3.319914  
      14A1     3.593574    14B2     3.777320    15A1     4.062484  
      15B2     4.514714    16A1    45.234120    16B2    45.429648  

    Final Occupation by Irrep:
             A1    A2    B1    B2 
    DOCC [     4,    1,    1,    3 ]

  Energy converged.

  @DF-RHF Final Energy:  -150.80654554325670

   => Energetics <=

    Nuclear Repulsion Energy =             37.9034752695845540
    One-Electron Energy =                -283.3918490758372855
    Two-Electron Energy =                  94.6818282629959924
    DFT Exchange-Correlation Energy =       0.0000000000000000
    Empirical Dispersion Energy =           0.0000000000000000
    PCM Polarization Energy =               0.0000000000000000
    EFP Energy =                            0.0000000000000000
    Total Energy =                       -150.8065455432567319

    Alert: EFP and PCM quantities not currently incorporated into SCF psivars.

Properties will be evaluated at   0.000000,   0.000000,   0.000000 Bohr
  ==> Properties <==


Properties computed using the SCF density matrix

  Nuclear Dipole Moment: (a.u.)
     X:     0.0000      Y:    -0.0000      Z:    -1.5931

  Electronic Dipole Moment: (a.u.)
     X:     0.0000      Y:     0.0000      Z:     0.2113

  Dipole Moment: (a.u.)
     X:     0.0000      Y:    -0.0000      Z:    -1.3818     Total:     1.3818

  Dipole Moment: (Debye)
     X:     0.0000      Y:    -0.0000      Z:    -3.5121     Total:     3.5121


  Saving occupied orbitals to File 180.

*** tstop() called on ds1.sherrill.chemistry.gatech.edu at Mon Mar 14 15:16:44 2016
Module time:
	user time   =       0.12 seconds =       0.00 minutes
	system time =       0.01 seconds =       0.00 minutes
	total time  =          0 seconds =       0.00 minutes
Total time:
	user time   =       1.50 seconds =       0.03 minutes
	system time =       0.04 seconds =       0.00 minutes
	total time  =          1 seconds =       0.02 minutes

*** tstart() called on ds1.sherrill.chemistry.gatech.edu
*** at Mon Mar 14 15:16:44 2016


         ------------------------------------------------------------
                                   SCF GRAD                          
                          Rob Parrish, Justin Turney,                
                       Andy Simmonett, and Alex Sokolov              
         ------------------------------------------------------------

  ==> Geometry <==

    Molecular point group: c2v
    Full point group: C2v

    Geometry (in Angstrom), charge = 0, multiplicity = 1:

       Center              X                  Y                   Z               Mass       
    ------------   -----------------  -----------------  -----------------  -----------------
           H         -0.000000000000     0.980353033500    -0.849954236217     1.007825032070
           O         -0.000000000000     0.698386713461     0.053554843883    15.994914619560
           O          0.000000000000    -0.698386713461     0.053554843883    15.994914619560
           H          0.000000000000    -0.980353033500    -0.849954236217     1.007825032070

  Nuclear repulsion =   37.903475269584554

  ==> Basis Set <==

  Basis Set: DZP
    Number of shells: 20
    Number of basis function: 42
    Number of Cartesian functions: 42
    Spherical Harmonics?: false
    Max angular momentum: 2

  ==> DFJKGrad: Density-Fitted SCF Gradients <==

    Gradient:                    1
    J tasked:                  Yes
    K tasked:                  Yes
    wK tasked:                  No
    OpenMP threads:              1
    Integrals threads:           1
    Memory (MB):               183
    Schwarz Cutoff:          0E+00
    Fitting Condition:       1E-12

   => Auxiliary Basis Set <=

  Basis Set: 
    Number of shells: 62
    Number of basis function: 226
    Number of Cartesian functions: 226
    Spherical Harmonics?: false
    Max angular momentum: 4


  -Total Gradient:
     Atom            X                  Y                   Z
    ------   -----------------  -----------------  -----------------
       1       -0.000000000000     0.000056051781    -0.000174493984
       2        0.000000000000    -0.000769625312     0.000174493984
       3       -0.000000000000     0.000769625312     0.000174493984
       4        0.000000000000    -0.000056051781    -0.000174493984


*** tstop() called on ds1.sherrill.chemistry.gatech.edu at Mon Mar 14 15:16:44 2016
Module time:
	user time   =       0.17 seconds =       0.00 minutes
	system time =       0.00 seconds =       0.00 minutes
	total time  =          0 seconds =       0.00 minutes
Total time:
	user time   =       1.67 seconds =       0.03 minutes
	system time =       0.04 seconds =       0.00 minutes
	total time  =          1 seconds =       0.02 minutes

  //>>>>>>>>>>>>>>>>>>>>>>>>>>>>>>>>>>>//
  //    Loading displacement 6 of 10   //
  //<<<<<<<<<<<<<<<<<<<<<<<<<<<<<<<<<<<//

*** tstart() called on ds1.sherrill.chemistry.gatech.edu
*** at Mon Mar 14 15:16:44 2016


         ---------------------------------------------------------
                                   SCF
            by Justin Turney, Rob Parrish, and Andy Simmonett
                              RHF Reference
                        1 Threads,    256 MiB Core
         ---------------------------------------------------------

  ==> Geometry <==

    Molecular point group: c2v
    Full point group: C2v

    Geometry (in Angstrom), charge = 0, multiplicity = 1:

       Center              X                  Y                   Z               Mass       
    ------------   -----------------  -----------------  -----------------  -----------------
           H         -0.000000000000     0.980353033500    -0.849954236217     1.007825032070
           O         -0.000000000000     0.699322324139     0.053554843883    15.994914619560
           O          0.000000000000    -0.699322324139     0.053554843883    15.994914619560
           H          0.000000000000    -0.980353033500    -0.849954236217     1.007825032070

  Running in c2v symmetry.

  Rotational constants: A =     10.89064  B =      0.95881  C =      0.88122 [cm^-1]
  Rotational constants: A = 326493.09066  B =  28744.26712  C =  26418.40563 [MHz]
  Nuclear repulsion =   37.871748446155522

  Charge       = 0
  Multiplicity = 1
  Electrons    = 18
  Nalpha       = 9
  Nbeta        = 9

  ==> Algorithm <==

  SCF Algorithm Type is DF.
  DIIS enabled.
  MOM disabled.
  Fractional occupation disabled.
  Guess Type is CORE.
  Energy threshold   = 1.00e-08
  Density threshold  = 1.00e-08
  Integral threshold = 0.00e+00

  ==> Primary Basis <==

  Basis Set: DZP
    Number of shells: 20
    Number of basis function: 42
    Number of Cartesian functions: 42
    Spherical Harmonics?: false
    Max angular momentum: 2

  ==> Pre-Iterations <==

   -------------------------------------------------------
    Irrep   Nso     Nmo     Nalpha   Nbeta   Ndocc  Nsocc
   -------------------------------------------------------
     A1        16      16       0       0       0       0
     A2         5       5       0       0       0       0
     B1         5       5       0       0       0       0
     B2        16      16       0       0       0       0
   -------------------------------------------------------
    Total      42      42       9       9       9       0
   -------------------------------------------------------

  ==> Integral Setup <==

  ==> DFJK: Density-Fitted J/K Matrices <==

    J tasked:                  Yes
    K tasked:                  Yes
    wK tasked:                  No
    OpenMP threads:              1
    Integrals threads:           1
    Memory (MB):               183
    Algorithm:                Core
    Integral Cache:           NONE
    Schwarz Cutoff:          1E-12
    Fitting Condition:       1E-12

   => Auxiliary Basis Set <=

  Basis Set: 
    Number of shells: 62
    Number of basis function: 226
    Number of Cartesian functions: 226
    Spherical Harmonics?: false
    Max angular momentum: 4

  Minimum eigenvalue in the overlap matrix is 9.4403207964E-03.
  Using Symmetric Orthogonalization.
  SCF Guess: Core (One-Electron) Hamiltonian.

  ==> Iterations <==

                           Total Energy        Delta E     RMS |[F,P]|

    Occupation by irrep:
             A1    A2    B1    B2 
    DOCC [     4,    0,    1,    4 ]

   @DF-RHF iter   1:  -139.38997288266540   -1.39390e+02   2.59350e-01 
    Occupation by irrep:
             A1    A2    B1    B2 
    DOCC [     4,    1,    1,    3 ]

   @DF-RHF iter   2:  -142.45043784004125   -3.06046e+00   1.47684e-01 DIIS
   @DF-RHF iter   3:  -149.92200668008783   -7.47157e+00   5.95405e-02 DIIS
   @DF-RHF iter   4:  -150.75356687897619   -8.31560e-01   1.31651e-02 DIIS
   @DF-RHF iter   5:  -150.80508868013746   -5.15218e-02   1.82800e-03 DIIS
   @DF-RHF iter   6:  -150.80642416510804   -1.33548e-03   4.58996e-04 DIIS
   @DF-RHF iter   7:  -150.80654077477666   -1.16610e-04   9.00492e-05 DIIS
   @DF-RHF iter   8:  -150.80654528361336   -4.50884e-06   1.85175e-05 DIIS
   @DF-RHF iter   9:  -150.80654548786893   -2.04256e-07   2.80849e-06 DIIS
   @DF-RHF iter  10:  -150.80654549365468   -5.78575e-09   6.89546e-07 DIIS
   @DF-RHF iter  11:  -150.80654549412714   -4.72454e-10   1.98973e-07 DIIS
   @DF-RHF iter  12:  -150.80654549415888   -3.17470e-11   3.33865e-08 DIIS
   @DF-RHF iter  13:  -150.80654549415951   -6.25278e-13   4.23271e-09 DIIS

  ==> Post-Iterations <==

    Orbital Energies (a.u.)
    -----------------------

    Doubly Occupied:                                                      

       1A1   -20.621484     1B2   -20.621152     2A1    -1.500093  
       2B2    -1.213937     3A1    -0.787267     1B1    -0.638414  
       4A1    -0.611287     3B2    -0.571676     1A2    -0.448590  

    Virtual:                                                              

       5A1     0.196454     4B2     0.233342     5B2     0.363100  
       6B2     0.797455     2B1     0.838771     6A1     0.843941  
       7A1     0.899435     2A2     0.923754     8A1     1.027345  
       7B2     1.058674     9A1     1.124127     8B2     1.149268  
       9B2     1.493569     3B1     1.719908    10A1     1.728933  
       3A2     1.885460     4B1     1.905704    10B2     2.114271  
      11A1     2.361607    12A1     2.530872    11B2     2.768761  
      13A1     2.777742     5B1     2.778472     4A2     2.803187  
       5A2     2.974574    12B2     3.002742    13B2     3.318785  
      14A1     3.594640    14B2     3.777011    15A1     4.062178  
      15B2     4.514042    16A1    45.233106    16B2    45.429708  

    Final Occupation by Irrep:
             A1    A2    B1    B2 
    DOCC [     4,    1,    1,    3 ]

  Energy converged.

  @DF-RHF Final Energy:  -150.80654549415951

   => Energetics <=

    Nuclear Repulsion Energy =             37.8717484461555216
    One-Electron Energy =                -283.3287855902891579
    Two-Electron Energy =                  94.6504916499741853
    DFT Exchange-Correlation Energy =       0.0000000000000000
    Empirical Dispersion Energy =           0.0000000000000000
    PCM Polarization Energy =               0.0000000000000000
    EFP Energy =                            0.0000000000000000
    Total Energy =                       -150.8065454941594510

    Alert: EFP and PCM quantities not currently incorporated into SCF psivars.

Properties will be evaluated at   0.000000,   0.000000,   0.000000 Bohr
  ==> Properties <==


Properties computed using the SCF density matrix

  Nuclear Dipole Moment: (a.u.)
     X:     0.0000      Y:    -0.0000      Z:    -1.5931

  Electronic Dipole Moment: (a.u.)
     X:     0.0000      Y:     0.0000      Z:     0.2113

  Dipole Moment: (a.u.)
     X:     0.0000      Y:    -0.0000      Z:    -1.3818     Total:     1.3818

  Dipole Moment: (Debye)
     X:     0.0000      Y:    -0.0000      Z:    -3.5122     Total:     3.5122


  Saving occupied orbitals to File 180.

*** tstop() called on ds1.sherrill.chemistry.gatech.edu at Mon Mar 14 15:16:45 2016
Module time:
	user time   =       0.13 seconds =       0.00 minutes
	system time =       0.00 seconds =       0.00 minutes
	total time  =          1 seconds =       0.02 minutes
Total time:
	user time   =       1.83 seconds =       0.03 minutes
	system time =       0.04 seconds =       0.00 minutes
	total time  =          2 seconds =       0.03 minutes

*** tstart() called on ds1.sherrill.chemistry.gatech.edu
*** at Mon Mar 14 15:16:45 2016


         ------------------------------------------------------------
                                   SCF GRAD                          
                          Rob Parrish, Justin Turney,                
                       Andy Simmonett, and Alex Sokolov              
         ------------------------------------------------------------

  ==> Geometry <==

    Molecular point group: c2v
    Full point group: C2v

    Geometry (in Angstrom), charge = 0, multiplicity = 1:

       Center              X                  Y                   Z               Mass       
    ------------   -----------------  -----------------  -----------------  -----------------
           H         -0.000000000000     0.980353033500    -0.849954236217     1.007825032070
           O         -0.000000000000     0.699322324139     0.053554843883    15.994914619560
           O          0.000000000000    -0.699322324139     0.053554843883    15.994914619560
           H          0.000000000000    -0.980353033500    -0.849954236217     1.007825032070

  Nuclear repulsion =   37.871748446155522

  ==> Basis Set <==

  Basis Set: DZP
    Number of shells: 20
    Number of basis function: 42
    Number of Cartesian functions: 42
    Spherical Harmonics?: false
    Max angular momentum: 2

  ==> DFJKGrad: Density-Fitted SCF Gradients <==

    Gradient:                    1
    J tasked:                  Yes
    K tasked:                  Yes
    wK tasked:                  No
    OpenMP threads:              1
    Integrals threads:           1
    Memory (MB):               183
    Schwarz Cutoff:          0E+00
    Fitting Condition:       1E-12

   => Auxiliary Basis Set <=

  Basis Set: 
    Number of shells: 62
    Number of basis function: 226
    Number of Cartesian functions: 226
    Spherical Harmonics?: false
    Max angular momentum: 4


  -Total Gradient:
     Atom            X                  Y                   Z
    ------   -----------------  -----------------  -----------------
       1        0.000000000000    -0.000055306489     0.000170709949
       2       -0.000000000000     0.000794667419    -0.000170709948
       3        0.000000000000    -0.000794667419    -0.000170709948
       4       -0.000000000000     0.000055306489     0.000170709949


*** tstop() called on ds1.sherrill.chemistry.gatech.edu at Mon Mar 14 15:16:45 2016
Module time:
	user time   =       0.17 seconds =       0.00 minutes
	system time =       0.00 seconds =       0.00 minutes
	total time  =          0 seconds =       0.00 minutes
Total time:
	user time   =       2.00 seconds =       0.03 minutes
	system time =       0.04 seconds =       0.00 minutes
	total time  =          2 seconds =       0.03 minutes

  //>>>>>>>>>>>>>>>>>>>>>>>>>>>>>>>>>>>//
  //    Loading displacement 7 of 10   //
  //<<<<<<<<<<<<<<<<<<<<<<<<<<<<<<<<<<<//

*** tstart() called on ds1.sherrill.chemistry.gatech.edu
*** at Mon Mar 14 15:16:45 2016


         ---------------------------------------------------------
                                   SCF
            by Justin Turney, Rob Parrish, and Andy Simmonett
                              RHF Reference
                        1 Threads,    256 MiB Core
         ---------------------------------------------------------

  ==> Geometry <==

    Molecular point group: c2
    Full point group: C2

    Geometry (in Angstrom), charge = 0, multiplicity = 1:

       Center              X                  Y                   Z               Mass       
    ------------   -----------------  -----------------  -----------------  -----------------
           H         -0.001757850361     0.980353033500    -0.849954236217     1.007825032070
           O          0.000155374891     0.698854518800     0.053554843883    15.994914619560
           O         -0.000155374891    -0.698854518800     0.053554843883    15.994914619560
           H          0.001757850361    -0.980353033500    -0.849954236217     1.007825032070

  Running in c2 symmetry.

  Rotational constants: A =     10.89059  B =      0.95995  C =      0.88219 [cm^-1]
  Rotational constants: A = 326491.61403  B =  28778.50416  C =  26447.33310 [MHz]
  Nuclear repulsion =   37.887580741593588

  Charge       = 0
  Multiplicity = 1
  Electrons    = 18
  Nalpha       = 9
  Nbeta        = 9

  ==> Algorithm <==

  SCF Algorithm Type is DF.
  DIIS enabled.
  MOM disabled.
  Fractional occupation disabled.
  Guess Type is CORE.
  Energy threshold   = 1.00e-08
  Density threshold  = 1.00e-08
  Integral threshold = 0.00e+00

  ==> Primary Basis <==

  Basis Set: DZP
    Number of shells: 20
    Number of basis function: 42
    Number of Cartesian functions: 42
    Spherical Harmonics?: false
    Max angular momentum: 2

  ==> Pre-Iterations <==

   -------------------------------------------------------
    Irrep   Nso     Nmo     Nalpha   Nbeta   Ndocc  Nsocc
   -------------------------------------------------------
     A         21      21       0       0       0       0
     B         21      21       0       0       0       0
   -------------------------------------------------------
    Total      42      42       9       9       9       0
   -------------------------------------------------------

  ==> Integral Setup <==

  ==> DFJK: Density-Fitted J/K Matrices <==

    J tasked:                  Yes
    K tasked:                  Yes
    wK tasked:                  No
    OpenMP threads:              1
    Integrals threads:           1
    Memory (MB):               183
    Algorithm:                Core
    Integral Cache:           NONE
    Schwarz Cutoff:          1E-12
    Fitting Condition:       1E-12

   => Auxiliary Basis Set <=

  Basis Set: 
    Number of shells: 62
    Number of basis function: 226
    Number of Cartesian functions: 226
    Spherical Harmonics?: false
    Max angular momentum: 4

  Minimum eigenvalue in the overlap matrix is 9.4279074043E-03.
  Using Symmetric Orthogonalization.
  SCF Guess: Core (One-Electron) Hamiltonian.

  ==> Iterations <==

                           Total Energy        Delta E     RMS |[F,P]|

   @DF-RHF iter   1:  -139.38586086740463   -1.39386e+02   2.07024e-01 
    Occupation by irrep:
              A     B 
    DOCC [     5,    4 ]

   @DF-RHF iter   2:  -142.44351589383342   -3.05766e+00   1.17955e-01 DIIS
   @DF-RHF iter   3:  -149.92163885989552   -7.47812e+00   4.75352e-02 DIIS
   @DF-RHF iter   4:  -150.75357375889342   -8.31935e-01   1.05075e-02 DIIS
   @DF-RHF iter   5:  -150.80508821704251   -5.15145e-02   1.46011e-03 DIIS
   @DF-RHF iter   6:  -150.80642483849942   -1.33662e-03   3.66840e-04 DIIS
   @DF-RHF iter   7:  -150.80654168363566   -1.16845e-04   7.19340e-05 DIIS
   @DF-RHF iter   8:  -150.80654620019877   -4.51656e-06   1.47886e-05 DIIS
   @DF-RHF iter   9:  -150.80654640459269   -2.04394e-07   2.23991e-06 DIIS
   @DF-RHF iter  10:  -150.80654641035414   -5.76145e-09   5.48017e-07 DIIS
   @DF-RHF iter  11:  -150.80654641082066   -4.66514e-10   1.58256e-07 DIIS
   @DF-RHF iter  12:  -150.80654641085221   -3.15481e-11   2.67459e-08 DIIS
   @DF-RHF iter  13:  -150.80654641085283   -6.25278e-13   3.45589e-09 DIIS

  ==> Post-Iterations <==

    Orbital Energies (a.u.)
    -----------------------

    Doubly Occupied:                                                      

       1A    -20.621390     1B    -20.621057     2A     -1.500485  
       2B     -1.213674     3A     -0.787484     3B     -0.638606  
       4A     -0.611526     4B     -0.571414     5A     -0.448360  

    Virtual:                                                              

       6A      0.196427     5B      0.233677     6B      0.363533  
       7B      0.797460     8B      0.838809     7A      0.844012  
       8A      0.899194     9A      0.923758    10A      1.027088  
       9B      1.058854    11A      1.124050    10B      1.149222  
      11B      1.493843    12B      1.719762    12A      1.729020  
      13A      1.885623    13B      1.905685    14B      2.114551  
      14A      2.362682    15A      2.530728    15B      2.768732  
      16A      2.777821    16B      2.778124    17A      2.804107  
      18A      2.974840    17B      3.002607    18B      3.319346  
      19A      3.594106    19B      3.777157    20A      4.062330  
      20B      4.514377    21A     45.233612    21B     45.429678  

    Final Occupation by Irrep:
              A     B 
    DOCC [     5,    4 ]

  Energy converged.

  @DF-RHF Final Energy:  -150.80654641085283

   => Energetics <=

    Nuclear Repulsion Energy =             37.8875807415935881
    One-Electron Energy =                -283.3602629079952067
    Two-Electron Energy =                  94.6661357555487655
    DFT Exchange-Correlation Energy =       0.0000000000000000
    Empirical Dispersion Energy =           0.0000000000000000
    PCM Polarization Energy =               0.0000000000000000
    EFP Energy =                            0.0000000000000000
    Total Energy =                       -150.8065464108528602

    Alert: EFP and PCM quantities not currently incorporated into SCF psivars.

Properties will be evaluated at   0.000000,   0.000000,   0.000000 Bohr
  ==> Properties <==


Properties computed using the SCF density matrix

  Nuclear Dipole Moment: (a.u.)
     X:     0.0000      Y:    -0.0000      Z:    -1.5931

  Electronic Dipole Moment: (a.u.)
     X:     0.0000      Y:     0.0000      Z:     0.2113

  Dipole Moment: (a.u.)
     X:     0.0000      Y:    -0.0000      Z:    -1.3818     Total:     1.3818

  Dipole Moment: (Debye)
     X:     0.0000      Y:    -0.0000      Z:    -3.5121     Total:     3.5121


  Saving occupied orbitals to File 180.

*** tstop() called on ds1.sherrill.chemistry.gatech.edu at Mon Mar 14 15:16:45 2016
Module time:
	user time   =       0.12 seconds =       0.00 minutes
	system time =       0.01 seconds =       0.00 minutes
	total time  =          0 seconds =       0.00 minutes
Total time:
	user time   =       2.15 seconds =       0.04 minutes
	system time =       0.05 seconds =       0.00 minutes
	total time  =          2 seconds =       0.03 minutes

*** tstart() called on ds1.sherrill.chemistry.gatech.edu
*** at Mon Mar 14 15:16:45 2016


         ------------------------------------------------------------
                                   SCF GRAD                          
                          Rob Parrish, Justin Turney,                
                       Andy Simmonett, and Alex Sokolov              
         ------------------------------------------------------------

  ==> Geometry <==

    Molecular point group: c2
    Full point group: C2

    Geometry (in Angstrom), charge = 0, multiplicity = 1:

       Center              X                  Y                   Z               Mass       
    ------------   -----------------  -----------------  -----------------  -----------------
           H         -0.001757850361     0.980353033500    -0.849954236217     1.007825032070
           O          0.000155374891     0.698854518800     0.053554843883    15.994914619560
           O         -0.000155374891    -0.698854518800     0.053554843883    15.994914619560
           H          0.001757850361    -0.980353033500    -0.849954236217     1.007825032070

  Nuclear repulsion =   37.887580741593588

  ==> Basis Set <==

  Basis Set: DZP
    Number of shells: 20
    Number of basis function: 42
    Number of Cartesian functions: 42
    Spherical Harmonics?: false
    Max angular momentum: 2

  ==> DFJKGrad: Density-Fitted SCF Gradients <==

    Gradient:                    1
    J tasked:                  Yes
    K tasked:                  Yes
    wK tasked:                  No
    OpenMP threads:              1
    Integrals threads:           1
    Memory (MB):               183
    Schwarz Cutoff:          0E+00
    Fitting Condition:       1E-12

   => Auxiliary Basis Set <=

  Basis Set: 
    Number of shells: 62
    Number of basis function: 226
    Number of Cartesian functions: 226
    Spherical Harmonics?: false
    Max angular momentum: 4


  -Total Gradient:
     Atom            X                  Y                   Z
    ------   -----------------  -----------------  -----------------
       1        0.000053766800     0.000000937205    -0.000004165005
       2       -0.000075423489     0.000014065595     0.000004165005
       3        0.000075423489    -0.000014065595     0.000004165005
       4       -0.000053766800    -0.000000937205    -0.000004165005


*** tstop() called on ds1.sherrill.chemistry.gatech.edu at Mon Mar 14 15:16:45 2016
Module time:
	user time   =       0.16 seconds =       0.00 minutes
	system time =      -0.00 seconds =      -0.00 minutes
	total time  =          0 seconds =       0.00 minutes
Total time:
	user time   =       2.32 seconds =       0.04 minutes
	system time =       0.05 seconds =       0.00 minutes
	total time  =          2 seconds =       0.03 minutes

  //>>>>>>>>>>>>>>>>>>>>>>>>>>>>>>>>>>>//
  //    Loading displacement 8 of 10   //
  //<<<<<<<<<<<<<<<<<<<<<<<<<<<<<<<<<<<//

*** tstart() called on ds1.sherrill.chemistry.gatech.edu
*** at Mon Mar 14 15:16:45 2016


         ---------------------------------------------------------
                                   SCF
            by Justin Turney, Rob Parrish, and Andy Simmonett
                              RHF Reference
                        1 Threads,    256 MiB Core
         ---------------------------------------------------------

  ==> Geometry <==

    Molecular point group: cs
    Full point group: Cs

    Geometry (in Angstrom), charge = 0, multiplicity = 1:

       Center              X                  Y                   Z               Mass       
    ------------   -----------------  -----------------  -----------------  -----------------
           H          0.000000000000     0.978620219989    -0.849778065722     1.007825032070
           O          0.000000000000     0.698963701804     0.053680428792    15.994914619560
           O          0.000000000000    -0.698745335796     0.053429258974    15.994914619560
           H          0.000000000000    -0.982085847010    -0.850130406712     1.007825032070

  Running in cs symmetry.

  Rotational constants: A =     10.89065  B =      0.95995  C =      0.88219 [cm^-1]
  Rotational constants: A = 326493.49575  B =  28778.50101  C =  26447.32341 [MHz]
  Nuclear repulsion =   37.887593176224179

  Charge       = 0
  Multiplicity = 1
  Electrons    = 18
  Nalpha       = 9
  Nbeta        = 9

  ==> Algorithm <==

  SCF Algorithm Type is DF.
  DIIS enabled.
  MOM disabled.
  Fractional occupation disabled.
  Guess Type is CORE.
  Energy threshold   = 1.00e-08
  Density threshold  = 1.00e-08
  Integral threshold = 0.00e+00

  ==> Primary Basis <==

  Basis Set: DZP
    Number of shells: 20
    Number of basis function: 42
    Number of Cartesian functions: 42
    Spherical Harmonics?: false
    Max angular momentum: 2

  ==> Pre-Iterations <==

   -------------------------------------------------------
    Irrep   Nso     Nmo     Nalpha   Nbeta   Ndocc  Nsocc
   -------------------------------------------------------
     A'        32      32       0       0       0       0
     A"        10      10       0       0       0       0
   -------------------------------------------------------
    Total      42      42       9       9       9       0
   -------------------------------------------------------

  ==> Integral Setup <==

  ==> DFJK: Density-Fitted J/K Matrices <==

    J tasked:                  Yes
    K tasked:                  Yes
    wK tasked:                  No
    OpenMP threads:              1
    Integrals threads:           1
    Memory (MB):               183
    Algorithm:                Core
    Integral Cache:           NONE
    Schwarz Cutoff:          1E-12
    Fitting Condition:       1E-12

   => Auxiliary Basis Set <=

  Basis Set: 
    Number of shells: 62
    Number of basis function: 226
    Number of Cartesian functions: 226
    Spherical Harmonics?: false
    Max angular momentum: 4

  Minimum eigenvalue in the overlap matrix is 9.4279127346E-03.
  Using Symmetric Orthogonalization.
  SCF Guess: Core (One-Electron) Hamiltonian.

  ==> Iterations <==

                           Total Energy        Delta E     RMS |[F,P]|

    Occupation by irrep:
             Ap   App 
    DOCC [     8,    1 ]

   @DF-RHF iter   1:  -139.38585733792050   -1.39386e+02   1.83388e-01 
    Occupation by irrep:
             Ap   App 
    DOCC [     7,    2 ]

   @DF-RHF iter   2:  -142.44350006684448   -3.05764e+00   1.04488e-01 DIIS
   @DF-RHF iter   3:  -149.92159903641746   -7.47810e+00   4.21091e-02 DIIS
   @DF-RHF iter   4:  -150.75356315185414   -8.31964e-01   9.30892e-03 DIIS
   @DF-RHF iter   5:  -150.80507595582819   -5.15128e-02   1.30275e-03 DIIS
   @DF-RHF iter   6:  -150.80641182734507   -1.33587e-03   3.60375e-04 DIIS
[...]
	 ---------------------------------------------------------------------------
     Norm of target step-size    0.16709
	Writing optimization data to binary file.
	Structure for next step:
	Cartesian Geometry (in Angstrom)
	    H     0.2512598252   1.1443707164  -0.4821424120
	    O    -0.3186636366   0.6175903897   0.0605270352
	    O     0.3186636366  -0.6175903897   0.0605270352
	    H    -0.2512598252  -1.1443707164  -0.4821424120
			--------------------------
			 OPTKING Finished Execution 
			--------------------------

    Structure for next step:
    Molecular point group: c2
    Full point group: C2

    Geometry (in Angstrom), charge = 0, multiplicity = 1:

    H            0.251259825225     1.144370716372    -0.510503110193
    O           -0.318663636588     0.617590389672     0.032166336966
    O            0.318663636588    -0.617590389672     0.032166336966
    H           -0.251259825225    -1.144370716372    -0.510503110193

gradient() will perform analytic gradient computation.

*** tstart() called on ds1.sherrill.chemistry.gatech.edu
*** at Mon Mar 14 15:17:02 2016


         ---------------------------------------------------------
                                   SCF
            by Justin Turney, Rob Parrish, and Andy Simmonett
                              RHF Reference
                        1 Threads,    256 MiB Core
         ---------------------------------------------------------

  ==> Geometry <==

    Molecular point group: c2
    Full point group: C2

    Geometry (in Angstrom), charge = 0, multiplicity = 1:

       Center              X                  Y                   Z               Mass       
    ------------   -----------------  -----------------  -----------------  -----------------
           H          0.251259825225     1.144370716372    -0.510503110193     1.007825032070
           O         -0.318663636588     0.617590389672     0.032166336966    15.994914619560
           O          0.318663636588    -0.617590389672     0.032166336966    15.994914619560
           H         -0.251259825225    -1.144370716372    -0.510503110193     1.007825032070

  Running in c2 symmetry.

  Rotational constants: A =     10.72877  B =      0.94906  C =      0.92539 [cm^-1]
  Rotational constants: A = 321640.51778  B =  28452.15079  C =  27742.37201 [MHz]
  Nuclear repulsion =   38.122484117433487

  Charge       = 0
  Multiplicity = 1
  Electrons    = 18
  Nalpha       = 9
  Nbeta        = 9

  ==> Algorithm <==

  SCF Algorithm Type is DF.
  DIIS enabled.
  MOM disabled.
  Fractional occupation disabled.
  Guess Type is READ.
  Energy threshold   = 1.00e-08
  Density threshold  = 1.00e-08
  Integral threshold = 0.00e+00

  ==> Primary Basis <==

  Basis Set: DZP
    Number of shells: 20
    Number of basis function: 42
    Number of Cartesian functions: 42
    Spherical Harmonics?: false
    Max angular momentum: 2

  ==> Pre-Iterations <==

   -------------------------------------------------------
    Irrep   Nso     Nmo     Nalpha   Nbeta   Ndocc  Nsocc
   -------------------------------------------------------
     A         21      21       0       0       0       0
     B         21      21       0       0       0       0
   -------------------------------------------------------
    Total      42      42       9       9       9       0
   -------------------------------------------------------

  ==> Integral Setup <==

  ==> DFJK: Density-Fitted J/K Matrices <==

    J tasked:                  Yes
    K tasked:                  Yes
    wK tasked:                  No
    OpenMP threads:              1
    Integrals threads:           1
    Memory (MB):               183
    Algorithm:                Core
    Integral Cache:           NONE
    Schwarz Cutoff:          1E-12
    Fitting Condition:       1E-12

   => Auxiliary Basis Set <=

  Basis Set: 
    Number of shells: 62
    Number of basis function: 226
    Number of Cartesian functions: 226
    Spherical Harmonics?: false
    Max angular momentum: 4

  Minimum eigenvalue in the overlap matrix is 9.5182341709E-03.
  Using Symmetric Orthogonalization.
  SCF Guess: Reading in previously saved MOs, projecting if necessary.

  Using orbitals from previous SCF, no projection.
  Recomputing DOCC and SOCC from number of alpha and beta electrons from previous calculation.
              A     B 
    DOCC [     5,    4 ]

  ==> Iterations <==

                           Total Energy        Delta E     RMS |[F,P]|

   @DF-RHF iter   0:  -150.81864735130117   -1.50819e+02   2.12920e-03 
   @DF-RHF iter   1:  -150.81973742021864   -1.09007e-03   5.12790e-04 
   @DF-RHF iter   2:  -150.81993455482129   -1.97135e-04   1.96603e-04 DIIS
   @DF-RHF iter   3:  -150.81998075669529   -4.62019e-05   6.83441e-05 DIIS
   @DF-RHF iter   4:  -150.81998576806495   -5.01137e-06   2.05876e-05 DIIS
   @DF-RHF iter   5:  -150.81998628092722   -5.12862e-07   4.14850e-06 DIIS
   @DF-RHF iter   6:  -150.81998630167035   -2.07431e-08   8.63089e-07 DIIS
   @DF-RHF iter   7:  -150.81998630262791   -9.57556e-10   2.17777e-07 DIIS
   @DF-RHF iter   8:  -150.81998630269371   -6.57963e-11   5.14159e-08 DIIS
   @DF-RHF iter   9:  -150.81998630269806   -4.34852e-12   1.86637e-08 DIIS
   @DF-RHF iter  10:  -150.81998630269891   -8.52651e-13   4.68407e-09 DIIS

  ==> Post-Iterations <==

    Orbital Energies (a.u.)
    -----------------------

    Doubly Occupied:                                                      

       1A    -20.619383     1B    -20.619033     2A     -1.504855  
       2B     -1.208253     3A     -0.737885     3B     -0.714323  
       4A     -0.622574     5A     -0.504842     4B     -0.478111  

    Virtual:                                                              

       6A      0.232884     5B      0.236923     6B      0.335009  
       7B      0.779507     7A      0.839924     8A      0.875280  
       8B      0.880681     9A      0.894421     9B      0.974851  
      10B      1.130545    10A      1.130556    11A      1.227014  
      11B      1.422123    12B      1.681610    12A      1.715636  
      13A      1.858166    13B      1.898276    14A      2.361577  
      15A      2.425128    14B      2.453194    15B      2.614692  
      16A      2.700243    17A      2.829232    16B      2.932392  
      17B      2.976429    18B      3.134324    18A      3.183490  
      19A      3.656840    19B      3.700769    20A      4.139081  
      20B      4.476416    21A     45.276211    21B     45.408865  

    Final Occupation by Irrep:
              A     B 
    DOCC [     5,    4 ]

  Energy converged.

  @DF-RHF Final Energy:  -150.81998630269891

   => Energetics <=

    Nuclear Repulsion Energy =             38.1224841174334870
    One-Electron Energy =                -283.8664223166988450
    Two-Electron Energy =                  94.9239518965664502
    DFT Exchange-Correlation Energy =       0.0000000000000000
    Empirical Dispersion Energy =           0.0000000000000000
    PCM Polarization Energy =               0.0000000000000000
    EFP Energy =                            0.0000000000000000
    Total Energy =                       -150.8199863026989078

    Alert: EFP and PCM quantities not currently incorporated into SCF psivars.

Properties will be evaluated at   0.000000,   0.000000,   0.000000 Bohr
  ==> Properties <==


Properties computed using the SCF density matrix

  Nuclear Dipole Moment: (a.u.)
     X:     0.0000      Y:    -0.0000      Z:    -0.9569

  Electronic Dipole Moment: (a.u.)
     X:     0.0000      Y:     0.0000      Z:     0.1117

  Dipole Moment: (a.u.)
     X:     0.0000      Y:    -0.0000      Z:    -0.8451     Total:     0.8451

  Dipole Moment: (Debye)
     X:     0.0000      Y:    -0.0000      Z:    -2.1481     Total:     2.1481


  Saving occupied orbitals to File 180.

*** tstop() called on ds1.sherrill.chemistry.gatech.edu at Mon Mar 14 15:17:02 2016
Module time:
	user time   =       0.20 seconds =       0.00 minutes
	system time =      -0.00 seconds =      -0.00 minutes
	total time  =          0 seconds =       0.00 minutes
Total time:
	user time   =      18.47 seconds =       0.31 minutes
	system time =       0.38 seconds =       0.01 minutes
	total time  =         19 seconds =       0.32 minutes

*** tstart() called on ds1.sherrill.chemistry.gatech.edu
*** at Mon Mar 14 15:17:02 2016


         ------------------------------------------------------------
                                   SCF GRAD                          
                          Rob Parrish, Justin Turney,                
                       Andy Simmonett, and Alex Sokolov              
         ------------------------------------------------------------

  ==> Geometry <==

    Molecular point group: c2
    Full point group: C2

    Geometry (in Angstrom), charge = 0, multiplicity = 1:

       Center              X                  Y                   Z               Mass       
    ------------   -----------------  -----------------  -----------------  -----------------
           H          0.251259825225     1.144370716372    -0.510503110193     1.007825032070
           O         -0.318663636588     0.617590389672     0.032166336966    15.994914619560
           O          0.318663636588    -0.617590389672     0.032166336966    15.994914619560
           H         -0.251259825225    -1.144370716372    -0.510503110193     1.007825032070

  Nuclear repulsion =   38.122484117433487

  ==> Basis Set <==

  Basis Set: DZP
    Number of shells: 20
    Number of basis function: 42
    Number of Cartesian functions: 42
    Spherical Harmonics?: false
    Max angular momentum: 2

  ==> DFJKGrad: Density-Fitted SCF Gradients <==

    Gradient:                    1
    J tasked:                  Yes
    K tasked:                  Yes
    wK tasked:                  No
    OpenMP threads:              1
    Integrals threads:           1
    Memory (MB):               183
    Schwarz Cutoff:          0E+00
    Fitting Condition:       1E-12

   => Auxiliary Basis Set <=

  Basis Set: 
    Number of shells: 62
    Number of basis function: 226
    Number of Cartesian functions: 226
    Spherical Harmonics?: false
    Max angular momentum: 4


  -Total Gradient:
     Atom            X                  Y                   Z
    ------   -----------------  -----------------  -----------------
       1        0.000256054083    -0.001022674003    -0.000622158337
       2       -0.000606321579    -0.000550801726     0.000622158337
       3        0.000606321579     0.000550801726     0.000622158337
       4       -0.000256054083     0.001022674003    -0.000622158337


*** tstop() called on ds1.sherrill.chemistry.gatech.edu at Mon Mar 14 15:17:02 2016
Module time:
	user time   =       0.24 seconds =       0.00 minutes
	system time =       0.01 seconds =       0.00 minutes
	total time  =          0 seconds =       0.00 minutes
Total time:
	user time   =      18.71 seconds =       0.31 minutes
	system time =       0.39 seconds =       0.01 minutes
	total time  =         19 seconds =       0.32 minutes

			-----------------------------------------
			 OPTKING 2.0: for geometry optimizations 
			  - R.A. King,  Bethel University        
			-----------------------------------------

	Previous internal coordinate definitions found.
	---Fragment 1 Geometry and Gradient---
	 H           0.4748122579        2.1625472484       -0.9647110683
	 O          -0.6021870017        1.1670766988        0.0607855676
	 O           0.6021870017       -1.1670766988        0.0607855676
	 H          -0.4748122579       -2.1625472484       -0.9647110683
	             0.0002560541       -0.0010226740       -0.0006221583
	            -0.0006063216       -0.0005508017        0.0006221583
	             0.0006063216        0.0005508017        0.0006221583
	            -0.0002560541        0.0010226740       -0.0006221583

	---Fragment 1 Intrafragment Coordinates---
	 - Coordinate -           - BOHR/RAD -       - ANG/DEG -
	 R(1,2)           =         1.789562	       0.946995
	 R(2,3)           =         2.626555	       1.389913
	 R(3,4)           =         1.789562	       0.946995
	 B(1,2,3)         =         1.790951	     102.613920
	 B(2,3,4)         =         1.790951	     102.613920
	 D(1,2,3,4)       =        -1.886361	    -108.080530

	Current energy   :      -150.8199863027

	Energy change for the previous step:
		Projected    :         0.0000394529
		Actual       :         0.0000415842

	Performing Bofill update.
	Previous computed or guess Hessian on step 1.
	Steps to be used in Hessian update: 42 41

@IRC
@IRC Houston, we've found a minimum!
@IRC

    Determining lagrangian multiplier for constrained minimization.

    Lagrangian multiplier is converged.

	Back-transformation to cartesian coordinates...
	Successfully converged to displaced geometry.

	--- Internal Coordinate Step in ANG or DEG, aJ/ANG or AJ/DEG ---
	 ---------------------------------------------------------------------------
	   Coordinate                Previous        Force       Change         New 
	   ----------                --------       ------       ------       ------
	    1 R(1,2)          =      0.946995     0.000480    -0.000181     0.946814
	    2 R(2,3)          =      1.389913     0.010197     0.002007     1.391920
	    3 R(3,4)          =      0.946995     0.000480    -0.000181     0.946814
	    4 B(1,2,3)        =    102.613920     0.000141    -0.245015   102.368905
	    5 B(2,3,4)        =    102.613920     0.000141    -0.245015   102.368905
	    6 D(1,2,3,4)      =   -108.080530    -0.000020    -9.569177  -117.649707
	 ---------------------------------------------------------------------------
  Gradient in step direction:   -0.0010587193
  Hessian in step direction :    0.0095491392
  Projected energy change for next step:   -0.000043558595609

	 **** Optimization is complete! ****
	Writing optimization data to binary file.
	Final energy is   -150.8199863026989
	Final (previous) structure:
	Cartesian Geometry (in Angstrom)
	    H     0.2653649246   1.1701440375  -0.4499673973
	    O    -0.3314020942   0.6119904600   0.0283520206
	    O     0.3314020942  -0.6119904600   0.0283520206
	    H    -0.2653649246  -1.1701440375  -0.4499673973
	Saving final (previous) structure.
@IRC ----------------------------------------------
@IRC            ****      IRC Report      ****
@IRC ----------------------------------------------
@IRC  Step    Energy              Change in Energy 
@IRC ----------------------------------------------
@IRC    0  -150.806546209859   -150.806546209859
@IRC    1  -150.806864171044     -0.000317961185
@IRC    2  -150.807781268354     -0.000917097310
@IRC    3  -150.809193636830     -0.001412368476
@IRC    4  -150.810947019464     -0.001753382634
@IRC    5  -150.812862098119     -0.001915078655
@IRC    6  -150.814759543240     -0.001897445120
@IRC    7  -150.816482504110     -0.001722960871
@IRC    8  -150.817913071668     -0.001430567557
@IRC    9  -150.818981704861     -0.001068633194
@IRC   10  -150.819668686288     -0.000686981426
@IRC   11  -150.819998261107     -0.000329574820
@IRC   12  -150.820027879312     -0.000029618204
@IRC   13  -150.820027886857     -0.000000007545
@IRC ----------------------------------------------

@IRC -----------------------------------------------------
@IRC              ****     IRC Steps     ****             
@IRC -----------------------------------------------------
@IRC        |          Distance         |
@IRC Step   | Step    Arc       Line    |    Coord   0    Coord   1    Coord   2    Coord   3
@IRC ------------------------------------------------------------------------------------------
@IRC    0     -0.00  -0.00000   -0.00000      1.78833409   2.64128729   1.78833409   1.87282583
@IRC    1     -0.20  -0.19995   -0.17486      1.78845497   2.64083237   1.78845497   1.87115825
@IRC    2     -0.40  -0.39995   -0.34945      1.78884305   2.63955377   1.78884305   1.86789767
@IRC    3     -0.60  -0.59994   -0.52360      1.78939132   2.63755589   1.78939132   1.86212817
@IRC    4     -0.80  -0.79992   -0.69704      1.78998810   2.63492763   1.78998810   1.85499788
@IRC    5     -1.00  -0.99991   -0.86969      1.79053056   2.63189051   1.79053056   1.84672415
@IRC    6     -1.20  -1.19989   -1.04150      1.79088962   2.62874971   1.79088962   1.83785744
@IRC    7     -1.40  -1.39986   -1.21252      1.79102529   2.62591805   1.79102529   1.82890667
@IRC    8     -1.60  -1.59982   -1.38281      1.79091796   2.62390460   1.79091796   1.82028344
@IRC    9     -1.80  -1.79978   -1.55241      1.79061445   2.62323214   1.79061445   1.81220029
@IRC   10     -2.00  -1.99974   -1.72134      1.79017989   2.62424207   1.79017989   1.80464087
@IRC   11     -2.20  -2.19972   -1.88958      1.78969245   2.62682156   1.78969245   1.79749374
@IRC   12     -2.40  -2.39970   -2.05718      1.78921683   2.63034488   1.78921683   1.79076459
@IRC   13     -2.60  -2.42877   -2.05726      1.78921817   2.63034583   1.78921817   1.79081772
@IRC ------------------------------------------------------------------------------------------
@IRC         |          Distance         |
@IRC  Step   | Step    Arc       Line    |    Coord   4    Coord   5
@IRC ----------------------------------------------------------------
@IRC    0     -0.00  -0.00000   -0.00000      1.87282583   0.00000000
@IRC    1     -0.20  -0.19995   -0.17486      1.87115825  -0.17484657
@IRC    2     -0.40  -0.39995   -0.34945      1.86789767  -0.34937093
@IRC    3     -0.60  -0.59994   -0.52360      1.86212817  -0.52330981
@IRC    4     -0.80  -0.79992   -0.69704      1.85499788  -0.69643907
@IRC    5     -1.00  -0.99991   -0.86969      1.84672415  -0.86865672
@IRC    6     -1.20  -1.19989   -1.04150      1.83785744  -1.03998071
@IRC    7     -1.40  -1.39986   -1.21252      1.82890667  -1.21050661
@IRC    8     -1.60  -1.59982   -1.38281      1.82028344  -1.38034792
@IRC    9     -1.80  -1.79978   -1.55241      1.81220029  -1.54956819
@IRC   10     -2.00  -1.99974   -1.72134      1.80464087  -1.71815191
@IRC   11     -2.20  -2.19972   -1.88958      1.79749374  -1.88606594
@IRC   12     -2.40  -2.39970   -2.05718      1.79076459  -2.05335892
@IRC   13     -2.60  -2.42877   -2.05726      1.79081772  -2.05334609
@IRC ----------------------------------------------------------------

	---Fragment 1 Intrafragment Coordinates---
	 - Coordinate -           - BOHR/RAD -       - ANG/DEG -
	 R(1,2)           =         1.789218	       0.946813
	 R(2,3)           =         2.630346	       1.391919
	 R(3,4)           =         1.789218	       0.946813
	 B(1,2,3)         =         1.790818	     102.606297
	 B(2,3,4)         =         1.790818	     102.606297
	 D(1,2,3,4)       =        -2.053346	    -117.648065

	---Fragment 1 Intrafragment Coordinates---
	 - Coordinate -           - BOHR/RAD -       - ANG/DEG -
	 R(1,2)           =         1.789218	       0.946813
	 R(2,3)           =         2.630346	       1.391919
	 R(3,4)           =         1.789218	       0.946813
	 B(1,2,3)         =         1.790818	     102.606297
	 B(2,3,4)         =         1.790818	     102.606297
	 D(1,2,3,4)       =        -2.053346	    -117.648065

			--------------------------
			 OPTKING Finished Execution 
			--------------------------

    Final optimized geometry and variables:
    Molecular point group: c2
    Full point group: C2

    Geometry (in Angstrom), charge = 0, multiplicity = 1:

    H            0.265364924640     1.170144037543    -0.449967382134
    O           -0.331402094170     0.611990459978     0.028352035764
    O            0.331402094170    -0.611990459978     0.028352035764
    H           -0.265364924640    -1.170144037543    -0.449967382134

	Cleaning optimization helper files.
	Energy of last IRC point..........................................PASSED

*** PSI4 exiting successfully. Buy a developer a beer!
