
    -----------------------------------------------------------------------
          Psi4: An Open-Source Ab Initio Electronic Structure Package
                               Psi4 (inplace)

                         Git: Rev (inplace)


    J. M. Turney, A. C. Simmonett, R. M. Parrish, E. G. Hohenstein,
    F. A. Evangelista, J. T. Fermann, B. J. Mintz, L. A. Burns, J. J. Wilke,
    M. L. Abrams, N. J. Russ, M. L. Leininger, C. L. Janssen, E. T. Seidl,
    W. D. Allen, H. F. Schaefer, R. A. King, E. F. Valeev, C. D. Sherrill,
    and T. D. Crawford, WIREs Comput. Mol. Sci. 2, 556-565 (2012)
    (doi: 10.1002/wcms.93)


                         Additional Contributions by
    A. E. DePrince, U. Bozkaya, A. Yu. Sokolov, D. G. A. Smith, R. Di Remigio,
    R. M. Richard, J. F. Gonthier, H. R. McAlexander, M. Saitow, and
    B. P. Pritchard
    -----------------------------------------------------------------------


    Psi4 started on: Friday, 27 January 2017 07:13PM

    Process ID:  43481
    PSIDATADIR: /Users/daniel/Gits/psixc/psi4/share/psi4
    Memory:     500.0 MiB
    Threads:    1
    
  ==> Input File <==

--------------------------------------------------------------------------
#! CASSCF/6-31G** energy point

molecule {
O
H 1 1.00
H 1 1.00 2 103.1
}

set {
    basis           6-31G**
    reference       rhf
    scf_type        pk
    mcscf_algorithm ah
    qc_module       detci
    nat_orbs        True
}

cisd_energy, cisd_wfn = energy("CISD", return_wfn=True)
psi4.clean()

set {
    restricted_docc [1, 0, 0, 0]
    active          [3, 0, 1, 2] 
}
casscf_energy = energy('casscf', ref_wfn=cisd_wfn)

compare_values(-76.073865006902, casscf_energy, 6, 'CASSCF Energy')  #TEST
--------------------------------------------------------------------------
    There are an even number of electrons - assuming singlet.
    Specify the multiplicity in the molecule input block.


         ---------------------------------------------------------
                                   SCF
            by Justin Turney, Rob Parrish, Andy Simmonett
                             and Daniel Smith
                              RHF Reference
                        1 Threads,    524 MiB Core
         ---------------------------------------------------------

  ==> Geometry <==

    Molecular point group: c2v
    Full point group: C2v

    Geometry (in Angstrom), charge = 0, multiplicity = 1:

       Center              X                  Y                   Z               Mass       
    ------------   -----------------  -----------------  -----------------  -----------------
           O          0.000000000000     0.000000000000    -0.069592187390    15.994914619560
           H          0.000000000000    -0.783151105291     0.552239257844     1.007825032070
           H          0.000000000000     0.783151105291     0.552239257844     1.007825032070

  Running in c2v symmetry.

  Rotational constants: A =     24.35462  B =     13.63610  C =      8.74166 [cm^-1]
  Rotational constants: A = 730133.20983  B = 408800.03934  C = 262068.46197 [MHz]
  Nuclear repulsion =    8.804686618639057

  Charge       = 0
  Multiplicity = 1
  Electrons    = 10
  Nalpha       = 5
  Nbeta        = 5

  ==> Algorithm <==

  SCF Algorithm Type is PK.
  DIIS enabled.
  MOM disabled.
  Fractional occupation disabled.
  Guess Type is SAD.
  Energy threshold   = 1.00e-08
  Density threshold  = 1.00e-08
  Integral threshold = 0.00e+00

  ==> Primary Basis <==

  Basis Set: file /Users/daniel/Gits/psixc/psi4/share/psi4/basis/6-31gss.gbs
    Number of shells: 12
    Number of basis function: 25
    Number of Cartesian functions: 25
    Spherical Harmonics?: false
    Max angular momentum: 2

  ==> Pre-Iterations <==

   -------------------------------------------------------
    Irrep   Nso     Nmo     Nalpha   Nbeta   Ndocc  Nsocc
   -------------------------------------------------------
     A1        12      12       0       0       0       0
     A2         2       2       0       0       0       0
     B1         4       4       0       0       0       0
     B2         7       7       0       0       0       0
   -------------------------------------------------------
    Total      25      25       5       5       5       0
   -------------------------------------------------------

  ==> Integral Setup <==

  Using in-core PK algorithm.
   Calculation information:
      Number of atoms:                   3
      Number of AO shells:              12
      Number of primitives:             25
      Number of atomic orbitals:        25
      Number of basis functions:        25

      Integral cutoff                 1.00e-12
      Number of threads:                 1

  Performing in-core PK
  Using 105950 doubles for integral storage.
  We computed 3081 shell quartets total.
  Whereas there are 3081 unique shell quartets.
  ==> DiskJK: Disk-Based J/K Matrices <==

    J tasked:                  Yes
    K tasked:                  Yes
    wK tasked:                  No
    Memory (MB):               375
    Schwarz Cutoff:          1E-12

    OpenMP threads:              1
  Minimum eigenvalue in the overlap matrix is 2.3361254517E-02.
  Using Symmetric Orthogonalization.

  SCF Guess: Superposition of Atomic Densities via on-the-fly atomic UHF.

  ==> Iterations <==

                        Total Energy        Delta E     RMS |[F,P]|

   @RHF iter   0:   -75.82951076464855   -7.58295e+01   1.07180e-01 
   @RHF iter   1:   -75.98146354647254   -1.51953e-01   1.99695e-02 
   @RHF iter   2:   -76.00857007826824   -2.71065e-02   1.08486e-02 DIIS
   @RHF iter   3:   -76.01702430446386   -8.45423e-03   1.29100e-03 DIIS
   @RHF iter   4:   -76.01726906952128   -2.44765e-04   3.56773e-04 DIIS
   @RHF iter   5:   -76.01729529303978   -2.62235e-05   6.56935e-05 DIIS
   @RHF iter   6:   -76.01729650790381   -1.21486e-06   1.22886e-05 DIIS
   @RHF iter   7:   -76.01729655357197   -4.56682e-08   2.33344e-06 DIIS
   @RHF iter   8:   -76.01729655525068   -1.67871e-09   3.47337e-07 DIIS
   @RHF iter   9:   -76.01729655528288   -3.22018e-11   3.20903e-08 DIIS
   @RHF iter  10:   -76.01729655528300   -1.13687e-13   3.37776e-09 DIIS

  ==> Post-Iterations <==

    Orbital Energies (a.u.)
    -----------------------

    Doubly Occupied:                                                      

       1A1   -20.569000     2A1    -1.320609     1B2    -0.678724  
       3A1    -0.563930     1B1    -0.495004  

    Virtual:                                                              

       4A1     0.202466     2B2     0.292719     3B2     0.981164  
       5A1     1.056318     6A1     1.129179     2B1     1.168639  
       4B2     1.294985     7A1     1.413596     1A2     1.802875  
       8A1     1.806916     3B1     1.918871     9A1     2.513249  
       5B2     2.537822     6B2     2.713577     2A2     2.921065  
       4B1     2.947486    10A1     3.291755    11A1     3.620730  
       7B2     3.874917    12A1     4.077740  

    Final Occupation by Irrep:
             A1    A2    B1    B2 
    DOCC [     3,    0,    1,    1 ]

  Energy converged.

  @RHF Final Energy:   -76.01729655528300

   => Energetics <=

    Nuclear Repulsion Energy =              8.8046866186390567
    One-Electron Energy =                -122.3894315296196282
    Two-Electron Energy =                  37.5674483556975787
    Total Energy =                        -76.0172965552829965



Properties will be evaluated at   0.000000,   0.000000,   0.000000 Bohr

Properties computed using the SCF density matrix

  Nuclear Dipole Moment: (a.u.)
     X:     0.0000      Y:     0.0000      Z:     1.0351

  Electronic Dipole Moment: (a.u.)
     X:     0.0000      Y:     0.0000      Z:    -0.1532

  Dipole Moment: (a.u.)
     X:     0.0000      Y:     0.0000      Z:     0.8819     Total:     0.8819

  Dipole Moment: (Debye)
     X:     0.0000      Y:     0.0000      Z:     2.2414     Total:     2.2414

 MINTS: Wrapper to libmints.
   by Justin Turney

   Calculation information:
      Number of atoms:                   3
      Number of AO shells:              12
      Number of SO shells:               9
      Number of primitives:             25
      Number of atomic orbitals:        25
      Number of basis functions:        25

      Number of irreps:                  4
      Integral cutoff                 0.00e+00
      Number of functions per irrep: [  12    2    4    7 ]

 OEINTS: Overlap, kinetic, potential, dipole, and quadrupole integrals
         stored in file 35.

      Computing two-electron integrals...done
      Computed 13773 non-zero two-electron integrals.
        Stored in file 33.


         ---------------------------------------------------------
                          Configuration Interaction
                            (a 'D E T C I' module)

                 C. David Sherrill, Daniel G. A. Smith, and
                              Matt L. Leininger
         ---------------------------------------------------------


   ==> Parameters <==

    EX LEVEL       =        2      H0 BLOCKSIZE  =     1000
    VAL EX LEVEL   =        0      H0 GUESS SIZE =     1000
    H0COUPLINGSIZE =        0      H0 COUPLING   =       NO
    MAXITER        =       24      NUM PRINT     =       20
    NUM ROOTS      =        1      ICORE         =        1
    PRINT LVL      =        1      FCI           =       NO
    R CONV         = 1.00e-04      MIXED         =      YES
    E CONV         = 1.00e-06      MIXED4        =      YES
    R4S            =       NO      REPL OTF      =       NO
    DIAG METHOD    =      SEM      FOLLOW ROOT   =        0
    PRECONDITIONER = DAVIDSON      UPDATE        = DAVIDSON
    S              =   0.0000      Ms0           =      YES
    GUESS VECTOR   =  H0BLOCK      OPENTYPE      =     NONE
    COLLAPSE SIZE  =        1      HD AVG        = EVANGELISTI
    MAX NUM VECS   =       25      REF SYM       =     AUTO
    IOPEN        =       NO

    EX ALLOW       =  1  1 
    STATE AVERAGE  =  0(1.00) 

   ==> CI Orbital and Space information <==

    RAS1 LVL      =        4      A RAS3 MAX    =        2
    RAS1 MIN      =        8      B RAS3 MAX    =        2
    A RAS1 LVL    =        4      RAS4 LVL      =       25
    A RAS1 MIN    =        3      A RAS4 MAX    =        0
    A RAS1 MAX    =        5      B RAS4 MAX    =        0
    B RAS1 LVL    =        4      RAS4 MAX      =        0
    B RAS1 MIN    =        3      A RAS34 MAX   =        2
    B RAS1 MAX    =        5      B RAS34 MAX   =        2
    RAS3 LVL      =        5      RAS34 MAX     =        2
    RAS3 MAX      =        2
   ------------------------------------------------------
               Space    Total    A1    A2    B1    B2
   ------------------------------------------------------
                 Nso       25    12     2     4     7
                 Nmo       25    12     2     4     7
               Ndocc        5     3     0     1     1
               Nsocc        0     0     0     0     0
   ------------------------------------------------------
                       CI Spaces
   ------------------------------------------------------
        Dropped DOCC        0     0     0     0     0
                RAS1        5     3     0     1     1
                RAS2        0     0     0     0     0
                RAS3       20     9     2     3     6
                RAS4        0     0     0     0     0
      Active (total)       25    12     2     4     7
        Dropped UOCC        0     0     0     0     0
   ------------------------------------------------------

   ==> Setting up CI strings <==

    There are 2001 alpha and 2001 beta strings
    The CI space requires 3831 (3.83E+03) determinants and 9 blocks


   ==> Transforming CI integrals <==

	Presorting SO-basis two-electron integrals.
	Sorting File: SO Ints (nn|nn) nbuckets = 1
	Transforming the one-electron integrals and constructing Fock matrices
	Starting first half-transformation.
	Sorting half-transformed integrals.
	First half integral transformation complete.
	Starting second half-transformation.
	Two-electron integral transformation complete.

*** H0 Block Eigenvalue = -76.17567487

Find the roots by the Simultaneous Expansion Method (Block Davidson Method)
Using 1 initial trial vectors
Iter  0  Root  1 = -76.175674865   Delta_E -8.498E+01   Delta_C  5.712E-01  
Iter  1  Root  1 = -76.219434320   Delta_E -4.376E-02   Delta_C  4.860E-02  
Iter  2  Root  1 = -76.219796775   Delta_E -3.625E-04   Delta_C  1.504E-02  
Iter  3  Root  1 = -76.219843937   Delta_E -4.716E-05   Delta_C  3.535E-03  
Iter  4  Root  1 = -76.219847196   Delta_E -3.259E-06   Delta_C  8.097E-04  
Iter  5  Root  1 = -76.219847432   Delta_E -2.359E-07   Delta_C  2.823E-04  
Iter  6  Root  1 = -76.219847448   Delta_E -1.603E-08   Delta_C  7.483E-05 c

* ROOT 1 CI total energy = -76.2198474477533

   The 20 most important determinants:

    *   1    0.973608  (  475,  475)  1A1X  2A1X  3A1X  1B1X  1B2X  
    *   2   -0.047868  (  503,  503)  1A1X  2A1X  3A1X  1B2X  2B1X  
    *   3   -0.038770  (  506,  506)  1A1X  2A1X  3A1X  1B1X  2B2X  
    *   4   -0.031728  (  482,  482)  1A1X  2A1X  1B1X  1B2X  6A1X  
    *   5   -0.027070  (  507,  507)  1A1X  2A1X  3A1X  1B1X  3B2X  
    *   6   -0.025589  (  482,  503)  1A1X  2A1X  3A1B  1B1A  1B2X  6A1A  2B1B  
    *   7   -0.025589  (  503,  482)  1A1X  2A1X  3A1A  1B1B  1B2X  6A1B  2B1A  
    *   8    0.022976  (  503,  508)  1A1X  2A1X  3A1X  1B1B  1B2A  2B1A  4B2B  
    *   9    0.022976  (  508,  503)  1A1X  2A1X  3A1X  1B1A  1B2B  2B1B  4B2A  
    *  10    0.022863  (  503,  506)  1A1X  2A1X  3A1X  1B1B  1B2A  2B1A  2B2B  
    *  11    0.022863  (  506,  503)  1A1X  2A1X  3A1X  1B1A  1B2B  2B1B  2B2A  
    *  12   -0.022767  ( 1011, 1011)  1A1X  2A1X  3A1X  1B1X  5A1X  
    *  13   -0.022682  (  508,  508)  1A1X  2A1X  3A1X  1B1X  4B2X  
    *  14   -0.022588  (  476,  476)  1A1X  2A1X  1B1X  1B2X  4A1X  
    *  15   -0.021958  (  506,  508)  1A1X  2A1X  3A1X  1B1X  2B2A  4B2B  
    *  16   -0.021958  (  508,  506)  1A1X  2A1X  3A1X  1B1X  2B2B  4B2A  
    *  17    0.021325  (  476,  506)  1A1X  2A1X  3A1B  1B1X  1B2A  4A1A  2B2B  
    *  18    0.021325  (  506,  476)  1A1X  2A1X  3A1A  1B1X  1B2B  4A1B  2B2A  
    *  19   -0.020580  ( 1024, 1024)  1A1X  2A1X  1B1X  1B2X  3B2X  
    *  20   -0.018744  ( 1010, 1010)  1A1X  2A1X  3A1X  1B1X  4A1X  



   Computing CI Natural Orbitals
   !Warning: New orbitals will be sorted by occuption number,
   orbital spaces (occ/act/vir) may change.

		 "A good bug is a dead bug" 

			 - Starship Troopers

		 "I didn't write FORTRAN.  That's the problem."

			 - Edward Valeev

 MINTS: Wrapper to libmints.
   by Justin Turney

   Calculation information:
      Number of atoms:                   3
      Number of AO shells:              12
      Number of SO shells:               9
      Number of primitives:             25
      Number of atomic orbitals:        25
      Number of basis functions:        25

      Number of irreps:                  4
      Integral cutoff                 0.00e+00
      Number of functions per irrep: [  12    2    4    7 ]

 OEINTS: Overlap, kinetic, potential, dipole, and quadrupole integrals
         stored in file 35.

      Computing two-electron integrals...done
      Computed 13773 non-zero two-electron integrals.
        Stored in file 33.


         ---------------------------------------------------------
                Multi-Configurational Self-Consistent Field
                            (a 'D E T C I' module)

                 Daniel G. A. Smith, C. David Sherrill, and
                              Matt L. Leininger
         ---------------------------------------------------------


   ==> Parameters <==

    EX LEVEL       =        8      H0 BLOCKSIZE  =     1000
    VAL EX LEVEL   =        0      H0 GUESS SIZE =     1000
    H0COUPLINGSIZE =        0      H0 COUPLING   =       NO
    MAXITER        =       12      NUM PRINT     =       20
    NUM ROOTS      =        1      ICORE         =        1
    PRINT LVL      =        1      FCI           =      YES
    R CONV         = 1.00e-07      MIXED         =      YES
    E CONV         = 1.00e-06      MIXED4        =      YES
    R4S            =       NO      REPL OTF      =       NO
    DIAG METHOD    =      SEM      FOLLOW ROOT   =        0
    PRECONDITIONER = DAVIDSON      UPDATE        = DAVIDSON
    S              =   0.0000      Ms0           =      YES
    GUESS VECTOR   =   D FILE      OPENTYPE      =     NONE
    COLLAPSE SIZE  =        1      HD AVG        = EVANGELISTI
    MAX NUM VECS   =       13      REF SYM       =     AUTO
    IOPEN        =       NO

    EX ALLOW       =  1  1  1  1  1  1  1  1 
    STATE AVERAGE  =  0(1.00) 

   ==> CI Orbital and Space information <==

   ------------------------------------------------------
               Space    Total    A1    A2    B1    B2
   ------------------------------------------------------
                 Nso       25    12     2     4     7
                 Nmo       25    12     2     4     7
               Ndocc        5     3     0     1     1
               Nsocc        0     0     0     0     0
   ------------------------------------------------------
                        MCSCF Spaces
   ------------------------------------------------------
         Frozen DOCC        0     0     0     0     0
     Restricted DOCC        1     1     0     0     0
              Active        6     3     0     1     2
     Restricted UOCC       18     8     2     3     5
         Frozen UOCC        0     0     0     0     0
   ------------------------------------------------------

   ==> Setting up CI strings <==

    There are 15 alpha and 15 beta strings
    The CI space requires 65 (6.50E+01) determinants and 4 blocks


   ==> Setting up MCSCF integrals <==

  Using in-core PK algorithm.
   Calculation information:
      Number of atoms:                   3
      Number of AO shells:              12
      Number of primitives:             25
      Number of atomic orbitals:        25
      Number of basis functions:        25

      Integral cutoff                 1.00e-12
      Number of threads:                 1

  Performing in-core PK
  Using 105950 doubles for integral storage.
  We computed 3081 shell quartets total.
  Whereas there are 3081 unique shell quartets.
  ==> DiskJK: Disk-Based J/K Matrices <==

    J tasked:                  Yes
    K tasked:                  Yes
    wK tasked:                  No
    Memory (MB):              3200
    Schwarz Cutoff:          1E-12

    OpenMP threads:              1

   ==> Starting MCSCF iterations <==

        Iter         Total Energy       Delta E   Orb RMS    CI RMS  NCI NORB
   @MCSCF  1:    -76.072259447914   -7.6072e+01  9.69e-03  4.47e-14    1    1  Initial CI
   @MCSCF  2:    -76.073626023341   -1.3666e-03  3.06e-03  2.81e-06    6    1  TS
   @MCSCF  3:    -76.073797573887   -1.7155e-04  1.28e-03  7.99e-07    6    1  TS
   @MCSCF  4:    -76.073838741982   -4.1168e-05  8.24e-04  2.53e-07    6    1  TS, DIIS
   @MCSCF  5:    -76.073852990568   -1.4249e-05  5.24e-04  1.22e-07    6    1  TS, DIIS
   @MCSCF  6:    -76.073861306642   -8.3161e-06  3.46e-04  1.06e-07    6    1  TS, DIIS
   @MCSCF  7:    -76.073863518895   -2.2123e-06  1.71e-04  1.52e-07    6    1  TS, DIIS
   @MCSCF  8:    -76.073864870342   -1.3514e-06  3.53e-05  5.59e-08    6    1  TS, DIIS
   @MCSCF  9:    -76.073864941220   -7.0878e-08  4.86e-05  1.98e-08    6    1  TS, DIIS
      !Warning. Augmented Hessian did not converge. Taking an approx step.
   @MCSCF 10:    -76.073864994348   -5.3128e-08  1.50e-05  1.12e-08    6   16  TS, DIIS
      !Warning. Augmented Hessian did not converge. Taking an approx step.
   @MCSCF 11:    -76.073864995156   -8.0848e-10  7.76e-06  4.92e-09    6   16  TS, DIIS

          @MCSCF has converged!

   @MCSCF Final Energy:  -76.073864995156455

   ==> Energetics <==

    SCF energy =            0.000000000000000
    Total CI energy =     -76.073864995156455


   ==> CI root 0 information <==

    CI Root  0 energy =   -76.073864995156455

   Natural occupation numbers:

        B1   1.999341        A1   1.998802        A1   1.976077
        B2   1.973937        B2   0.026628        A1   0.025216


   The 20 most important determinants:

    *   1   -0.987032  (    3,    3)  2A1X  3A1X  1B1X  1B2X  
    *   2    0.080374  (    6,    6)  2A1X  3A1X  1B1X  2B2X  
    *   3    0.068576  (    4,    4)  2A1X  4A1X  1B1X  1B2X  
    *   4   -0.057847  (    4,    6)  2A1X  3A1B  4A1A  1B1X  1B2A  2B2B  
    *   5   -0.057847  (    6,    4)  2A1X  3A1A  4A1B  1B1X  1B2B  2B2A  
    *   6    0.031068  (    9,   10)  2A1X  3A1A  4A1A  1B1X  1B2B  2B2B  
    *   7    0.031068  (   10,    9)  2A1X  3A1B  4A1B  1B1X  1B2A  2B2A  
    *   8    0.030845  (    9,    9)  2A1X  3A1X  4A1X  1B1X  
    *   9    0.027561  (   10,   10)  2A1X  1B1X  1B2X  2B2X  
    *  10   -0.026779  (    3,    7)  2A1X  3A1A  4A1B  1B1X  1B2A  2B2B  
    *  11   -0.026779  (    7,    3)  2A1X  3A1B  4A1A  1B1X  1B2B  2B2A  
    *  12    0.020860  (    4,    5)  2A1A  3A1B  4A1X  1B1X  1B2X  
    *  13    0.020860  (    5,    4)  2A1B  3A1A  4A1X  1B1X  1B2X  
    *  14    0.018980  (   11,   11)  3A1X  1B1X  1B2X  2B2X  
    *  15    0.015798  (   13,   13)  2A1X  3A1X  4A1X  1B2X  
    *  16   -0.015335  (    5,    6)  2A1B  3A1X  4A1A  1B1X  1B2A  2B2B  
    *  17   -0.015335  (    6,    5)  2A1A  3A1X  4A1B  1B1X  1B2B  2B2A  
    *  18    0.014417  (    5,    5)  3A1X  4A1X  1B1X  1B2X  
    *  19   -0.012923  (    7,    7)  2A1X  4A1X  1B1X  2B2X  
    *  20    0.011552  (    9,   11)  2A1A  3A1X  4A1A  1B1X  1B2B  2B2B  



Properties will be evaluated at   0.000000,   0.000000,   0.000000 Bohr

Properties computed using the CASSCF density matrix

  Nuclear Dipole Moment: (a.u.)
     X:     0.0000      Y:     0.0000      Z:     1.0351

  Electronic Dipole Moment: (a.u.)
     X:     0.0000      Y:     0.0000      Z:    -0.2208

  Dipole Moment: (a.u.)
     X:     0.0000      Y:     0.0000      Z:     0.8143     Total:     0.8143

  Dipole Moment: (Debye)
     X:     0.0000      Y:     0.0000      Z:     2.0696     Total:     2.0696

	CASSCF Energy.....................................................PASSED

*** Psi4 exiting successfully. Buy a developer a beer!
