
    -----------------------------------------------------------------------
          Psi4: An Open-Source Ab Initio Electronic Structure Package
                               Psi4 1.3a2.dev69 

                         Git: Rev {nbody} da35840 dirty


    R. M. Parrish, L. A. Burns, D. G. A. Smith, A. C. Simmonett,
    A. E. DePrince III, E. G. Hohenstein, U. Bozkaya, A. Yu. Sokolov,
    R. Di Remigio, R. M. Richard, J. F. Gonthier, A. M. James,
    H. R. McAlexander, A. Kumar, M. Saitow, X. Wang, B. P. Pritchard,
    P. Verma, H. F. Schaefer III, K. Patkowski, R. A. King, E. F. Valeev,
    F. A. Evangelista, J. M. Turney, T. D. Crawford, and C. D. Sherrill,
    J. Chem. Theory Comput. 13(7) pp 3185--3197 (2017).
    (doi: 10.1021/acs.jctc.7b00174)


                         Additional Contributions by
    P. Kraus, H. Kruse, M. H. Lechner, M. C. Schieber, and R. A. Shaw

    -----------------------------------------------------------------------


    Psi4 started on: Thursday, 25 October 2018 06:33PM

    Process ID: 32687
    Host:       ds1.sherrill.chemistry.gatech.edu
    PSIDATADIR: /theoryfs2/ds/alenaizan/Gits/psi4/objdir/stage/share/psi4
    Memory:     500.0 MiB
    Threads:    6
    
  ==> Input File <==

--------------------------------------------------------------------------
#! Computation of VMFC-corrected water trimer gradient (geometry from J. Chem. Theory Comput. 11, 2126-2136 (2015))

import numpy as np

molecule water_trimer {
O      -2.76373224  -1.24377706  -0.15444566
H      -1.12357791  -2.06227970  -0.05243799
H      -3.80792362  -2.08705525   1.06090407
--
O       2.46924614  -1.75437739  -0.17092884
H       3.76368260  -2.21425403   1.00846104
H       2.30598330   0.07098445  -0.03942473
--
O       0.29127930   3.00875625   0.20308515
H      -1.21253048   1.95820900   0.10303324
H       0.10002049   4.24958115  -1.10222079
no_reorient
no_com
symmetry c1
units bohr
}

g, wfn = psi4.gradient('MP2/cc-pV[D, T]Z', molecule=water_trimer, bsse_type='vmfc', max_nbody=2,
                                      return_total_data=True, return_wfn=True)
core.clean()

vmfc_scheme = {'((1, 2), (1, 2))': 1, '((1, 3), (1, 3))': 1, '((2, 3), (2, 3))': 1, #TEST
               '((1,), (1, 2))': -1, '((1,), (1, 3))': -1, '((2,), (1, 2))': -1, #TEST
               '((2,), (2, 3))': -1, '((3,), (1, 3))': -1, '((3,), (2, 3))': -1, #TEST
               '((1,), (1,))': 1, '((2,), (2,))': 1, '((3,), (3,))': 1} #TEST

energy_dict, gradient_dict = {}, {} #TEST
for i in vmfc_scheme: #TEST
    mol = water_trimer.extract_subsets(eval(i)[0], list(set(eval(i)[1]) - set(eval(i)[0]))) #TEST
    gradient_dict[i], wfn_mol = gradient('MP2/cc-pV[D, T]Z', molecule=mol, return_wfn=True) #TEST
    energy_dict[i] = core.get_variable('CURRENT ENERGY') #TEST
    core.clean() #TEST

    compare_values(energy_dict[i], wfn.variables()[i], 8, 'Energy of %s' %i) #TEST
    compare_arrays(gradient_dict[i], wfn.arrays()['PTYPE %s' %i], 8, 'Gradient of %s' %i) #TEST

energy, gradient = 0, np.zeros((9, 3)) #TEST

for i in vmfc_scheme: #TEST
    energy += vmfc_scheme[i] * energy_dict[i] #TEST

compare_values(energy, wfn.variables()['2'], 8, 'VMFC-Corrected Energy') #TEST

for i in range(3): #TEST
    key = '((%i,), (%i,))' %(i + 1, i + 1) #TEST
    gradient[i*3: i*3 + 3, :] += vmfc_scheme.pop(key) * np.array(gradient_dict[key]) #TEST

for key in vmfc_scheme: #TEST
    i, j = eval(key)[1][0]-1, eval(key)[1][1]-1 #TEST
    index = [i*3, i*3 + 1, i*3 + 2, j*3, j*3 + 1, j*3 + 2] #TEST
    gradient[index, :] += vmfc_scheme[key] * np.array(gradient_dict[key]) #TEST
 
compare_arrays(gradient, wfn.arrays()['GRADIENT 2'], 8, 'VMFC-Corrected Gradient') #TEST
--------------------------------------------------------------------------


   ===> N-Body Interaction Abacus <===
        BSSE Treatment:                     vmfc
        Number of 1-body computations:     9
        Number of 2-body computations:     3

   ==> N-Body: Now computing 1-body complexes <==


       N-Body: Computing complex (1/9) with fragments (2,) in the basis of fragments (1, 2).


  //>>>>>>>>>>>>>>>>>>>>>>>>>>>>>>>>>>>//
  //    CBS Setup: MP2/cc-pV[D, T]Z    //
  //<<<<<<<<<<<<<<<<<<<<<<<<<<<<<<<<<<<//

    Naive listing of computations required.
             hf / cc-pvtz                  for  HF TOTAL ENERGY, GRADIENT
            mp2 / cc-pvdz                  for  MP2 TOTAL ENERGY, GRADIENT
            mp2 / cc-pvtz                  for  MP2 TOTAL ENERGY, GRADIENT
             hf / cc-pvdz                  for  HF TOTAL ENERGY, GRADIENT
             hf / cc-pvtz                  for  HF TOTAL ENERGY, GRADIENT

    Enlightened listing of computations required.
             hf / cc-pvtz                  for  HF TOTAL ENERGY, GRADIENT
            mp2 / cc-pvdz                  for  MP2 TOTAL ENERGY, GRADIENT
            mp2 / cc-pvtz                  for  MP2 TOTAL ENERGY, GRADIENT
             hf / cc-pvdz                  for  HF TOTAL ENERGY, GRADIENT

    Full listing of computations to be obtained (required and bonus).
             hf / cc-pvtz                  for  HF TOTAL ENERGY, GRADIENT
             hf / cc-pvdz                  for  HF TOTAL ENERGY, GRADIENT
            mp2 / cc-pvdz                  for  MP2 TOTAL ENERGY, GRADIENT
             hf / cc-pvtz                  for  HF TOTAL ENERGY, GRADIENT
            mp2 / cc-pvtz                  for  MP2 TOTAL ENERGY, GRADIENT
             hf / cc-pvdz                  for  HF TOTAL ENERGY, GRADIENT

  //>>>>>>>>>>>>>>>>>>>>>>>>>>>>>>>>>>>>>>>>>//
  // CBS Computation: HF / CC-PVTZ, GRADIENT //
  //<<<<<<<<<<<<<<<<<<<<<<<<<<<<<<<<<<<<<<<<<//

gradient() will perform analytic gradient computation.

*** tstart() called on ds1.sherrill.chemistry.gatech.edu
*** at Thu Oct 25 18:33:23 2018

   => Loading Basis Set <=

    Name: CC-PVTZ
    Role: ORBITAL
    Keyword: BASIS
    atoms 1, 4     entry O          line   262 file /theoryfs2/ds/alenaizan/Gits/psi4/objdir/stage/share/psi4/basis/cc-pvtz.gbs 
    atoms 2-3, 5-6 entry H          line    23 file /theoryfs2/ds/alenaizan/Gits/psi4/objdir/stage/share/psi4/basis/cc-pvtz.gbs 


         ---------------------------------------------------------
                                   SCF
            by Justin Turney, Rob Parrish, Andy Simmonett
                             and Daniel Smith
                              RHF Reference
                        6 Threads,    500 MiB Core
         ---------------------------------------------------------

  ==> Geometry <==

    Molecular point group: c1
    Full point group: C1

    Geometry (in Bohr), charge = 0, multiplicity = 1:

       Center              X                  Y                   Z               Mass       
    ------------   -----------------  -----------------  -----------------  -----------------
      Gh(O)          -2.763732240000    -1.243777060000    -0.154445660000    15.994914619560
      Gh(H)          -1.123577910000    -2.062279700000    -0.052437990000     1.007825032070
      Gh(H)          -3.807923620000    -2.087055250000     1.060904070000     1.007825032070
         O            2.469246140000    -1.754377390000    -0.170928840000    15.994914619560
         H            3.763682600000    -2.214254030000     1.008461040000     1.007825032070
         H            2.305983300000     0.070984450000    -0.039424730000     1.007825032070

  Running in c1 symmetry.

  Rotational constants: A =      0.67094  B =      0.23246  C =      0.17553 [cm^-1]
  Rotational constants: A =  20114.15437  B =   6968.93165  C =   5262.27541 [MHz]
  Nuclear repulsion =    9.116778471315827

  Charge       = 0
  Multiplicity = 1
  Electrons    = 10
  Nalpha       = 5
  Nbeta        = 5

  ==> Algorithm <==

  SCF Algorithm Type is DF.
  DIIS enabled.
  MOM disabled.
  Fractional occupation disabled.
  Guess Type is SAD.
  Energy threshold   = 1.00e-08
  Density threshold  = 1.00e-08
  Integral threshold = 0.00e+00

  ==> Primary Basis <==

  Basis Set: CC-PVTZ
    Blend: CC-PVTZ
    Number of shells: 44
    Number of basis function: 116
    Number of Cartesian functions: 130
    Spherical Harmonics?: true
    Max angular momentum: 3

   => Loading Basis Set <=

    Name: (CC-PVTZ AUX)
    Role: JKFIT
    Keyword: DF_BASIS_SCF
    atoms 1, 4     entry O          line   229 file /theoryfs2/ds/alenaizan/Gits/psi4/objdir/stage/share/psi4/basis/cc-pvtz-jkfit.gbs 
    atoms 2-3, 5-6 entry H          line    51 file /theoryfs2/ds/alenaizan/Gits/psi4/objdir/stage/share/psi4/basis/cc-pvtz-jkfit.gbs 

  ==> Pre-Iterations <==

   -------------------------------------------------------
    Irrep   Nso     Nmo     Nalpha   Nbeta   Ndocc  Nsocc
   -------------------------------------------------------
     A        116     116       0       0       0       0
   -------------------------------------------------------
    Total     116     116       5       5       5       0
   -------------------------------------------------------

  ==> Integral Setup <==

  DFHelper Memory: AOs need 0.030 GiB; user supplied 0.366 GiB. Using in-core AOs.

  ==> MemDFJK: Density-Fitted J/K Matrices <==

    J tasked:                   Yes
    K tasked:                   Yes
    wK tasked:                   No
    OpenMP threads:               6
    Memory [MiB]:               375
    Algorithm:                 Core
    Schwarz Cutoff:           1E-12
    Mask sparsity (%):       3.1064
    Fitting Condition:        1E-12

   => Auxiliary Basis Set <=

  Basis Set: (CC-PVTZ AUX)
    Blend: CC-PVTZ-JKFIT
    Number of shells: 90
    Number of basis function: 278
    Number of Cartesian functions: 332
    Spherical Harmonics?: true
    Max angular momentum: 4

  Minimum eigenvalue in the overlap matrix is 2.0851655533E-03.
  Using Symmetric Orthogonalization.

  SCF Guess: Superposition of Atomic Densities via on-the-fly atomic UHF.

  ==> Iterations <==

                           Total Energy        Delta E     RMS |[F,P]|

   @DF-RHF iter   0:   -75.98882405258335   -7.59888e+01   3.58386e-02 
   @DF-RHF iter   1:   -76.02404981428268   -3.52258e-02   5.50242e-03 
   @DF-RHF iter   2:   -76.04910133273566   -2.50515e-02   3.19536e-03 DIIS
   @DF-RHF iter   3:   -76.05668676578027   -7.58543e-03   5.70997e-04 DIIS
   @DF-RHF iter   4:   -76.05729814449965   -6.11379e-04   1.82821e-04 DIIS
   @DF-RHF iter   5:   -76.05741106106285   -1.12917e-04   4.65577e-05 DIIS
   @DF-RHF iter   6:   -76.05741992560378   -8.86454e-06   8.66764e-06 DIIS
   @DF-RHF iter   7:   -76.05742018958634   -2.63983e-07   1.43249e-06 DIIS
   @DF-RHF iter   8:   -76.05742019657072   -6.98438e-09   3.17338e-07 DIIS
   @DF-RHF iter   9:   -76.05742019685769   -2.86974e-10   8.28102e-08 DIIS
   @DF-RHF iter  10:   -76.05742019687847   -2.07763e-11   1.39790e-08 DIIS
   @DF-RHF iter  11:   -76.05742019687909   -6.25278e-13   3.34503e-09 DIIS
  Energy converged.


  ==> Post-Iterations <==

    Orbital Energies [Eh]
    ---------------------

    Doubly Occupied:                                                      

       1A    -20.559302     2A     -1.343236     3A     -0.710002  
       4A     -0.575981     5A     -0.505508  

    Virtual:                                                              

       6A      0.121622     7A      0.159952     8A      0.203328  
       9A      0.278153    10A      0.445747    11A      0.497731  
      12A      0.540296    13A      0.559458    14A      0.592615  
      15A      0.655942    16A      0.711466    17A      0.796531  
      18A      0.802651    19A      0.839497    20A      0.867197  
      21A      0.874701    22A      0.959478    23A      1.027966  
      24A      1.053327    25A      1.110845    26A      1.169815  
      27A      1.230009    28A      1.342818    29A      1.401915  
      30A      1.453885    31A      1.539048    32A      1.580288  
      33A      1.611219    34A      2.048382    35A      2.065392  
      36A      2.147228    37A      2.170040    38A      2.207898  
      39A      2.252126    40A      2.283160    41A      2.461653  
      42A      2.496264    43A      2.533550    44A      2.589407  
      45A      2.689618    46A      2.847989    47A      2.938832  
      48A      3.010257    49A      3.106867    50A      3.375134  
      51A      3.509095    52A      3.578471    53A      3.631661  
      54A      3.682717    55A      3.734305    56A      3.832871  
      57A      3.871544    58A      3.881658    59A      3.914660  
      60A      3.948203    61A      4.036895    62A      4.080354  
      63A      4.128531    64A      4.206595    65A      4.245919  
      66A      4.298174    67A      4.423117    68A      4.438860  
      69A      4.473240    70A      4.489212    71A      4.543486  
      72A      4.628586    73A      4.676419    74A      4.731457  
      75A      4.781906    76A      4.823902    77A      4.872194  
      78A      4.933505    79A      5.001690    80A      5.171064  
      81A      5.292057    82A      5.331171    83A      5.476024  
      84A      5.542485    85A      5.821895    86A      6.052859  
      87A      6.246686    88A      6.557879    89A      6.897189  
      90A      6.918154    91A      6.991219    92A      7.013869  
      93A      7.064955    94A      7.100579    95A      7.208438  
      96A      7.283887    97A      7.375134    98A      7.484650  
      99A      7.671659   100A      7.684488   101A      7.822127  
     102A      8.146812   103A      8.158916   104A      8.267428  
     105A      8.743950   106A      9.422884   107A      9.569716  
     108A      9.624789   109A      9.774249   110A     10.791711  
     111A     11.122166   112A     11.300060   113A     12.577690  
     114A     12.942370   115A     13.042764   116A     58.393801  

    Final Occupation by Irrep:
              A 
    DOCC [     5 ]

  @DF-RHF Final Energy:   -76.05742019687909

   => Energetics <=

    Nuclear Repulsion Energy =              9.1167784713158273
    One-Electron Energy =                -122.9603393359468129
    Two-Electron Energy =                  37.7861406677518872
    Total Energy =                        -76.0574201968790931

Computation Completed


Properties will be evaluated at   0.000000,   0.000000,   0.000000 [a0]

Properties computed using the SCF density matrix

  Nuclear Dipole Moment: [e a0]
     X:    25.8236      Y:   -16.1783      Z:    -0.3984

  Electronic Dipole Moment: [e a0]
     X:   -25.3991      Y:    16.6682      Z:     0.8657

  Dipole Moment: [e a0]
     X:     0.4246      Y:     0.4899      Z:     0.4673     Total:     0.7991

  Dipole Moment: [D]
     X:     1.0791      Y:     1.2451      Z:     1.1878     Total:     2.0312


*** tstop() called on ds1.sherrill.chemistry.gatech.edu at Thu Oct 25 18:33:24 2018
Module time:
	user time   =       4.69 seconds =       0.08 minutes
	system time =       0.12 seconds =       0.00 minutes
	total time  =          1 seconds =       0.02 minutes
Total time:
	user time   =       4.69 seconds =       0.08 minutes
	system time =       0.12 seconds =       0.00 minutes
	total time  =          1 seconds =       0.02 minutes

*** tstart() called on ds1.sherrill.chemistry.gatech.edu
*** at Thu Oct 25 18:33:24 2018


         ------------------------------------------------------------
                                   SCF GRAD                          
                          Rob Parrish, Justin Turney,                
                       Andy Simmonett, and Alex Sokolov              
         ------------------------------------------------------------

  ==> Geometry <==

    Molecular point group: c1
    Full point group: C1

    Geometry (in Bohr), charge = 0, multiplicity = 1:

       Center              X                  Y                   Z               Mass       
    ------------   -----------------  -----------------  -----------------  -----------------
      Gh(O)          -2.763732240000    -1.243777060000    -0.154445660000    15.994914619560
      Gh(H)          -1.123577910000    -2.062279700000    -0.052437990000     1.007825032070
      Gh(H)          -3.807923620000    -2.087055250000     1.060904070000     1.007825032070
         O            2.469246140000    -1.754377390000    -0.170928840000    15.994914619560
         H            3.763682600000    -2.214254030000     1.008461040000     1.007825032070
         H            2.305983300000     0.070984450000    -0.039424730000     1.007825032070

  Nuclear repulsion =    9.116778471315827

  ==> Basis Set <==

  Basis Set: CC-PVTZ
    Blend: CC-PVTZ
    Number of shells: 44
    Number of basis function: 116
    Number of Cartesian functions: 130
    Spherical Harmonics?: true
    Max angular momentum: 3

  ==> DFJKGrad: Density-Fitted SCF Gradients <==

    Gradient:                    1
    J tasked:                  Yes
    K tasked:                  Yes
    wK tasked:                  No
    OpenMP threads:              6
    Integrals threads:           6
    Memory [MiB]:              375
    Schwarz Cutoff:          0E+00
    Fitting Condition:       1E-12

   => Auxiliary Basis Set <=

  Basis Set: (CC-PVTZ AUX)
    Blend: CC-PVTZ-JKFIT
    Number of shells: 90
    Number of basis function: 278
    Number of Cartesian functions: 332
    Spherical Harmonics?: true
    Max angular momentum: 4


  -Total Gradient:
     Atom            X                  Y                   Z
    ------   -----------------  -----------------  -----------------
       1       -0.000042210513     0.000054734440    -0.000027328490
       2       -0.000256712505    -0.000036177780    -0.000116494474
       3       -0.000027193025    -0.000008570751     0.000023338473
       4       -0.009918727749    -0.027604859427    -0.013747237248
       5        0.013676661469    -0.005405436454     0.011980001905
       6       -0.003431817676     0.033000309971     0.001887719833


*** tstop() called on ds1.sherrill.chemistry.gatech.edu at Thu Oct 25 18:33:25 2018
Module time:
	user time   =       4.36 seconds =       0.07 minutes
	system time =       0.21 seconds =       0.00 minutes
	total time  =          1 seconds =       0.02 minutes
Total time:
	user time   =       9.05 seconds =       0.15 minutes
	system time =       0.33 seconds =       0.01 minutes
	total time  =          2 seconds =       0.03 minutes

  //>>>>>>>>>>>>>>>>>>>>>>>>>>>>>>>>>>>>>>>>>>//
  // CBS Computation: MP2 / CC-PVDZ, GRADIENT //
  //<<<<<<<<<<<<<<<<<<<<<<<<<<<<<<<<<<<<<<<<<<//

gradient() will perform analytic gradient computation.

*** tstart() called on ds1.sherrill.chemistry.gatech.edu
*** at Thu Oct 25 18:33:25 2018

    SCF Algorithm Type (re)set to DF.

*** tstart() called on ds1.sherrill.chemistry.gatech.edu
*** at Thu Oct 25 18:33:25 2018

   => Loading Basis Set <=

    Name: CC-PVDZ
    Role: ORBITAL
    Keyword: BASIS
    atoms 1, 4     entry O          line   198 file /theoryfs2/ds/alenaizan/Gits/psi4/objdir/stage/share/psi4/basis/cc-pvdz.gbs 
    atoms 2-3, 5-6 entry H          line    22 file /theoryfs2/ds/alenaizan/Gits/psi4/objdir/stage/share/psi4/basis/cc-pvdz.gbs 


         ---------------------------------------------------------
                                   SCF
            by Justin Turney, Rob Parrish, Andy Simmonett
                             and Daniel Smith
                              RHF Reference
                        6 Threads,    500 MiB Core
         ---------------------------------------------------------

  ==> Geometry <==

    Molecular point group: c1
    Full point group: C1

    Geometry (in Bohr), charge = 0, multiplicity = 1:

       Center              X                  Y                   Z               Mass       
    ------------   -----------------  -----------------  -----------------  -----------------
      Gh(O)          -2.763732240000    -1.243777060000    -0.154445660000    15.994914619560
      Gh(H)          -1.123577910000    -2.062279700000    -0.052437990000     1.007825032070
      Gh(H)          -3.807923620000    -2.087055250000     1.060904070000     1.007825032070
         O            2.469246140000    -1.754377390000    -0.170928840000    15.994914619560
         H            3.763682600000    -2.214254030000     1.008461040000     1.007825032070
         H            2.305983300000     0.070984450000    -0.039424730000     1.007825032070

  Running in c1 symmetry.

  Rotational constants: A =      0.67094  B =      0.23246  C =      0.17553 [cm^-1]
  Rotational constants: A =  20114.15437  B =   6968.93165  C =   5262.27541 [MHz]
  Nuclear repulsion =    9.116778471315827

  Charge       = 0
  Multiplicity = 1
  Electrons    = 10
  Nalpha       = 5
  Nbeta        = 5

  ==> Algorithm <==

  SCF Algorithm Type is DF.
  DIIS enabled.
  MOM disabled.
  Fractional occupation disabled.
  Guess Type is SAD.
  Energy threshold   = 1.00e-10
  Density threshold  = 1.00e-10
  Integral threshold = 0.00e+00

  ==> Primary Basis <==

  Basis Set: CC-PVDZ
    Blend: CC-PVDZ
    Number of shells: 24
    Number of basis function: 48
    Number of Cartesian functions: 50
    Spherical Harmonics?: true
    Max angular momentum: 2

   => Loading Basis Set <=

    Name: (CC-PVDZ AUX)
    Role: JKFIT
    Keyword: DF_BASIS_SCF
    atoms 1, 4     entry O          line   221 file /theoryfs2/ds/alenaizan/Gits/psi4/objdir/stage/share/psi4/basis/cc-pvdz-jkfit.gbs 
    atoms 2-3, 5-6 entry H          line    51 file /theoryfs2/ds/alenaizan/Gits/psi4/objdir/stage/share/psi4/basis/cc-pvdz-jkfit.gbs 

  ==> Pre-Iterations <==

   -------------------------------------------------------
    Irrep   Nso     Nmo     Nalpha   Nbeta   Ndocc  Nsocc
   -------------------------------------------------------
     A         48      48       0       0       0       0
   -------------------------------------------------------
    Total      48      48       5       5       5       0
   -------------------------------------------------------

  ==> Integral Setup <==

  DFHelper Memory: AOs need 0.004 GiB; user supplied 0.366 GiB. Using in-core AOs.

  ==> MemDFJK: Density-Fitted J/K Matrices <==

    J tasked:                   Yes
    K tasked:                   Yes
    wK tasked:                   No
    OpenMP threads:               6
    Memory [MiB]:               375
    Algorithm:                 Core
    Schwarz Cutoff:           1E-12
    Mask sparsity (%):       0.0000
    Fitting Condition:        1E-12

   => Auxiliary Basis Set <=

  Basis Set: (CC-PVDZ AUX)
    Blend: CC-PVDZ-JKFIT
    Number of shells: 84
    Number of basis function: 232
    Number of Cartesian functions: 262
    Spherical Harmonics?: true
    Max angular momentum: 3

  Minimum eigenvalue in the overlap matrix is 3.1431949323E-02.
  Using Symmetric Orthogonalization.

  SCF Guess: Superposition of Atomic Densities via on-the-fly atomic UHF.

  ==> Iterations <==

                           Total Energy        Delta E     RMS |[F,P]|

   @DF-RHF iter   0:   -75.96868391076117   -7.59687e+01   8.46005e-02 
   @DF-RHF iter   1:   -75.99647132386519   -2.77874e-02   8.80962e-03 
   @DF-RHF iter   2:   -76.02163522640053   -2.51639e-02   6.88204e-03 DIIS
   @DF-RHF iter   3:   -76.02824934218626   -6.61412e-03   1.24651e-03 DIIS
   @DF-RHF iter   4:   -76.02883132816427   -5.81986e-04   3.40926e-04 DIIS
   @DF-RHF iter   5:   -76.02892166016478   -9.03320e-05   9.30312e-05 DIIS
   @DF-RHF iter   6:   -76.02892883852151   -7.17836e-06   1.52897e-05 DIIS
   @DF-RHF iter   7:   -76.02892906393929   -2.25418e-07   2.81414e-06 DIIS
   @DF-RHF iter   8:   -76.02892906883582   -4.89653e-09   5.47724e-07 DIIS
   @DF-RHF iter   9:   -76.02892906904148   -2.05659e-10   1.07555e-07 DIIS
   @DF-RHF iter  10:   -76.02892906905100   -9.52127e-12   2.02073e-08 DIIS
   @DF-RHF iter  11:   -76.02892906905134   -3.41061e-13   3.71837e-09 DIIS
   @DF-RHF iter  12:   -76.02892906905133    1.42109e-14   6.31568e-10 DIIS
   @DF-RHF iter  13:   -76.02892906905149   -1.56319e-13   1.97430e-10 DIIS
   @DF-RHF iter  14:   -76.02892906905137    1.13687e-13   3.45746e-11 DIIS
  Energy converged.


  ==> Post-Iterations <==

    Orbital Energies [Eh]
    ---------------------

    Doubly Occupied:                                                      

       1A    -20.558404     2A     -1.337093     3A     -0.702455  
       4A     -0.567201     5A     -0.496861  

    Virtual:                                                              

       6A      0.154961     7A      0.198028     8A      0.253553  
       9A      0.338274    10A      0.608514    11A      0.685858  
      12A      0.760445    13A      0.787629    14A      0.849468  
      15A      0.906539    16A      1.174244    17A      1.247397  
      18A      1.285302    19A      1.443031    20A      1.467436  
      21A      1.596219    22A      1.698456    23A      1.795654  
      24A      1.874510    25A      1.947152    26A      2.024698  
      27A      2.030780    28A      2.180554    29A      2.434022  
      30A      2.437721    31A      2.472631    32A      2.648749  
      33A      2.786621    34A      3.126275    35A      3.271849  
      36A      3.348709    37A      3.501348    38A      3.872102  
      39A      4.154975    40A      4.454179    41A      4.545837  
      42A      4.677979    43A      4.855931    44A      4.993323  
      45A      5.306511    46A      6.493696    47A      7.012721  
      48A     33.505926  

    Final Occupation by Irrep:
              A 
    DOCC [     5 ]

  @DF-RHF Final Energy:   -76.02892906905137

   => Energetics <=

    Nuclear Repulsion Energy =              9.1167784713158273
    One-Electron Energy =                -122.9673885247859602
    Two-Electron Energy =                  37.8216809844187551
    Total Energy =                        -76.0289290690513724

Computation Completed


Properties will be evaluated at   0.000000,   0.000000,   0.000000 [a0]

Properties computed using the SCF density matrix

  Nuclear Dipole Moment: [e a0]
     X:    25.8236      Y:   -16.1783      Z:    -0.3984

  Electronic Dipole Moment: [e a0]
     X:   -25.3610      Y:    16.6809      Z:     0.8762

  Dipole Moment: [e a0]
     X:     0.4626      Y:     0.5026      Z:     0.4778     Total:     0.8336

  Dipole Moment: [D]
     X:     1.1759      Y:     1.2774      Z:     1.2144     Total:     2.1188


*** tstop() called on ds1.sherrill.chemistry.gatech.edu at Thu Oct 25 18:33:26 2018
Module time:
	user time   =       4.49 seconds =       0.07 minutes
	system time =       0.12 seconds =       0.00 minutes
	total time  =          1 seconds =       0.02 minutes
Total time:
	user time   =      13.57 seconds =       0.23 minutes
	system time =       0.45 seconds =       0.01 minutes
	total time  =          3 seconds =       0.05 minutes

  //>>>>>>>>>>>>>>>>>>>>>>>>>>>>>>>>>>>//
  //               DFMP2               //
  //<<<<<<<<<<<<<<<<<<<<<<<<<<<<<<<<<<<//

   => Loading Basis Set <=

    Name: (CC-PVDZ AUX)
    Role: RIFIT
    Keyword: DF_BASIS_MP2
    atoms 1, 4     entry O          line   235 file /theoryfs2/ds/alenaizan/Gits/psi4/objdir/stage/share/psi4/basis/cc-pvdz-ri.gbs 
    atoms 2-3, 5-6 entry H          line    19 file /theoryfs2/ds/alenaizan/Gits/psi4/objdir/stage/share/psi4/basis/cc-pvdz-ri.gbs 

	 --------------------------------------------------------
	                          DF-MP2                         
	      2nd-Order Density-Fitted Moller-Plesset Theory     
	              RMP2 Wavefunction,   6 Threads             
	                                                         
	        Rob Parrish, Justin Turney, Andy Simmonett,      
	           Ed Hohenstein, and C. David Sherrill          
	 --------------------------------------------------------

   => Auxiliary Basis Set <=

  Basis Set: (CC-PVDZ AUX)
    Blend: CC-PVDZ-RI
    Number of shells: 60
    Number of basis function: 168
    Number of Cartesian functions: 192
    Spherical Harmonics?: true
    Max angular momentum: 3

	 --------------------------------------------------------
	                 NBF =    48, NAUX =   168
	 --------------------------------------------------------
	   CLASS    FOCC     OCC    AOCC    AVIR     VIR    FVIR
	   PAIRS       0       5       5      43      43       0
	 --------------------------------------------------------

  DFHelper Memory: AOs need 0.004 GiB; user supplied 0.366 GiB. Using in-core AOs.


         ------------------------------------------------------------
                                     CPHF                           
                                  Rob Parrish                       
         ------------------------------------------------------------

  ==> Geometry <==

    Molecular point group: c1
    Full point group: C1

    Geometry (in Bohr), charge = 0, multiplicity = 1:

       Center              X                  Y                   Z               Mass       
    ------------   -----------------  -----------------  -----------------  -----------------
      Gh(O)          -2.763732240000    -1.243777060000    -0.154445660000    15.994914619560
      Gh(H)          -1.123577910000    -2.062279700000    -0.052437990000     1.007825032070
      Gh(H)          -3.807923620000    -2.087055250000     1.060904070000     1.007825032070
         O            2.469246140000    -1.754377390000    -0.170928840000    15.994914619560
         H            3.763682600000    -2.214254030000     1.008461040000     1.007825032070
         H            2.305983300000     0.070984450000    -0.039424730000     1.007825032070

  Nuclear repulsion =    9.116778471315827
  Reference energy  =  -76.028929069051372

  ==> Basis Set <==

  Basis Set: CC-PVDZ
    Blend: CC-PVDZ
    Number of shells: 24
    Number of basis function: 48
    Number of Cartesian functions: 50
    Spherical Harmonics?: true
    Max angular momentum: 2

  ==> CGRSolver (by Rob Parrish) <==

   Number of roots    =         1
   Preconditioning    =    JACOBI
   Convergence cutoff =     1E-06
   Maximum iterations =       100

  ==> CPHFRHamiltonian (by Rob Parrish) <== 

  ==> MemDFJK: Density-Fitted J/K Matrices <==

    J tasked:                   Yes
    K tasked:                   Yes
    wK tasked:                   No
    OpenMP threads:               6
    Memory [MiB]:               375
    Algorithm:                 Core
    Schwarz Cutoff:           1E-12
    Mask sparsity (%):       0.0000
    Fitting Condition:        1E-12

   => Auxiliary Basis Set <=

  Basis Set: (CC-PVDZ AUX)
    Blend: CC-PVDZ-JKFIT
    Number of shells: 84
    Number of basis function: 232
    Number of Cartesian functions: 262
    Spherical Harmonics?: true
    Max angular momentum: 3

  ==> CPHF Iterations <==

  => Iterations <=

             Iter  Converged  Remaining    Residual
  CGR           1          0          1   4.612E-02
  CGR           2          0          1   1.489E-02
  CGR           3          0          1   1.767E-03
  CGR           4          0          1   3.252E-04
  CGR           5          0          1   9.674E-05
  CGR           6          0          1   1.585E-05
  CGR           7          0          1   2.655E-06
  CGR           8          1          0   8.335E-07

    CGRSolver converged.

  ==> DFCorrGrad: Density-Fitted Correlated Gradients <==

    OpenMP threads:              6
    Integrals threads:           6
    Memory [GiB]:            0.366
    Schwarz Cutoff:          0E+00
    Fitting Condition:       1E-12

   => Auxiliary Basis Set <=

  Basis Set: (CC-PVDZ AUX)
    Blend: CC-PVDZ-JKFIT
    Number of shells: 84
    Number of basis function: 232
    Number of Cartesian functions: 262
    Spherical Harmonics?: true
    Max angular momentum: 3

	-----------------------------------------------------------
	 ==================> DF-MP2 Energies <==================== 
	-----------------------------------------------------------
	 Reference Energy          =     -76.0289290690513724 [Eh]
	 Singles Energy            =      -0.0000000000000000 [Eh]
	 Same-Spin Energy          =      -0.0521883651080676 [Eh]
	 Opposite-Spin Energy      =      -0.1540245333611947 [Eh]
	 Correlation Energy        =      -0.2062128984692623 [Eh]
	 Total Energy              =     -76.2351419675206330 [Eh]
	-----------------------------------------------------------
	 ================> DF-SCS-MP2 Energies <================== 
	-----------------------------------------------------------
	 SCS Same-Spin Scale       =       0.3333333333333333 [-]
	 SCS Opposite-Spin Scale   =       1.2000000000000000 [-]
	 SCS Same-Spin Energy      =      -0.0173961217026892 [Eh]
	 SCS Opposite-Spin Energy  =      -0.1848294400334336 [Eh]
	 SCS Correlation Energy    =      -0.2022255617361228 [Eh]
	 SCS Total Energy          =     -76.2311546307875005 [Eh]
	-----------------------------------------------------------


  -Total Gradient:
     Atom            X                  Y                   Z
    ------   -----------------  -----------------  -----------------
       1       -0.000183922844     0.000309344505    -0.000059964546
       2       -0.002140302155    -0.000661053714    -0.000529036209
       3       -0.000174275941     0.000020581929     0.000089292613
       4        0.010318253357    -0.005288558409     0.009394587096
       5       -0.003493861639    -0.003688054410    -0.005671297503
       6       -0.004325890778     0.009307740100    -0.003223581451


*** tstop() called on ds1.sherrill.chemistry.gatech.edu at Thu Oct 25 18:33:27 2018
Module time:
	user time   =      10.34 seconds =       0.17 minutes
	system time =       0.30 seconds =       0.01 minutes
	total time  =          2 seconds =       0.03 minutes
Total time:
	user time   =      19.42 seconds =       0.32 minutes
	system time =       0.63 seconds =       0.01 minutes
	total time  =          4 seconds =       0.07 minutes

  //>>>>>>>>>>>>>>>>>>>>>>>>>>>>>>>>>>>>>>>>>>//
  // CBS Computation: MP2 / CC-PVTZ, GRADIENT //
  //<<<<<<<<<<<<<<<<<<<<<<<<<<<<<<<<<<<<<<<<<<//

gradient() will perform analytic gradient computation.

*** tstart() called on ds1.sherrill.chemistry.gatech.edu
*** at Thu Oct 25 18:33:27 2018

    SCF Algorithm Type (re)set to DF.

*** tstart() called on ds1.sherrill.chemistry.gatech.edu
*** at Thu Oct 25 18:33:27 2018

   => Loading Basis Set <=

    Name: CC-PVTZ
    Role: ORBITAL
    Keyword: BASIS
    atoms 1, 4     entry O          line   262 file /theoryfs2/ds/alenaizan/Gits/psi4/objdir/stage/share/psi4/basis/cc-pvtz.gbs 
    atoms 2-3, 5-6 entry H          line    23 file /theoryfs2/ds/alenaizan/Gits/psi4/objdir/stage/share/psi4/basis/cc-pvtz.gbs 


         ---------------------------------------------------------
                                   SCF
            by Justin Turney, Rob Parrish, Andy Simmonett
                             and Daniel Smith
                              RHF Reference
                        6 Threads,    500 MiB Core
         ---------------------------------------------------------

  ==> Geometry <==

    Molecular point group: c1
    Full point group: C1

    Geometry (in Bohr), charge = 0, multiplicity = 1:

       Center              X                  Y                   Z               Mass       
    ------------   -----------------  -----------------  -----------------  -----------------
      Gh(O)          -2.763732240000    -1.243777060000    -0.154445660000    15.994914619560
      Gh(H)          -1.123577910000    -2.062279700000    -0.052437990000     1.007825032070
      Gh(H)          -3.807923620000    -2.087055250000     1.060904070000     1.007825032070
         O            2.469246140000    -1.754377390000    -0.170928840000    15.994914619560
         H            3.763682600000    -2.214254030000     1.008461040000     1.007825032070
         H            2.305983300000     0.070984450000    -0.039424730000     1.007825032070

  Running in c1 symmetry.

  Rotational constants: A =      0.67094  B =      0.23246  C =      0.17553 [cm^-1]
  Rotational constants: A =  20114.15437  B =   6968.93165  C =   5262.27541 [MHz]
  Nuclear repulsion =    9.116778471315827

  Charge       = 0
  Multiplicity = 1
  Electrons    = 10
  Nalpha       = 5
  Nbeta        = 5

  ==> Algorithm <==

  SCF Algorithm Type is DF.
  DIIS enabled.
  MOM disabled.
  Fractional occupation disabled.
  Guess Type is SAD.
  Energy threshold   = 1.00e-10
  Density threshold  = 1.00e-10
  Integral threshold = 0.00e+00

  ==> Primary Basis <==

  Basis Set: CC-PVTZ
    Blend: CC-PVTZ
    Number of shells: 44
    Number of basis function: 116
    Number of Cartesian functions: 130
    Spherical Harmonics?: true
    Max angular momentum: 3

   => Loading Basis Set <=

    Name: (CC-PVTZ AUX)
    Role: JKFIT
    Keyword: DF_BASIS_SCF
    atoms 1, 4     entry O          line   229 file /theoryfs2/ds/alenaizan/Gits/psi4/objdir/stage/share/psi4/basis/cc-pvtz-jkfit.gbs 
    atoms 2-3, 5-6 entry H          line    51 file /theoryfs2/ds/alenaizan/Gits/psi4/objdir/stage/share/psi4/basis/cc-pvtz-jkfit.gbs 

  ==> Pre-Iterations <==

   -------------------------------------------------------
    Irrep   Nso     Nmo     Nalpha   Nbeta   Ndocc  Nsocc
   -------------------------------------------------------
     A        116     116       0       0       0       0
   -------------------------------------------------------
    Total     116     116       5       5       5       0
   -------------------------------------------------------

  ==> Integral Setup <==

  DFHelper Memory: AOs need 0.030 GiB; user supplied 0.366 GiB. Using in-core AOs.

  ==> MemDFJK: Density-Fitted J/K Matrices <==

    J tasked:                   Yes
    K tasked:                   Yes
    wK tasked:                   No
    OpenMP threads:               6
    Memory [MiB]:               375
    Algorithm:                 Core
    Schwarz Cutoff:           1E-12
    Mask sparsity (%):       3.1064
    Fitting Condition:        1E-12

   => Auxiliary Basis Set <=

  Basis Set: (CC-PVTZ AUX)
    Blend: CC-PVTZ-JKFIT
    Number of shells: 90
    Number of basis function: 278
    Number of Cartesian functions: 332
    Spherical Harmonics?: true
    Max angular momentum: 4

  Minimum eigenvalue in the overlap matrix is 2.0851655533E-03.
  Using Symmetric Orthogonalization.

  SCF Guess: Superposition of Atomic Densities via on-the-fly atomic UHF.

  ==> Iterations <==

                           Total Energy        Delta E     RMS |[F,P]|

   @DF-RHF iter   0:   -75.98882405258333   -7.59888e+01   3.58386e-02 
   @DF-RHF iter   1:   -76.02404981428265   -3.52258e-02   5.26817e-03 
   @DF-RHF iter   2:   -76.04910133273560   -2.50515e-02   3.19536e-03 DIIS
   @DF-RHF iter   3:   -76.05668676578028   -7.58543e-03   5.70997e-04 DIIS
   @DF-RHF iter   4:   -76.05729814449973   -6.11379e-04   1.78415e-04 DIIS
   @DF-RHF iter   5:   -76.05741106106278   -1.12917e-04   4.65577e-05 DIIS
   @DF-RHF iter   6:   -76.05741992560378   -8.86454e-06   8.66764e-06 DIIS
   @DF-RHF iter   7:   -76.05742018958649   -2.63983e-07   1.43249e-06 DIIS
   @DF-RHF iter   8:   -76.05742019657060   -6.98411e-09   3.09303e-07 DIIS
   @DF-RHF iter   9:   -76.05742019685763   -2.87031e-10   8.28102e-08 DIIS
   @DF-RHF iter  10:   -76.05742019687843   -2.07905e-11   1.43422e-08 DIIS
   @DF-RHF iter  11:   -76.05742019687906   -6.39488e-13   3.34503e-09 DIIS
   @DF-RHF iter  12:   -76.05742019687918   -1.13687e-13   7.78052e-10 DIIS
   @DF-RHF iter  13:   -76.05742019687906    1.13687e-13   1.69004e-10 DIIS
   @DF-RHF iter  14:   -76.05742019687912   -5.68434e-14   5.07548e-11 DIIS
  Energy converged.


  ==> Post-Iterations <==

    Orbital Energies [Eh]
    ---------------------

    Doubly Occupied:                                                      

       1A    -20.559302     2A     -1.343236     3A     -0.710002  
       4A     -0.575981     5A     -0.505508  

    Virtual:                                                              

       6A      0.121622     7A      0.159952     8A      0.203328  
       9A      0.278153    10A      0.445747    11A      0.497731  
      12A      0.540296    13A      0.559458    14A      0.592615  
      15A      0.655942    16A      0.711466    17A      0.796531  
      18A      0.802651    19A      0.839497    20A      0.867197  
      21A      0.874701    22A      0.959478    23A      1.027966  
      24A      1.053327    25A      1.110845    26A      1.169815  
      27A      1.230009    28A      1.342818    29A      1.401915  
      30A      1.453885    31A      1.539048    32A      1.580288  
      33A      1.611219    34A      2.048382    35A      2.065392  
      36A      2.147228    37A      2.170040    38A      2.207898  
      39A      2.252126    40A      2.283160    41A      2.461653  
      42A      2.496264    43A      2.533550    44A      2.589407  
      45A      2.689618    46A      2.847989    47A      2.938832  
      48A      3.010257    49A      3.106867    50A      3.375134  
      51A      3.509095    52A      3.578471    53A      3.631661  
      54A      3.682717    55A      3.734305    56A      3.832871  
      57A      3.871544    58A      3.881658    59A      3.914660  
      60A      3.948203    61A      4.036895    62A      4.080354  
      63A      4.128531    64A      4.206595    65A      4.245919  
      66A      4.298174    67A      4.423117    68A      4.438860  
      69A      4.473240    70A      4.489212    71A      4.543486  
      72A      4.628586    73A      4.676419    74A      4.731457  
      75A      4.781906    76A      4.823902    77A      4.872194  
      78A      4.933505    79A      5.001690    80A      5.171064  
      81A      5.292057    82A      5.331171    83A      5.476024  
      84A      5.542485    85A      5.821895    86A      6.052859  
      87A      6.246686    88A      6.557879    89A      6.897189  
      90A      6.918154    91A      6.991219    92A      7.013869  
      93A      7.064955    94A      7.100579    95A      7.208438  
      96A      7.283887    97A      7.375134    98A      7.484650  
      99A      7.671659   100A      7.684488   101A      7.822127  
     102A      8.146812   103A      8.158916   104A      8.267428  
     105A      8.743950   106A      9.422884   107A      9.569716  
     108A      9.624789   109A      9.774249   110A     10.791711  
     111A     11.122166   112A     11.300060   113A     12.577690  
     114A     12.942370   115A     13.042764   116A     58.393801  

    Final Occupation by Irrep:
              A 
    DOCC [     5 ]

  @DF-RHF Final Energy:   -76.05742019687912

   => Energetics <=

    Nuclear Repulsion Energy =              9.1167784713158273
    One-Electron Energy =                -122.9603392612677055
    Two-Electron Energy =                  37.7861405930727514
    Total Energy =                        -76.0574201968791215

Computation Completed


Properties will be evaluated at   0.000000,   0.000000,   0.000000 [a0]

Properties computed using the SCF density matrix

  Nuclear Dipole Moment: [e a0]
     X:    25.8236      Y:   -16.1783      Z:    -0.3984

  Electronic Dipole Moment: [e a0]
     X:   -25.3991      Y:    16.6682      Z:     0.8657

  Dipole Moment: [e a0]
     X:     0.4246      Y:     0.4899      Z:     0.4673     Total:     0.7991

  Dipole Moment: [D]
     X:     1.0791      Y:     1.2451      Z:     1.1878     Total:     2.0312


*** tstop() called on ds1.sherrill.chemistry.gatech.edu at Thu Oct 25 18:33:28 2018
Module time:
	user time   =       5.54 seconds =       0.09 minutes
	system time =       0.14 seconds =       0.00 minutes
	total time  =          1 seconds =       0.02 minutes
Total time:
	user time   =      24.99 seconds =       0.42 minutes
	system time =       0.77 seconds =       0.01 minutes
	total time  =          5 seconds =       0.08 minutes

  //>>>>>>>>>>>>>>>>>>>>>>>>>>>>>>>>>>>//
  //               DFMP2               //
  //<<<<<<<<<<<<<<<<<<<<<<<<<<<<<<<<<<<//

   => Loading Basis Set <=

    Name: (CC-PVTZ AUX)
    Role: RIFIT
    Keyword: DF_BASIS_MP2
    atoms 1, 4     entry O          line   305 file /theoryfs2/ds/alenaizan/Gits/psi4/objdir/stage/share/psi4/basis/cc-pvtz-ri.gbs 
    atoms 2-3, 5-6 entry H          line    19 file /theoryfs2/ds/alenaizan/Gits/psi4/objdir/stage/share/psi4/basis/cc-pvtz-ri.gbs 

	 --------------------------------------------------------
	                          DF-MP2                         
	      2nd-Order Density-Fitted Moller-Plesset Theory     
	              RMP2 Wavefunction,   6 Threads             
	                                                         
	        Rob Parrish, Justin Turney, Andy Simmonett,      
	           Ed Hohenstein, and C. David Sherrill          
	 --------------------------------------------------------

   => Auxiliary Basis Set <=

  Basis Set: (CC-PVTZ AUX)
    Blend: CC-PVTZ-RI
    Number of shells: 86
    Number of basis function: 282
    Number of Cartesian functions: 342
    Spherical Harmonics?: true
    Max angular momentum: 4

	 --------------------------------------------------------
	                 NBF =   116, NAUX =   282
	 --------------------------------------------------------
	   CLASS    FOCC     OCC    AOCC    AVIR     VIR    FVIR
	   PAIRS       0       5       5     111     111       0
	 --------------------------------------------------------

  DFHelper Memory: AOs need 0.030 GiB; user supplied 0.366 GiB. Using in-core AOs.


         ------------------------------------------------------------
                                     CPHF                           
                                  Rob Parrish                       
         ------------------------------------------------------------

  ==> Geometry <==

    Molecular point group: c1
    Full point group: C1

    Geometry (in Bohr), charge = 0, multiplicity = 1:

       Center              X                  Y                   Z               Mass       
    ------------   -----------------  -----------------  -----------------  -----------------
      Gh(O)          -2.763732240000    -1.243777060000    -0.154445660000    15.994914619560
      Gh(H)          -1.123577910000    -2.062279700000    -0.052437990000     1.007825032070
      Gh(H)          -3.807923620000    -2.087055250000     1.060904070000     1.007825032070
         O            2.469246140000    -1.754377390000    -0.170928840000    15.994914619560
         H            3.763682600000    -2.214254030000     1.008461040000     1.007825032070
         H            2.305983300000     0.070984450000    -0.039424730000     1.007825032070

  Nuclear repulsion =    9.116778471315827
  Reference energy  =  -76.057420196879121

  ==> Basis Set <==

  Basis Set: CC-PVTZ
    Blend: CC-PVTZ
    Number of shells: 44
    Number of basis function: 116
    Number of Cartesian functions: 130
    Spherical Harmonics?: true
    Max angular momentum: 3

  ==> CGRSolver (by Rob Parrish) <==

   Number of roots    =         1
   Preconditioning    =    JACOBI
   Convergence cutoff =     1E-06
   Maximum iterations =       100

  ==> CPHFRHamiltonian (by Rob Parrish) <== 

  ==> MemDFJK: Density-Fitted J/K Matrices <==

    J tasked:                   Yes
    K tasked:                   Yes
    wK tasked:                   No
    OpenMP threads:               6
    Memory [MiB]:               375
    Algorithm:                 Core
    Schwarz Cutoff:           1E-12
    Mask sparsity (%):       3.1064
    Fitting Condition:        1E-12

   => Auxiliary Basis Set <=

  Basis Set: (CC-PVTZ AUX)
    Blend: CC-PVTZ-JKFIT
    Number of shells: 90
    Number of basis function: 278
    Number of Cartesian functions: 332
    Spherical Harmonics?: true
    Max angular momentum: 4

  ==> CPHF Iterations <==

  => Iterations <=

             Iter  Converged  Remaining    Residual
  CGR           1          0          1   6.298E-02
  CGR           2          0          1   1.687E-02
  CGR           3          0          1   2.382E-03
  CGR           4          0          1   4.411E-04
  CGR           5          0          1   6.349E-05
  CGR           6          0          1   1.422E-05
  CGR           7          0          1   2.831E-06
  CGR           8          1          0   6.049E-07

    CGRSolver converged.

  ==> DFCorrGrad: Density-Fitted Correlated Gradients <==

    OpenMP threads:              6
    Integrals threads:           6
    Memory [GiB]:            0.366
    Schwarz Cutoff:          0E+00
    Fitting Condition:       1E-12

   => Auxiliary Basis Set <=

  Basis Set: (CC-PVTZ AUX)
    Blend: CC-PVTZ-JKFIT
    Number of shells: 90
    Number of basis function: 278
    Number of Cartesian functions: 332
    Spherical Harmonics?: true
    Max angular momentum: 4

	-----------------------------------------------------------
	 ==================> DF-MP2 Energies <==================== 
	-----------------------------------------------------------
	 Reference Energy          =     -76.0574201968791215 [Eh]
	 Singles Energy            =      -0.0000000000000000 [Eh]
	 Same-Spin Energy          =      -0.0669865227526117 [Eh]
	 Opposite-Spin Energy      =      -0.2096248037567789 [Eh]
	 Correlation Energy        =      -0.2766113265093906 [Eh]
	 Total Energy              =     -76.3340315233885178 [Eh]
	-----------------------------------------------------------
	 ================> DF-SCS-MP2 Energies <================== 
	-----------------------------------------------------------
	 SCS Same-Spin Scale       =       0.3333333333333333 [-]
	 SCS Opposite-Spin Scale   =       1.2000000000000000 [-]
	 SCS Same-Spin Energy      =      -0.0223288409175372 [Eh]
	 SCS Opposite-Spin Energy  =      -0.2515497645081346 [Eh]
	 SCS Correlation Energy    =      -0.2738786054256718 [Eh]
	 SCS Total Energy          =     -76.3312988023047865 [Eh]
	-----------------------------------------------------------


  -Total Gradient:
     Atom            X                  Y                   Z
    ------   -----------------  -----------------  -----------------
       1       -0.000133264630     0.000152341970    -0.000058496304
       2       -0.000860823951    -0.000257393088    -0.000227308794
       3       -0.000077244546    -0.000009074558     0.000066431481
       4        0.003907559063    -0.011720948984     0.002009686390
       5        0.000663692842    -0.003240344032    -0.000600215052
       6       -0.003499918776     0.015075418690    -0.001190097720


*** tstop() called on ds1.sherrill.chemistry.gatech.edu at Thu Oct 25 18:33:29 2018
Module time:
	user time   =      15.66 seconds =       0.26 minutes
	system time =       0.43 seconds =       0.01 minutes
	total time  =          2 seconds =       0.03 minutes
Total time:
	user time   =      35.11 seconds =       0.59 minutes
	system time =       1.06 seconds =       0.02 minutes
	total time  =          6 seconds =       0.10 minutes

  //>>>>>>>>>>>>>>>>>>>>>>>>>>>>>>>>>>>>>>>>>//
  // CBS Computation: HF / CC-PVDZ, GRADIENT //
  //<<<<<<<<<<<<<<<<<<<<<<<<<<<<<<<<<<<<<<<<<//

gradient() will perform analytic gradient computation.

*** tstart() called on ds1.sherrill.chemistry.gatech.edu
*** at Thu Oct 25 18:33:29 2018

   => Loading Basis Set <=

    Name: CC-PVDZ
    Role: ORBITAL
    Keyword: BASIS
    atoms 1, 4     entry O          line   198 file /theoryfs2/ds/alenaizan/Gits/psi4/objdir/stage/share/psi4/basis/cc-pvdz.gbs 
    atoms 2-3, 5-6 entry H          line    22 file /theoryfs2/ds/alenaizan/Gits/psi4/objdir/stage/share/psi4/basis/cc-pvdz.gbs 


         ---------------------------------------------------------
                                   SCF
            by Justin Turney, Rob Parrish, Andy Simmonett
                             and Daniel Smith
                              RHF Reference
                        6 Threads,    500 MiB Core
         ---------------------------------------------------------

  ==> Geometry <==

    Molecular point group: c1
    Full point group: C1

    Geometry (in Bohr), charge = 0, multiplicity = 1:

       Center              X                  Y                   Z               Mass       
    ------------   -----------------  -----------------  -----------------  -----------------
      Gh(O)          -2.763732240000    -1.243777060000    -0.154445660000    15.994914619560
      Gh(H)          -1.123577910000    -2.062279700000    -0.052437990000     1.007825032070
      Gh(H)          -3.807923620000    -2.087055250000     1.060904070000     1.007825032070
         O            2.469246140000    -1.754377390000    -0.170928840000    15.994914619560
         H            3.763682600000    -2.214254030000     1.008461040000     1.007825032070
         H            2.305983300000     0.070984450000    -0.039424730000     1.007825032070

  Running in c1 symmetry.

  Rotational constants: A =      0.67094  B =      0.23246  C =      0.17553 [cm^-1]
  Rotational constants: A =  20114.15437  B =   6968.93165  C =   5262.27541 [MHz]
  Nuclear repulsion =    9.116778471315827

  Charge       = 0
  Multiplicity = 1
  Electrons    = 10
  Nalpha       = 5
  Nbeta        = 5

  ==> Algorithm <==

  SCF Algorithm Type is DF.
  DIIS enabled.
  MOM disabled.
  Fractional occupation disabled.
  Guess Type is SAD.
  Energy threshold   = 1.00e-08
  Density threshold  = 1.00e-08
  Integral threshold = 0.00e+00

  ==> Primary Basis <==

  Basis Set: CC-PVDZ
    Blend: CC-PVDZ
    Number of shells: 24
    Number of basis function: 48
    Number of Cartesian functions: 50
    Spherical Harmonics?: true
    Max angular momentum: 2

   => Loading Basis Set <=

    Name: (CC-PVDZ AUX)
    Role: JKFIT
    Keyword: DF_BASIS_SCF
    atoms 1, 4     entry O          line   221 file /theoryfs2/ds/alenaizan/Gits/psi4/objdir/stage/share/psi4/basis/cc-pvdz-jkfit.gbs 
    atoms 2-3, 5-6 entry H          line    51 file /theoryfs2/ds/alenaizan/Gits/psi4/objdir/stage/share/psi4/basis/cc-pvdz-jkfit.gbs 

  ==> Pre-Iterations <==

   -------------------------------------------------------
    Irrep   Nso     Nmo     Nalpha   Nbeta   Ndocc  Nsocc
   -------------------------------------------------------
     A         48      48       0       0       0       0
   -------------------------------------------------------
    Total      48      48       5       5       5       0
   -------------------------------------------------------

  ==> Integral Setup <==

  DFHelper Memory: AOs need 0.004 GiB; user supplied 0.366 GiB. Using in-core AOs.

  ==> MemDFJK: Density-Fitted J/K Matrices <==

    J tasked:                   Yes
    K tasked:                   Yes
    wK tasked:                   No
    OpenMP threads:               6
    Memory [MiB]:               375
    Algorithm:                 Core
    Schwarz Cutoff:           1E-12
    Mask sparsity (%):       0.0000
    Fitting Condition:        1E-12

   => Auxiliary Basis Set <=

  Basis Set: (CC-PVDZ AUX)
    Blend: CC-PVDZ-JKFIT
    Number of shells: 84
    Number of basis function: 232
    Number of Cartesian functions: 262
    Spherical Harmonics?: true
    Max angular momentum: 3

  Minimum eigenvalue in the overlap matrix is 3.1431949323E-02.
  Using Symmetric Orthogonalization.

  SCF Guess: Superposition of Atomic Densities via on-the-fly atomic UHF.

  ==> Iterations <==

                           Total Energy        Delta E     RMS |[F,P]|

   @DF-RHF iter   0:   -75.96868391076114   -7.59687e+01   8.46005e-02 
   @DF-RHF iter   1:   -75.99647132386518   -2.77874e-02   8.58656e-03 
   @DF-RHF iter   2:   -76.02163522640063   -2.51639e-02   6.88204e-03 DIIS
   @DF-RHF iter   3:   -76.02824934218631   -6.61412e-03   1.24651e-03 DIIS
   @DF-RHF iter   4:   -76.02883132816424   -5.81986e-04   3.99772e-04 DIIS
   @DF-RHF iter   5:   -76.02892166016487   -9.03320e-05   9.86745e-05 DIIS
   @DF-RHF iter   6:   -76.02892883852162   -7.17836e-06   1.79288e-05 DIIS
   @DF-RHF iter   7:   -76.02892906393927   -2.25418e-07   1.98990e-06 DIIS
   @DF-RHF iter   8:   -76.02892906883568   -4.89641e-09   6.12374e-07 DIIS
   @DF-RHF iter   9:   -76.02892906904151   -2.05830e-10   9.31450e-08 DIIS
   @DF-RHF iter  10:   -76.02892906905092   -9.40759e-12   2.85774e-08 DIIS
   @DF-RHF iter  11:   -76.02892906905133   -4.12115e-13   3.71837e-09 DIIS
  Energy converged.


  ==> Post-Iterations <==

    Orbital Energies [Eh]
    ---------------------

    Doubly Occupied:                                                      

       1A    -20.558404     2A     -1.337093     3A     -0.702455  
       4A     -0.567201     5A     -0.496861  

    Virtual:                                                              

       6A      0.154961     7A      0.198028     8A      0.253553  
       9A      0.338274    10A      0.608514    11A      0.685858  
      12A      0.760445    13A      0.787629    14A      0.849468  
      15A      0.906539    16A      1.174244    17A      1.247397  
      18A      1.285302    19A      1.443031    20A      1.467436  
      21A      1.596219    22A      1.698456    23A      1.795654  
      24A      1.874510    25A      1.947152    26A      2.024698  
      27A      2.030780    28A      2.180554    29A      2.434022  
      30A      2.437721    31A      2.472631    32A      2.648749  
      33A      2.786621    34A      3.126275    35A      3.271849  
      36A      3.348709    37A      3.501348    38A      3.872102  
      39A      4.154975    40A      4.454179    41A      4.545837  
      42A      4.677979    43A      4.855931    44A      4.993323  
      45A      5.306511    46A      6.493696    47A      7.012721  
      48A     33.505926  

    Final Occupation by Irrep:
              A 
    DOCC [     5 ]

  @DF-RHF Final Energy:   -76.02892906905133

   => Energetics <=

    Nuclear Repulsion Energy =              9.1167784713158273
    One-Electron Energy =                -122.9673886382281580
    Two-Electron Energy =                  37.8216810978610098
    Total Energy =                        -76.0289290690513155

Computation Completed


Properties will be evaluated at   0.000000,   0.000000,   0.000000 [a0]

Properties computed using the SCF density matrix

  Nuclear Dipole Moment: [e a0]
     X:    25.8236      Y:   -16.1783      Z:    -0.3984

  Electronic Dipole Moment: [e a0]
     X:   -25.3610      Y:    16.6809      Z:     0.8762

  Dipole Moment: [e a0]
     X:     0.4626      Y:     0.5026      Z:     0.4778     Total:     0.8336

  Dipole Moment: [D]
     X:     1.1759      Y:     1.2774      Z:     1.2144     Total:     2.1188


*** tstop() called on ds1.sherrill.chemistry.gatech.edu at Thu Oct 25 18:33:30 2018
Module time:
	user time   =       4.39 seconds =       0.07 minutes
	system time =       0.11 seconds =       0.00 minutes
	total time  =          1 seconds =       0.02 minutes
Total time:
	user time   =      39.54 seconds =       0.66 minutes
	system time =       1.17 seconds =       0.02 minutes
	total time  =          7 seconds =       0.12 minutes

*** tstart() called on ds1.sherrill.chemistry.gatech.edu
*** at Thu Oct 25 18:33:30 2018


         ------------------------------------------------------------
                                   SCF GRAD                          
                          Rob Parrish, Justin Turney,                
                       Andy Simmonett, and Alex Sokolov              
         ------------------------------------------------------------

  ==> Geometry <==

    Molecular point group: c1
    Full point group: C1

    Geometry (in Bohr), charge = 0, multiplicity = 1:

       Center              X                  Y                   Z               Mass       
    ------------   -----------------  -----------------  -----------------  -----------------
      Gh(O)          -2.763732240000    -1.243777060000    -0.154445660000    15.994914619560
      Gh(H)          -1.123577910000    -2.062279700000    -0.052437990000     1.007825032070
      Gh(H)          -3.807923620000    -2.087055250000     1.060904070000     1.007825032070
         O            2.469246140000    -1.754377390000    -0.170928840000    15.994914619560
         H            3.763682600000    -2.214254030000     1.008461040000     1.007825032070
         H            2.305983300000     0.070984450000    -0.039424730000     1.007825032070

  Nuclear repulsion =    9.116778471315827

  ==> Basis Set <==

  Basis Set: CC-PVDZ
    Blend: CC-PVDZ
    Number of shells: 24
    Number of basis function: 48
    Number of Cartesian functions: 50
    Spherical Harmonics?: true
    Max angular momentum: 2

  ==> DFJKGrad: Density-Fitted SCF Gradients <==

    Gradient:                    1
    J tasked:                  Yes
    K tasked:                  Yes
    wK tasked:                  No
    OpenMP threads:              6
    Integrals threads:           6
    Memory [MiB]:              375
    Schwarz Cutoff:          0E+00
    Fitting Condition:       1E-12

   => Auxiliary Basis Set <=

  Basis Set: (CC-PVDZ AUX)
    Blend: CC-PVDZ-JKFIT
    Number of shells: 84
    Number of basis function: 232
    Number of Cartesian functions: 262
    Spherical Harmonics?: true
    Max angular momentum: 3


  -Total Gradient:
     Atom            X                  Y                   Z
    ------   -----------------  -----------------  -----------------
       1       -0.000092247815     0.000168074814    -0.000054439972
       2       -0.001020546358    -0.000280091996    -0.000252832429
       3       -0.000098908756     0.000007084143     0.000048739999
       4       -0.004454300981    -0.022054476474    -0.007670964315
       5        0.009878488554    -0.005760226670     0.007724239988
       6       -0.004212484643     0.027919636183     0.000205256730


*** tstop() called on ds1.sherrill.chemistry.gatech.edu at Thu Oct 25 18:33:31 2018
Module time:
	user time   =       2.34 seconds =       0.04 minutes
	system time =       0.06 seconds =       0.00 minutes
	total time  =          1 seconds =       0.02 minutes
Total time:
	user time   =      41.88 seconds =       0.70 minutes
	system time =       1.23 seconds =       0.02 minutes
	total time  =          8 seconds =       0.13 minutes

  //>>>>>>>>>>>>>>>>>>>>>>>>>>>>>>>>>>>//
  //   CBS Results: MP2/cc-pV[D, T]Z   //
  //<<<<<<<<<<<<<<<<<<<<<<<<<<<<<<<<<<<//


   ==> HF <==

   HI-zeta (3) Energy:               -76.057420196879


   ==> Helgaker 2-point correlated extrapolation for method: MP2 <==

   LO-zeta (2) Energy:               -76.235141967521
   HI-zeta (3) Energy:               -76.334031523389
   Alpha (exponent) Value:             3.000000000000
   Extrapolated Energy:              -76.375669231122

   @Extrapolated MP2/(D,T):          -76.375669231122



   ==> Helgaker 2-point correlated extrapolation for method: HF <==

   LO-zeta (2) Energy:               -76.028929069051
   HI-zeta (3) Energy:               -76.057420196879
   Alpha (exponent) Value:             3.000000000000
   Extrapolated Energy:              -76.069416461228

   @Extrapolated HF/(D,T):           -76.069416461228


   ==> Components <==

  ---------------------------------------------------------------------------------------------------------
                          Method / Basis                      Rqd      Energy [Eh]   Variable
  ---------------------------------------------------------------------------------------------------------
                              hf / cc-pvtz                      *     -76.05742020   HF TOTAL ENERGY
                              hf / cc-pvdz                      *     -76.02892907   HF TOTAL ENERGY
                             mp2 / cc-pvdz                      *     -76.23514197   MP2 TOTAL ENERGY
                              hf / cc-pvtz                      *     -76.05742020   HF TOTAL ENERGY
                             mp2 / cc-pvtz                      *     -76.33403152   MP2 TOTAL ENERGY
                              hf / cc-pvdz                      *     -76.02892907   HF TOTAL ENERGY
  ---------------------------------------------------------------------------------------------------------

   ==> Stages <==

  ---------------------------------------------------------------------------------------------------------
      Stage               Method / Basis                       Wt      Energy [Eh]   Scheme
  ---------------------------------------------------------------------------------------------------------
        scf                   hf / cc-pvtz                      1     -76.05742020   xtpl_highest_1
       corl                  mp2 / cc-pv[dt]z                   1     -76.37566923   corl_xtpl_helgaker_2
       corl                   hf / cc-pv[dt]z                  -1     -76.06941646   corl_xtpl_helgaker_2
  ---------------------------------------------------------------------------------------------------------

   ==> CBS <==

  ---------------------------------------------------------------------------------------------------------
      Stage               Method / Basis                               Energy [Eh]   Scheme
  ---------------------------------------------------------------------------------------------------------
        scf                   hf / cc-pvtz                            -76.05742020   xtpl_highest_1
       corl                  mp2 / cc-pv[dt]z                          -0.30625277   corl_xtpl_helgaker_2
      total                  CBS                                      -76.36367297   
  ---------------------------------------------------------------------------------------------------------
   => Loading Basis Set <=

    Name: DEF2-SVP
    Role: ORBITAL
    Keyword: BASIS
    atoms 1, 4     entry O          line   130 file /theoryfs2/ds/alenaizan/Gits/psi4/objdir/stage/share/psi4/basis/def2-svp.gbs 
    atoms 2-3, 5-6 entry H          line    15 file /theoryfs2/ds/alenaizan/Gits/psi4/objdir/stage/share/psi4/basis/def2-svp.gbs 

CURRENT GRADIENT  Irrep: 1 Size: 6 x 3

                 1                   2                   3

    1    -0.00013300319344     0.00013395790165    -0.00006929345806
    2    -0.00064371054045    -0.00019013144088    -0.00015767112755
    3    -0.00006658531947    -0.00001496996536     0.00006750112038
    4     0.00350913063057    -0.01209232061410     0.00145868522214
    5     0.00081501139601    -0.00320121975282    -0.00025692219544
    6    -0.00348084297230     0.01536468387024    -0.00104229956155




       N-Body: Complex Energy (fragments = (2,), basis = (1, 2):   -76.36367296677383)

       N-Body: Computing complex (2/9) with fragments (3,) in the basis of fragments (2, 3).


  //>>>>>>>>>>>>>>>>>>>>>>>>>>>>>>>>>>>//
  //    CBS Setup: MP2/cc-pV[D, T]Z    //
  //<<<<<<<<<<<<<<<<<<<<<<<<<<<<<<<<<<<//

    Naive listing of computations required.
             hf / cc-pvtz                  for  HF TOTAL ENERGY, GRADIENT
            mp2 / cc-pvdz                  for  MP2 TOTAL ENERGY, GRADIENT
            mp2 / cc-pvtz                  for  MP2 TOTAL ENERGY, GRADIENT
             hf / cc-pvdz                  for  HF TOTAL ENERGY, GRADIENT
             hf / cc-pvtz                  for  HF TOTAL ENERGY, GRADIENT

    Enlightened listing of computations required.
             hf / cc-pvtz                  for  HF TOTAL ENERGY, GRADIENT
            mp2 / cc-pvdz                  for  MP2 TOTAL ENERGY, GRADIENT
            mp2 / cc-pvtz                  for  MP2 TOTAL ENERGY, GRADIENT
             hf / cc-pvdz                  for  HF TOTAL ENERGY, GRADIENT

    Full listing of computations to be obtained (required and bonus).
             hf / cc-pvtz                  for  HF TOTAL ENERGY, GRADIENT
             hf / cc-pvdz                  for  HF TOTAL ENERGY, GRADIENT
            mp2 / cc-pvdz                  for  MP2 TOTAL ENERGY, GRADIENT
             hf / cc-pvtz                  for  HF TOTAL ENERGY, GRADIENT
            mp2 / cc-pvtz                  for  MP2 TOTAL ENERGY, GRADIENT
             hf / cc-pvdz                  for  HF TOTAL ENERGY, GRADIENT

  //>>>>>>>>>>>>>>>>>>>>>>>>>>>>>>>>>>>>>>>>>//
  // CBS Computation: HF / CC-PVTZ, GRADIENT //
  //<<<<<<<<<<<<<<<<<<<<<<<<<<<<<<<<<<<<<<<<<//

gradient() will perform analytic gradient computation.

*** tstart() called on ds1.sherrill.chemistry.gatech.edu
*** at Thu Oct 25 18:33:31 2018

   => Loading Basis Set <=

    Name: CC-PVTZ
    Role: ORBITAL
    Keyword: BASIS
    atoms 1, 4     entry O          line   262 file /theoryfs2/ds/alenaizan/Gits/psi4/objdir/stage/share/psi4/basis/cc-pvtz.gbs 
    atoms 2-3, 5-6 entry H          line    23 file /theoryfs2/ds/alenaizan/Gits/psi4/objdir/stage/share/psi4/basis/cc-pvtz.gbs 


         ---------------------------------------------------------
                                   SCF
            by Justin Turney, Rob Parrish, Andy Simmonett
                             and Daniel Smith
                              RHF Reference
                        6 Threads,    500 MiB Core
         ---------------------------------------------------------

  ==> Geometry <==

    Molecular point group: c1
    Full point group: C1

    Geometry (in Bohr), charge = 0, multiplicity = 1:

       Center              X                  Y                   Z               Mass       
    ------------   -----------------  -----------------  -----------------  -----------------
      Gh(O)           2.469246140000    -1.754377390000    -0.170928840000    15.994914619560
      Gh(H)           3.763682600000    -2.214254030000     1.008461040000     1.007825032070
      Gh(H)           2.305983300000     0.070984450000    -0.039424730000     1.007825032070
         O            0.291279300000     3.008756250000     0.203085150000    15.994914619560
         H           -1.212530480000     1.958209000000     0.103033240000     1.007825032070
         H            0.100020490000     4.249581150000    -1.102220790000     1.007825032070

  Running in c1 symmetry.

  Rotational constants: A =      0.66182  B =      0.23462  C =      0.17637 [cm^-1]
  Rotational constants: A =  19840.79823  B =   7033.78531  C =   5287.47319 [MHz]
  Nuclear repulsion =    9.116312738955250

  Charge       = 0
  Multiplicity = 1
  Electrons    = 10
  Nalpha       = 5
  Nbeta        = 5

  ==> Algorithm <==

  SCF Algorithm Type is DF.
  DIIS enabled.
  MOM disabled.
  Fractional occupation disabled.
  Guess Type is SAD.
  Energy threshold   = 1.00e-08
  Density threshold  = 1.00e-08
  Integral threshold = 0.00e+00

  ==> Primary Basis <==

  Basis Set: CC-PVTZ
    Blend: CC-PVTZ
    Number of shells: 44
    Number of basis function: 116
    Number of Cartesian functions: 130
    Spherical Harmonics?: true
    Max angular momentum: 3

   => Loading Basis Set <=

    Name: (CC-PVTZ AUX)
    Role: JKFIT
    Keyword: DF_BASIS_SCF
    atoms 1, 4     entry O          line   229 file /theoryfs2/ds/alenaizan/Gits/psi4/objdir/stage/share/psi4/basis/cc-pvtz-jkfit.gbs 
    atoms 2-3, 5-6 entry H          line    51 file /theoryfs2/ds/alenaizan/Gits/psi4/objdir/stage/share/psi4/basis/cc-pvtz-jkfit.gbs 

  ==> Pre-Iterations <==

   -------------------------------------------------------
    Irrep   Nso     Nmo     Nalpha   Nbeta   Ndocc  Nsocc
   -------------------------------------------------------
     A        116     116       0       0       0       0
   -------------------------------------------------------
    Total     116     116       5       5       5       0
   -------------------------------------------------------

  ==> Integral Setup <==

  DFHelper Memory: AOs need 0.031 GiB; user supplied 0.366 GiB. Using in-core AOs.

  ==> MemDFJK: Density-Fitted J/K Matrices <==

    J tasked:                   Yes
    K tasked:                   Yes
    wK tasked:                   No
    OpenMP threads:               6
    Memory [MiB]:               375
    Algorithm:                 Core
    Schwarz Cutoff:           1E-12
    Mask sparsity (%):       2.3484
    Fitting Condition:        1E-12

   => Auxiliary Basis Set <=

  Basis Set: (CC-PVTZ AUX)
    Blend: CC-PVTZ-JKFIT
    Number of shells: 90
    Number of basis function: 278
    Number of Cartesian functions: 332
    Spherical Harmonics?: true
    Max angular momentum: 4

  Minimum eigenvalue in the overlap matrix is 2.0813954589E-03.
  Using Symmetric Orthogonalization.

  SCF Guess: Superposition of Atomic Densities via on-the-fly atomic UHF.

  ==> Iterations <==

                           Total Energy        Delta E     RMS |[F,P]|

   @DF-RHF iter   0:   -75.96718161812223   -7.59672e+01   3.48384e-02 
   @DF-RHF iter   1:   -76.02798142672364   -6.07998e-02   5.37825e-03 
   @DF-RHF iter   2:   -76.05002057447489   -2.20391e-02   3.05809e-03 DIIS
   @DF-RHF iter   3:   -76.05692328686339   -6.90271e-03   5.04212e-04 DIIS
   @DF-RHF iter   4:   -76.05740594299876   -4.82656e-04   1.63547e-04 DIIS
   @DF-RHF iter   5:   -76.05749753537179   -9.15924e-05   4.46489e-05 DIIS
   @DF-RHF iter   6:   -76.05750606708823   -8.53172e-06   7.97300e-06 DIIS
   @DF-RHF iter   7:   -76.05750631657791   -2.49490e-07   1.14967e-06 DIIS
   @DF-RHF iter   8:   -76.05750632080063   -4.22271e-09   2.34693e-07 DIIS
   @DF-RHF iter   9:   -76.05750632097072   -1.70090e-10   6.74645e-08 DIIS
   @DF-RHF iter  10:   -76.05750632098646   -1.57456e-11   1.23800e-08 DIIS
   @DF-RHF iter  11:   -76.05750632098702   -5.54223e-13   2.81658e-09 DIIS
  Energy converged.


  ==> Post-Iterations <==

    Orbital Energies [Eh]
    ---------------------

    Doubly Occupied:                                                      

       1A    -20.559819     2A     -1.343586     3A     -0.709853  
       4A     -0.576674     5A     -0.505601  

    Virtual:                                                              

       6A      0.122633     7A      0.160307     8A      0.203587  
       9A      0.278117    10A      0.449419    11A      0.483183  
      12A      0.552524    13A      0.572572    14A      0.596257  
      15A      0.615180    16A      0.724932    17A      0.798199  
      18A      0.800833    19A      0.848276    20A      0.865849  
      21A      0.878999    22A      0.959686    23A      1.007604  
      24A      1.049860    25A      1.112516    26A      1.193072  
      27A      1.223815    28A      1.343247    29A      1.406250  
      30A      1.449649    31A      1.530819    32A      1.579507  
      33A      1.699397    34A      2.047659    35A      2.083450  
      36A      2.109724    37A      2.158795    38A      2.201612  
      39A      2.233873    40A      2.302676    41A      2.451287  
      42A      2.493138    43A      2.529006    44A      2.659434  
      45A      2.675242    46A      2.837724    47A      2.963355  
      48A      3.003377    49A      3.103562    50A      3.373500  
      51A      3.507353    52A      3.578670    53A      3.639008  
      54A      3.722771    55A      3.734949    56A      3.795485  
      57A      3.870215    58A      3.893893    59A      3.932600  
      60A      3.940312    61A      4.034262    62A      4.090711  
      63A      4.142800    64A      4.205976    65A      4.267055  
      66A      4.296065    67A      4.435144    68A      4.442901  
      69A      4.466117    70A      4.490451    71A      4.542034  
      72A      4.595491    73A      4.668938    74A      4.750671  
      75A      4.784042    76A      4.823319    77A      4.881652  
      78A      4.940758    79A      5.010013    80A      5.187701  
      81A      5.269982    82A      5.353845    83A      5.476360  
      84A      5.547530    85A      5.840209    86A      6.044955  
      87A      6.245444    88A      6.573217    89A      6.896254  
      90A      6.919373    91A      6.988252    92A      7.017450  
      93A      7.060388    94A      7.104494    95A      7.203780  
      96A      7.270372    97A      7.381548    98A      7.513286  
      99A      7.665303   100A      7.684319   101A      7.810757  
     102A      8.155190   103A      8.158559   104A      8.276613  
     105A      8.742697   106A      9.422842   107A      9.569765  
     108A      9.625002   109A      9.775896   110A     10.790981  
     111A     11.122641   112A     11.296022   113A     12.595557  
     114A     12.880899   115A     13.059599   116A     58.407193  

    Final Occupation by Irrep:
              A 
    DOCC [     5 ]

  @DF-RHF Final Energy:   -76.05750632098702

   => Energetics <=

    Nuclear Repulsion Energy =              9.1163127389552496
    One-Electron Energy =                -122.9565735846872769
    Two-Electron Energy =                  37.7827545247450090
    Total Energy =                        -76.0575063209870166

Computation Completed


Properties will be evaluated at   0.000000,   0.000000,   0.000000 [a0]

Properties computed using the SCF density matrix

  Nuclear Dipole Moment: [e a0]
     X:     1.2177      Y:    30.2778      Z:     0.6255

  Electronic Dipole Moment: [e a0]
     X:    -1.8353      Y:   -30.1922      Z:    -1.1249

  Dipole Moment: [e a0]
     X:    -0.6175      Y:     0.0856      Z:    -0.4995     Total:     0.7988

  Dipole Moment: [D]
     X:    -1.5697      Y:     0.2177      Z:    -1.2695     Total:     2.0305


*** tstop() called on ds1.sherrill.chemistry.gatech.edu at Thu Oct 25 18:33:32 2018
Module time:
	user time   =       4.58 seconds =       0.08 minutes
	system time =       0.10 seconds =       0.00 minutes
	total time  =          1 seconds =       0.02 minutes
Total time:
	user time   =      47.63 seconds =       0.79 minutes
	system time =       1.36 seconds =       0.02 minutes
	total time  =          9 seconds =       0.15 minutes

*** tstart() called on ds1.sherrill.chemistry.gatech.edu
*** at Thu Oct 25 18:33:32 2018


         ------------------------------------------------------------
                                   SCF GRAD                          
                          Rob Parrish, Justin Turney,                
                       Andy Simmonett, and Alex Sokolov              
         ------------------------------------------------------------

  ==> Geometry <==

    Molecular point group: c1
    Full point group: C1

    Geometry (in Bohr), charge = 0, multiplicity = 1:

       Center              X                  Y                   Z               Mass       
    ------------   -----------------  -----------------  -----------------  -----------------
      Gh(O)           2.469246140000    -1.754377390000    -0.170928840000    15.994914619560
      Gh(H)           3.763682600000    -2.214254030000     1.008461040000     1.007825032070
      Gh(H)           2.305983300000     0.070984450000    -0.039424730000     1.007825032070
         O            0.291279300000     3.008756250000     0.203085150000    15.994914619560
         H           -1.212530480000     1.958209000000     0.103033240000     1.007825032070
         H            0.100020490000     4.249581150000    -1.102220790000     1.007825032070

  Nuclear repulsion =    9.116312738955250

  ==> Basis Set <==

  Basis Set: CC-PVTZ
    Blend: CC-PVTZ
    Number of shells: 44
    Number of basis function: 116
    Number of Cartesian functions: 130
    Spherical Harmonics?: true
    Max angular momentum: 3

  ==> DFJKGrad: Density-Fitted SCF Gradients <==

    Gradient:                    1
    J tasked:                  Yes
    K tasked:                  Yes
    wK tasked:                  No
    OpenMP threads:              6
    Integrals threads:           6
    Memory [MiB]:              375
    Schwarz Cutoff:          0E+00
    Fitting Condition:       1E-12

   => Auxiliary Basis Set <=

  Basis Set: (CC-PVTZ AUX)
    Blend: CC-PVTZ-JKFIT
    Number of shells: 90
    Number of basis function: 278
    Number of Cartesian functions: 332
    Spherical Harmonics?: true
    Max angular momentum: 4


  -Total Gradient:
[...]
    Number of Cartesian functions: 171
    Spherical Harmonics?: true
    Max angular momentum: 4

	 --------------------------------------------------------
	                 NBF =    58, NAUX =   141
	 --------------------------------------------------------
	   CLASS    FOCC     OCC    AOCC    AVIR     VIR    FVIR
	   PAIRS       0       5       5      53      53       0
	 --------------------------------------------------------

  DFHelper Memory: AOs need 0.004 GiB; user supplied 0.366 GiB. Using in-core AOs.


         ------------------------------------------------------------
                                     CPHF                           
                                  Rob Parrish                       
         ------------------------------------------------------------

  ==> Geometry <==

    Molecular point group: c1
    Full point group: C1

    Geometry (in Bohr), charge = 0, multiplicity = 1:

       Center              X                  Y                   Z               Mass       
    ------------   -----------------  -----------------  -----------------  -----------------
         O            0.291279300000     3.008756250000     0.203085150000    15.994914619560
         H           -1.212530480000     1.958209000000     0.103033240000     1.007825032070
         H            0.100020490000     4.249581150000    -1.102220790000     1.007825032070

  Nuclear repulsion =    9.116312738955250
  Reference energy  =  -76.056409102333276

  ==> Basis Set <==

  Basis Set: CC-PVTZ
    Blend: CC-PVTZ
    Number of shells: 22
    Number of basis function: 58
    Number of Cartesian functions: 65
    Spherical Harmonics?: true
    Max angular momentum: 3

  ==> CGRSolver (by Rob Parrish) <==

   Number of roots    =         1
   Preconditioning    =    JACOBI
   Convergence cutoff =     1E-06
   Maximum iterations =       100

  ==> CPHFRHamiltonian (by Rob Parrish) <== 

  ==> MemDFJK: Density-Fitted J/K Matrices <==

    J tasked:                   Yes
    K tasked:                   Yes
    wK tasked:                   No
    OpenMP threads:               6
    Memory [MiB]:               375
    Algorithm:                 Core
    Schwarz Cutoff:           1E-12
    Mask sparsity (%):       0.0000
    Fitting Condition:        1E-12

   => Auxiliary Basis Set <=

  Basis Set: (CC-PVTZ AUX)
    Blend: CC-PVTZ-JKFIT
    Number of shells: 45
    Number of basis function: 139
    Number of Cartesian functions: 166
    Spherical Harmonics?: true
    Max angular momentum: 4

  ==> CPHF Iterations <==

  => Iterations <=

             Iter  Converged  Remaining    Residual
  CGR           1          0          1   6.050E-02
  CGR           2          0          1   1.562E-02
  CGR           3          0          1   2.148E-03
  CGR           4          0          1   4.199E-04
  CGR           5          0          1   5.344E-05
  CGR           6          0          1   9.856E-06
  CGR           7          0          1   2.019E-06
  CGR           8          1          0   2.643E-07

    CGRSolver converged.

  ==> DFCorrGrad: Density-Fitted Correlated Gradients <==

    OpenMP threads:              6
    Integrals threads:           6
    Memory [GiB]:            0.366
    Schwarz Cutoff:          0E+00
    Fitting Condition:       1E-12

   => Auxiliary Basis Set <=

  Basis Set: (CC-PVTZ AUX)
    Blend: CC-PVTZ-JKFIT
    Number of shells: 45
    Number of basis function: 139
    Number of Cartesian functions: 166
    Spherical Harmonics?: true
    Max angular momentum: 4

	-----------------------------------------------------------
	 ==================> DF-MP2 Energies <==================== 
	-----------------------------------------------------------
	 Reference Energy          =     -76.0564091023332765 [Eh]
	 Singles Energy            =      -0.0000000000000000 [Eh]
	 Same-Spin Energy          =      -0.0666661968699840 [Eh]
	 Opposite-Spin Energy      =      -0.2088092097494472 [Eh]
	 Correlation Energy        =      -0.2754754066194313 [Eh]
	 Total Energy              =     -76.3318845089527116 [Eh]
	-----------------------------------------------------------
	 ================> DF-SCS-MP2 Energies <================== 
	-----------------------------------------------------------
	 SCS Same-Spin Scale       =       0.3333333333333333 [-]
	 SCS Opposite-Spin Scale   =       1.2000000000000000 [-]
	 SCS Same-Spin Energy      =      -0.0222220656233280 [Eh]
	 SCS Opposite-Spin Energy  =      -0.2505710516993367 [Eh]
	 SCS Correlation Energy    =      -0.2727931173226647 [Eh]
	 SCS Total Energy          =     -76.3292022196559401 [Eh]
	-----------------------------------------------------------


  -Total Gradient:
     Atom            X                  Y                   Z
    ------   -----------------  -----------------  -----------------
       1        0.009032053159     0.008263704757    -0.001236703250
       2       -0.011713389701    -0.010705893194     0.001593450880
       3        0.002681336542     0.002442188437    -0.000356747630


*** tstop() called on ds1.sherrill.chemistry.gatech.edu at Thu Oct 25 18:36:18 2018
Module time:
	user time   =      10.98 seconds =       0.18 minutes
	system time =       0.33 seconds =       0.01 minutes
	total time  =          2 seconds =       0.03 minutes
Total time:
	user time   =     922.91 seconds =      15.38 minutes
	system time =      27.62 seconds =       0.46 minutes
	total time  =        175 seconds =       2.92 minutes

  //>>>>>>>>>>>>>>>>>>>>>>>>>>>>>>>>>>>>>>>>>//
  // CBS Computation: HF / CC-PVDZ, GRADIENT //
  //<<<<<<<<<<<<<<<<<<<<<<<<<<<<<<<<<<<<<<<<<//

gradient() will perform analytic gradient computation.

*** tstart() called on ds1.sherrill.chemistry.gatech.edu
*** at Thu Oct 25 18:36:18 2018

   => Loading Basis Set <=

    Name: CC-PVDZ
    Role: ORBITAL
    Keyword: BASIS
    atoms 1   entry O          line   198 file /theoryfs2/ds/alenaizan/Gits/psi4/objdir/stage/share/psi4/basis/cc-pvdz.gbs 
    atoms 2-3 entry H          line    22 file /theoryfs2/ds/alenaizan/Gits/psi4/objdir/stage/share/psi4/basis/cc-pvdz.gbs 


         ---------------------------------------------------------
                                   SCF
            by Justin Turney, Rob Parrish, Andy Simmonett
                             and Daniel Smith
                              RHF Reference
                        6 Threads,    500 MiB Core
         ---------------------------------------------------------

  ==> Geometry <==

    Molecular point group: c1
    Full point group: C1

    Geometry (in Bohr), charge = 0, multiplicity = 1:

       Center              X                  Y                   Z               Mass       
    ------------   -----------------  -----------------  -----------------  -----------------
         O            0.291279300000     3.008756250000     0.203085150000    15.994914619560
         H           -1.212530480000     1.958209000000     0.103033240000     1.007825032070
         H            0.100020490000     4.249581150000    -1.102220790000     1.007825032070

  Running in c1 symmetry.

  Rotational constants: A =     16.29746  B =      0.35535  C =      0.35390 [cm^-1]
  Rotational constants: A = 488585.46328  B =  10652.99421  C =  10609.68719 [MHz]
  Nuclear repulsion =    9.116312738955250

  Charge       = 0
  Multiplicity = 1
  Electrons    = 10
  Nalpha       = 5
  Nbeta        = 5

  ==> Algorithm <==

  SCF Algorithm Type is DF.
  DIIS enabled.
  MOM disabled.
  Fractional occupation disabled.
  Guess Type is SAD.
  Energy threshold   = 1.00e-08
  Density threshold  = 1.00e-08
  Integral threshold = 0.00e+00

  ==> Primary Basis <==

  Basis Set: CC-PVDZ
    Blend: CC-PVDZ
    Number of shells: 12
    Number of basis function: 24
    Number of Cartesian functions: 25
    Spherical Harmonics?: true
    Max angular momentum: 2

   => Loading Basis Set <=

    Name: (CC-PVDZ AUX)
    Role: JKFIT
    Keyword: DF_BASIS_SCF
    atoms 1   entry O          line   221 file /theoryfs2/ds/alenaizan/Gits/psi4/objdir/stage/share/psi4/basis/cc-pvdz-jkfit.gbs 
    atoms 2-3 entry H          line    51 file /theoryfs2/ds/alenaizan/Gits/psi4/objdir/stage/share/psi4/basis/cc-pvdz-jkfit.gbs 

  ==> Pre-Iterations <==

   -------------------------------------------------------
    Irrep   Nso     Nmo     Nalpha   Nbeta   Ndocc  Nsocc
   -------------------------------------------------------
     A         24      24       0       0       0       0
   -------------------------------------------------------
    Total      24      24       5       5       5       0
   -------------------------------------------------------

  ==> Integral Setup <==

  DFHelper Memory: AOs need 0.001 GiB; user supplied 0.366 GiB. Using in-core AOs.

  ==> MemDFJK: Density-Fitted J/K Matrices <==

    J tasked:                   Yes
    K tasked:                   Yes
    wK tasked:                   No
    OpenMP threads:               6
    Memory [MiB]:               375
    Algorithm:                 Core
    Schwarz Cutoff:           1E-12
    Mask sparsity (%):       0.0000
    Fitting Condition:        1E-12

   => Auxiliary Basis Set <=

  Basis Set: (CC-PVDZ AUX)
    Blend: CC-PVDZ-JKFIT
    Number of shells: 42
    Number of basis function: 116
    Number of Cartesian functions: 131
    Spherical Harmonics?: true
    Max angular momentum: 3

  Minimum eigenvalue in the overlap matrix is 3.4891768475E-02.
  Using Symmetric Orthogonalization.

  SCF Guess: Superposition of Atomic Densities via on-the-fly atomic UHF.

  ==> Iterations <==

                           Total Energy        Delta E     RMS |[F,P]|

   @DF-RHF iter   0:   -75.90737322597668   -7.59074e+01   1.67882e-01 
   @DF-RHF iter   1:   -76.00277589072884   -9.54027e-02   1.83654e-02 
   @DF-RHF iter   2:   -76.02110071762260   -1.83248e-02   1.15401e-02 DIIS
   @DF-RHF iter   3:   -76.02577702955521   -4.67631e-03   2.03763e-03 DIIS
   @DF-RHF iter   4:   -76.02607719025394   -3.00161e-04   5.72564e-04 DIIS
   @DF-RHF iter   5:   -76.02612369465874   -4.65044e-05   1.55307e-04 DIIS
   @DF-RHF iter   6:   -76.02612780050853   -4.10585e-06   2.33311e-05 DIIS
   @DF-RHF iter   7:   -76.02612788062044   -8.01119e-08   4.14368e-06 DIIS
   @DF-RHF iter   8:   -76.02612788313189   -2.51146e-09   8.90282e-07 DIIS
   @DF-RHF iter   9:   -76.02612788325450   -1.22611e-10   1.44852e-07 DIIS
   @DF-RHF iter  10:   -76.02612788325709   -2.58638e-12   3.58613e-08 DIIS
   @DF-RHF iter  11:   -76.02612788325726   -1.70530e-13   7.46149e-09 DIIS
  Energy converged.


  ==> Post-Iterations <==

    Orbital Energies [Eh]
    ---------------------

    Doubly Occupied:                                                      

       1A    -20.551319     2A     -1.331974     3A     -0.696737  
       4A     -0.563191     5A     -0.492235  

    Virtual:                                                              

       6A      0.184346     7A      0.254966     8A      0.786217  
       9A      0.843364    10A      1.163515    11A      1.200538  
      12A      1.253016    13A      1.454602    14A      1.471747  
      15A      1.678781    16A      1.871332    17A      1.921443  
      18A      2.429894    19A      2.476142    20A      3.273672  
      21A      3.335866    22A      3.496017    23A      3.865142  
      24A      4.133655  

    Final Occupation by Irrep:
              A 
    DOCC [     5 ]

  @DF-RHF Final Energy:   -76.02612788325726

   => Energetics <=

    Nuclear Repulsion Energy =              9.1163127389552496
    One-Electron Energy =                -123.0139676233927446
    Two-Electron Energy =                  37.8715270011802332
    Total Energy =                        -76.0261278832572600

Computation Completed


Properties will be evaluated at   0.000000,   0.000000,   0.000000 [a0]

Properties computed using the SCF density matrix

  Nuclear Dipole Moment: [e a0]
     X:     1.2177      Y:    30.2778      Z:     0.6255

  Electronic Dipole Moment: [e a0]
     X:    -1.8348      Y:   -30.2056      Z:    -1.1399

  Dipole Moment: [e a0]
     X:    -0.6171      Y:     0.0722      Z:    -0.5144     Total:     0.8066

  Dipole Moment: [D]
     X:    -1.5685      Y:     0.1836      Z:    -1.3075     Total:     2.0502


*** tstop() called on ds1.sherrill.chemistry.gatech.edu at Thu Oct 25 18:36:18 2018
Module time:
	user time   =       2.97 seconds =       0.05 minutes
	system time =       0.09 seconds =       0.00 minutes
	total time  =          0 seconds =       0.00 minutes
Total time:
	user time   =     925.92 seconds =      15.43 minutes
	system time =      27.72 seconds =       0.46 minutes
	total time  =        175 seconds =       2.92 minutes

*** tstart() called on ds1.sherrill.chemistry.gatech.edu
*** at Thu Oct 25 18:36:18 2018


         ------------------------------------------------------------
                                   SCF GRAD                          
                          Rob Parrish, Justin Turney,                
                       Andy Simmonett, and Alex Sokolov              
         ------------------------------------------------------------

  ==> Geometry <==

    Molecular point group: c1
    Full point group: C1

    Geometry (in Bohr), charge = 0, multiplicity = 1:

       Center              X                  Y                   Z               Mass       
    ------------   -----------------  -----------------  -----------------  -----------------
         O            0.291279300000     3.008756250000     0.203085150000    15.994914619560
         H           -1.212530480000     1.958209000000     0.103033240000     1.007825032070
         H            0.100020490000     4.249581150000    -1.102220790000     1.007825032070

  Nuclear repulsion =    9.116312738955250

  ==> Basis Set <==

  Basis Set: CC-PVDZ
    Blend: CC-PVDZ
    Number of shells: 12
    Number of basis function: 24
    Number of Cartesian functions: 25
    Spherical Harmonics?: true
    Max angular momentum: 2

  ==> DFJKGrad: Density-Fitted SCF Gradients <==

    Gradient:                    1
    J tasked:                  Yes
    K tasked:                  Yes
    wK tasked:                  No
    OpenMP threads:              6
    Integrals threads:           6
    Memory [MiB]:              375
    Schwarz Cutoff:          0E+00
    Fitting Condition:       1E-12

   => Auxiliary Basis Set <=

  Basis Set: (CC-PVDZ AUX)
    Blend: CC-PVDZ-JKFIT
    Number of shells: 42
    Number of basis function: 116
    Number of Cartesian functions: 131
    Spherical Harmonics?: true
    Max angular momentum: 3


  -Total Gradient:
     Atom            X                  Y                   Z
    ------   -----------------  -----------------  -----------------
       1        0.021479551053     0.007013691670     0.008944862215
       2       -0.022259919964    -0.017532246032     0.000382651351
       3        0.000780368911     0.010518554364    -0.009327513566


*** tstop() called on ds1.sherrill.chemistry.gatech.edu at Thu Oct 25 18:36:19 2018
Module time:
	user time   =       2.03 seconds =       0.03 minutes
	system time =       0.08 seconds =       0.00 minutes
	total time  =          1 seconds =       0.02 minutes
Total time:
	user time   =     927.96 seconds =      15.47 minutes
	system time =      27.80 seconds =       0.46 minutes
	total time  =        176 seconds =       2.93 minutes

  //>>>>>>>>>>>>>>>>>>>>>>>>>>>>>>>>>>>//
  //   CBS Results: MP2/cc-pV[D, T]Z   //
  //<<<<<<<<<<<<<<<<<<<<<<<<<<<<<<<<<<<//


   ==> HF <==

   HI-zeta (3) Energy:               -76.056409102333


   ==> Helgaker 2-point correlated extrapolation for method: MP2 <==

   LO-zeta (2) Energy:               -76.230523094184
   HI-zeta (3) Energy:               -76.331884508953
   Alpha (exponent) Value:             3.000000000000
   Extrapolated Energy:              -76.374562999382

   @Extrapolated MP2/(D,T):          -76.374562999382



   ==> Helgaker 2-point correlated extrapolation for method: HF <==

   LO-zeta (2) Energy:               -76.026127883257
   HI-zeta (3) Energy:               -76.056409102333
   Alpha (exponent) Value:             3.000000000000
   Extrapolated Energy:              -76.069159089313

   @Extrapolated HF/(D,T):           -76.069159089313


   ==> Components <==

  ---------------------------------------------------------------------------------------------------------
                          Method / Basis                      Rqd      Energy [Eh]   Variable
  ---------------------------------------------------------------------------------------------------------
                              hf / cc-pvtz                      *     -76.05640910   HF TOTAL ENERGY
                              hf / cc-pvdz                      *     -76.02612788   HF TOTAL ENERGY
                             mp2 / cc-pvdz                      *     -76.23052309   MP2 TOTAL ENERGY
                              hf / cc-pvtz                      *     -76.05640910   HF TOTAL ENERGY
                             mp2 / cc-pvtz                      *     -76.33188451   MP2 TOTAL ENERGY
                              hf / cc-pvdz                      *     -76.02612788   HF TOTAL ENERGY
  ---------------------------------------------------------------------------------------------------------

   ==> Stages <==

  ---------------------------------------------------------------------------------------------------------
      Stage               Method / Basis                       Wt      Energy [Eh]   Scheme
  ---------------------------------------------------------------------------------------------------------
        scf                   hf / cc-pvtz                      1     -76.05640910   xtpl_highest_1
       corl                  mp2 / cc-pv[dt]z                   1     -76.37456300   corl_xtpl_helgaker_2
       corl                   hf / cc-pv[dt]z                  -1     -76.06915909   corl_xtpl_helgaker_2
  ---------------------------------------------------------------------------------------------------------

   ==> CBS <==

  ---------------------------------------------------------------------------------------------------------
      Stage               Method / Basis                               Energy [Eh]   Scheme
  ---------------------------------------------------------------------------------------------------------
        scf                   hf / cc-pvtz                            -76.05640910   xtpl_highest_1
       corl                  mp2 / cc-pv[dt]z                          -0.30540391   corl_xtpl_helgaker_2
      total                  CBS                                      -76.36181301   
  ---------------------------------------------------------------------------------------------------------
   => Loading Basis Set <=

    Name: DEF2-SVP
    Role: ORBITAL
    Keyword: BASIS
    atoms 1   entry O          line   130 file /theoryfs2/ds/alenaizan/Gits/psi4/objdir/stage/share/psi4/basis/def2-svp.gbs 
    atoms 2-3 entry H          line    15 file /theoryfs2/ds/alenaizan/Gits/psi4/objdir/stage/share/psi4/basis/def2-svp.gbs 

CURRENT GRADIENT  Irrep: 1 Size: 3 x 3

                 1                   2                   3

    1     0.00943796355848     0.00819350011323    -0.00087699389097
    2    -0.01195147107697    -0.01074801558262     0.00146081307251
    3     0.00251350751834     0.00255451547033    -0.00058381918150



	Energy of ((3,), (3,))............................................PASSED
	Gradient of ((3,), (3,))..........................................PASSED
	VMFC-Corrected Energy.............................................PASSED
	VMFC-Corrected Gradient...........................................PASSED

    Psi4 stopped on: Thursday, 25 October 2018 06:36PM
    Psi4 wall time for execution: 0:02:56.28

*** Psi4 exiting successfully. Buy a developer a beer!
