
    -----------------------------------------------------------------------
          Psi4: An Open-Source Ab Initio Electronic Structure Package
                               Psi4 1.3a2.dev179 

                         Git: Rev {nbody} c46660a dirty


    R. M. Parrish, L. A. Burns, D. G. A. Smith, A. C. Simmonett,
    A. E. DePrince III, E. G. Hohenstein, U. Bozkaya, A. Yu. Sokolov,
    R. Di Remigio, R. M. Richard, J. F. Gonthier, A. M. James,
    H. R. McAlexander, A. Kumar, M. Saitow, X. Wang, B. P. Pritchard,
    P. Verma, H. F. Schaefer III, K. Patkowski, R. A. King, E. F. Valeev,
    F. A. Evangelista, J. M. Turney, T. D. Crawford, and C. D. Sherrill,
    J. Chem. Theory Comput. 13(7) pp 3185--3197 (2017).
    (doi: 10.1021/acs.jctc.7b00174)


                         Additional Contributions by
    P. Kraus, H. Kruse, M. H. Lechner, M. C. Schieber, and R. A. Shaw

    -----------------------------------------------------------------------


    Psi4 started on: Wednesday, 21 November 2018 03:27PM

    Process ID: 12584
    Host:       ds1.sherrill.chemistry.gatech.edu
    PSIDATADIR: /theoryfs2/ds/alenaizan/Gits/psi4/objdir/stage/share/psi4
    Memory:     500.0 MiB
    Threads:    6
    
  ==> Input File <==

--------------------------------------------------------------------------
#! Computation of VMFC-corrected water trimer gradient (geometry from J. Chem. Theory Comput. 11, 2126-2136 (2015))

import numpy as np

molecule water_trimer {
O      -2.76373224  -1.24377706  -0.15444566
H      -1.12357791  -2.06227970  -0.05243799
H      -3.80792362  -2.08705525   1.06090407
--
O       2.46924614  -1.75437739  -0.17092884
H       3.76368260  -2.21425403   1.00846104
H       2.30598330   0.07098445  -0.03942473
--
O       0.29127930   3.00875625   0.20308515
H      -1.21253048   1.95820900   0.10303324
H       0.10002049   4.24958115  -1.10222079
no_reorient
no_com
symmetry c1
units bohr
}

g, wfn = psi4.gradient('SCF/STO-3G', molecule=water_trimer, bsse_type='vmfc', max_nbody=2,
                                      return_total_data=True, return_wfn=True)
core.clean()

vmfc_scheme = {'((1, 2), (1, 2))': 1, '((1, 3), (1, 3))': 1, '((2, 3), (2, 3))': 1, #TEST
               '((1,), (1, 2))': -1, '((1,), (1, 3))': -1, '((2,), (1, 2))': -1, #TEST
               '((2,), (2, 3))': -1, '((3,), (1, 3))': -1, '((3,), (2, 3))': -1, #TEST
               '((1,), (1,))': 1, '((2,), (2,))': 1, '((3,), (3,))': 1} #TEST

energy_dict, gradient_dict = {}, {} #TEST
for i in vmfc_scheme: #TEST
    mol = water_trimer.extract_subsets(eval(i)[0], list(set(eval(i)[1]) - set(eval(i)[0]))) #TEST
    gradient_dict[i], wfn_mol = gradient('SCF/STO-3G', molecule=mol, return_wfn=True) #TEST
    energy_dict[i] = core.get_variable('CURRENT ENERGY') #TEST
    core.clean() #TEST

    compare_values(energy_dict[i], wfn.variables()[i], 8, 'Energy of %s' %i) #TEST
    compare_arrays(gradient_dict[i], wfn.arrays()['PTYPE %s' %i], 8, 'Gradient of %s' %i) #TEST

energy, gradient = 0, np.zeros((9, 3)) #TEST

for i in vmfc_scheme: #TEST
    energy += vmfc_scheme[i] * energy_dict[i] #TEST

compare_values(energy, wfn.variables()['2'], 8, 'VMFC-Corrected Energy') #TEST

for i in range(3): #TEST
    key = '((%i,), (%i,))' %(i + 1, i + 1) #TEST
    gradient[i*3: i*3 + 3, :] += vmfc_scheme.pop(key) * np.array(gradient_dict[key]) #TEST

for key in vmfc_scheme: #TEST
    i, j = eval(key)[1][0]-1, eval(key)[1][1]-1 #TEST
    index = [i*3, i*3 + 1, i*3 + 2, j*3, j*3 + 1, j*3 + 2] #TEST
    gradient[index, :] += vmfc_scheme[key] * np.array(gradient_dict[key]) #TEST
 
compare_arrays(gradient, wfn.arrays()['GRADIENT 2'], 8, 'VMFC-Corrected Gradient') #TEST
--------------------------------------------------------------------------


   ===> N-Body Interaction Abacus <===
        BSSE Treatment:                     vmfc
        Number of 1-body computations:     9
        Number of 2-body computations:     3

   ==> N-Body: Now computing 1-body complexes <==


       N-Body: Computing complex (1/9) with fragments (2,) in the basis of fragments (1, 2).

gradient() will perform analytic gradient computation.

*** tstart() called on ds1.sherrill.chemistry.gatech.edu
*** at Wed Nov 21 15:27:59 2018

   => Loading Basis Set <=

    Name: STO-3G
    Role: ORBITAL
    Keyword: BASIS
    atoms 1, 4     entry O          line    81 file /theoryfs2/ds/alenaizan/Gits/psi4/objdir/stage/share/psi4/basis/sto-3g.gbs 
    atoms 2-3, 5-6 entry H          line    19 file /theoryfs2/ds/alenaizan/Gits/psi4/objdir/stage/share/psi4/basis/sto-3g.gbs 


         ---------------------------------------------------------
                                   SCF
            by Justin Turney, Rob Parrish, Andy Simmonett
                             and Daniel Smith
                              RHF Reference
                        6 Threads,    500 MiB Core
         ---------------------------------------------------------

  ==> Geometry <==

    Molecular point group: c1
    Full point group: C1

    Geometry (in Bohr), charge = 0, multiplicity = 1:

       Center              X                  Y                   Z               Mass       
    ------------   -----------------  -----------------  -----------------  -----------------
      Gh(O)          -2.763732240000    -1.243777060000    -0.154445660000    15.994914619570
      Gh(H)          -1.123577910000    -2.062279700000    -0.052437990000     1.007825032230
      Gh(H)          -3.807923620000    -2.087055250000     1.060904070000     1.007825032230
         O            2.469246140000    -1.754377390000    -0.170928840000    15.994914619570
         H            3.763682600000    -2.214254030000     1.008461040000     1.007825032230
         H            2.305983300000     0.070984450000    -0.039424730000     1.007825032230

  Running in c1 symmetry.

  Rotational constants: A =      0.67094  B =      0.23246  C =      0.17553 [cm^-1]
  Rotational constants: A =  20114.15437  B =   6968.93165  C =   5262.27541 [MHz]
  Nuclear repulsion =    9.116778471315827

  Charge       = 0
  Multiplicity = 1
  Electrons    = 10
  Nalpha       = 5
  Nbeta        = 5

  ==> Algorithm <==

  SCF Algorithm Type is DF.
  DIIS enabled.
  MOM disabled.
  Fractional occupation disabled.
  Guess Type is SAD.
  Energy threshold   = 1.00e-08
  Density threshold  = 1.00e-08
  Integral threshold = 0.00e+00

  ==> Primary Basis <==

  Basis Set: STO-3G
    Blend: STO-3G
    Number of shells: 10
    Number of basis function: 14
    Number of Cartesian functions: 14
    Spherical Harmonics?: true
    Max angular momentum: 1

   => Loading Basis Set <=

    Name: (STO-3G AUX)
    Role: JKFIT
    Keyword: DF_BASIS_SCF
    atoms 1, 4     entry O          line   323 file /theoryfs2/ds/alenaizan/Gits/psi4/objdir/stage/share/psi4/basis/def2-svp-jkfit.gbs 
    atoms 2-3, 5-6 entry H          line    23 file /theoryfs2/ds/alenaizan/Gits/psi4/objdir/stage/share/psi4/basis/def2-svp-jkfit.gbs 

  ==> Pre-Iterations <==

   -------------------------------------------------------
    Irrep   Nso     Nmo     Nalpha   Nbeta   Ndocc  Nsocc
   -------------------------------------------------------
     A         14      14       0       0       0       0
   -------------------------------------------------------
    Total      14      14       5       5       5       0
   -------------------------------------------------------

  ==> Integral Setup <==

  DFHelper Memory: AOs need 0.000 GiB; user supplied 0.366 GiB. Using in-core AOs.

  ==> MemDFJK: Density-Fitted J/K Matrices <==

    J tasked:                   Yes
    K tasked:                   Yes
    wK tasked:                   No
    OpenMP threads:               6
    Memory [MiB]:               375
    Algorithm:                 Core
    Schwarz Cutoff:           1E-12
    Mask sparsity (%):       1.0204
    Fitting Condition:        1E-12

   => Auxiliary Basis Set <=

  Basis Set: (STO-3G AUX)
    Blend: DEF2-SVP-JKFIT
    Number of shells: 74
    Number of basis function: 226
    Number of Cartesian functions: 266
    Spherical Harmonics?: true
    Max angular momentum: 4

  Minimum eigenvalue in the overlap matrix is 3.4074143904E-01.
  Using Symmetric Orthogonalization.

  SCF Guess: Superposition of Atomic Densities via on-the-fly atomic UHF.

  ==> Iterations <==

                           Total Energy        Delta E     RMS |[F,P]|

   @DF-RHF iter   0:   -74.74161511334189   -7.47416e+01   1.05591e-01 
   @DF-RHF iter   1:   -74.94007243833987   -1.98457e-01   1.33354e-02 
   @DF-RHF iter   2:   -74.96758973067345   -2.75173e-02   2.80126e-03 DIIS
   @DF-RHF iter   3:   -74.96925343860433   -1.66371e-03   1.13190e-03 DIIS
   @DF-RHF iter   4:   -74.96966179907000   -4.08360e-04   1.96130e-04 DIIS
   @DF-RHF iter   5:   -74.96967372146352   -1.19224e-05   1.56010e-05 DIIS
   @DF-RHF iter   6:   -74.96967377803708   -5.65736e-08   3.16023e-06 DIIS
   @DF-RHF iter   7:   -74.96967378045150   -2.41442e-09   5.73056e-07 DIIS
   @DF-RHF iter   8:   -74.96967378055385   -1.02347e-10   1.24384e-07 DIIS
   @DF-RHF iter   9:   -74.96967378055899   -5.14433e-12   2.11614e-08 DIIS
   @DF-RHF iter  10:   -74.96967378055913   -1.42109e-13   2.45815e-09 DIIS
  Energy converged.


  ==> Post-Iterations <==

    Orbital Energies [Eh]
    ---------------------

    Doubly Occupied:                                                      

       1A    -20.252034     2A     -1.268120     3A     -0.620137  
       4A     -0.455049     5A     -0.395127  

    Virtual:                                                              

       6A      0.541208     7A      0.601146     8A      0.731315  
       9A      1.030688    10A      1.381597    11A      2.543776  
      12A      2.943171    13A      3.295969    14A     31.277155  

    Final Occupation by Irrep:
              A 
    DOCC [     5 ]

  @DF-RHF Final Energy:   -74.96967378055913

   => Energetics <=

    Nuclear Repulsion Energy =              9.1167784713158273
    One-Electron Energy =                -122.1919692859514583
    Two-Electron Energy =                  38.1055170340764917
    Total Energy =                        -74.9696737805591340

Computation Completed


Properties will be evaluated at   0.000000,   0.000000,   0.000000 [a0]

Properties computed using the SCF density matrix

  Nuclear Dipole Moment: [e a0]
     X:    25.8236      Y:   -16.1783      Z:    -0.3984

  Electronic Dipole Moment: [e a0]
     X:   -25.4258      Y:    16.5975      Z:     0.8067

  Dipole Moment: [e a0]
     X:     0.3979      Y:     0.4192      Z:     0.4083     Total:     0.7076

  Dipole Moment: [D]
     X:     1.0113      Y:     1.0654      Z:     1.0378     Total:     1.7986


*** tstop() called on ds1.sherrill.chemistry.gatech.edu at Wed Nov 21 15:28:00 2018
Module time:
	user time   =       3.58 seconds =       0.06 minutes
	system time =       0.12 seconds =       0.00 minutes
	total time  =          1 seconds =       0.02 minutes
Total time:
	user time   =       3.58 seconds =       0.06 minutes
	system time =       0.12 seconds =       0.00 minutes
	total time  =          1 seconds =       0.02 minutes

*** tstart() called on ds1.sherrill.chemistry.gatech.edu
*** at Wed Nov 21 15:28:00 2018


         ------------------------------------------------------------
                                   SCF GRAD                          
                          Rob Parrish, Justin Turney,                
                       Andy Simmonett, and Alex Sokolov              
         ------------------------------------------------------------

  ==> Geometry <==

    Molecular point group: c1
    Full point group: C1

    Geometry (in Bohr), charge = 0, multiplicity = 1:

       Center              X                  Y                   Z               Mass       
    ------------   -----------------  -----------------  -----------------  -----------------
      Gh(O)          -2.763732240000    -1.243777060000    -0.154445660000    15.994914619570
      Gh(H)          -1.123577910000    -2.062279700000    -0.052437990000     1.007825032230
      Gh(H)          -3.807923620000    -2.087055250000     1.060904070000     1.007825032230
         O            2.469246140000    -1.754377390000    -0.170928840000    15.994914619570
         H            3.763682600000    -2.214254030000     1.008461040000     1.007825032230
         H            2.305983300000     0.070984450000    -0.039424730000     1.007825032230

  Nuclear repulsion =    9.116778471315827

  ==> Basis Set <==

  Basis Set: STO-3G
    Blend: STO-3G
    Number of shells: 10
    Number of basis function: 14
    Number of Cartesian functions: 14
    Spherical Harmonics?: true
    Max angular momentum: 1

  ==> DFJKGrad: Density-Fitted SCF Gradients <==

    Gradient:                    1
    J tasked:                  Yes
    K tasked:                  Yes
    wK tasked:                  No
    OpenMP threads:              6
    Integrals threads:           6
    Memory [MiB]:              375
    Schwarz Cutoff:          0E+00
    Fitting Condition:       1E-12

   => Auxiliary Basis Set <=

  Basis Set: (STO-3G AUX)
    Blend: DEF2-SVP-JKFIT
    Number of shells: 74
    Number of basis function: 226
    Number of Cartesian functions: 266
    Spherical Harmonics?: true
    Max angular momentum: 4


  -Total Gradient:
     Atom            X                  Y                   Z
    ------   -----------------  -----------------  -----------------
       1       -0.000474048010     0.000356870475    -0.000054664305
       2       -0.008182687331    -0.000398506348    -0.000349155249
       3       -0.000010734287    -0.000002430200     0.000000453160
       4        0.043912495497     0.018205485532     0.038748393008
       5       -0.026807598129    -0.002289077629    -0.028479646124
       6       -0.008437427737    -0.015872341831    -0.009865380491


*** tstop() called on ds1.sherrill.chemistry.gatech.edu at Wed Nov 21 15:28:01 2018
Module time:
	user time   =       2.00 seconds =       0.03 minutes
	system time =       0.09 seconds =       0.00 minutes
	total time  =          1 seconds =       0.02 minutes
Total time:
	user time   =       5.59 seconds =       0.09 minutes
	system time =       0.21 seconds =       0.00 minutes
	total time  =          2 seconds =       0.03 minutes

       N-Body: Complex Energy (fragments = (2,), basis = (1, 2):   -74.96967378055913)

       N-Body: Computing complex (2/9) with fragments (3,) in the basis of fragments (2, 3).

gradient() will perform analytic gradient computation.

*** tstart() called on ds1.sherrill.chemistry.gatech.edu
*** at Wed Nov 21 15:28:01 2018

   => Loading Basis Set <=

    Name: STO-3G
    Role: ORBITAL
    Keyword: BASIS
    atoms 1, 4     entry O          line    81 file /theoryfs2/ds/alenaizan/Gits/psi4/objdir/stage/share/psi4/basis/sto-3g.gbs 
    atoms 2-3, 5-6 entry H          line    19 file /theoryfs2/ds/alenaizan/Gits/psi4/objdir/stage/share/psi4/basis/sto-3g.gbs 


         ---------------------------------------------------------
                                   SCF
            by Justin Turney, Rob Parrish, Andy Simmonett
                             and Daniel Smith
                              RHF Reference
                        6 Threads,    500 MiB Core
         ---------------------------------------------------------

  ==> Geometry <==

    Molecular point group: c1
    Full point group: C1

    Geometry (in Bohr), charge = 0, multiplicity = 1:

       Center              X                  Y                   Z               Mass       
    ------------   -----------------  -----------------  -----------------  -----------------
      Gh(O)           2.469246140000    -1.754377390000    -0.170928840000    15.994914619570
      Gh(H)           3.763682600000    -2.214254030000     1.008461040000     1.007825032230
      Gh(H)           2.305983300000     0.070984450000    -0.039424730000     1.007825032230
         O            0.291279300000     3.008756250000     0.203085150000    15.994914619570
         H           -1.212530480000     1.958209000000     0.103033240000     1.007825032230
         H            0.100020490000     4.249581150000    -1.102220790000     1.007825032230

  Running in c1 symmetry.

  Rotational constants: A =      0.66182  B =      0.23462  C =      0.17637 [cm^-1]
  Rotational constants: A =  19840.79823  B =   7033.78531  C =   5287.47319 [MHz]
  Nuclear repulsion =    9.116312738955250

  Charge       = 0
  Multiplicity = 1
  Electrons    = 10
  Nalpha       = 5
  Nbeta        = 5

  ==> Algorithm <==

  SCF Algorithm Type is DF.
  DIIS enabled.
  MOM disabled.
  Fractional occupation disabled.
  Guess Type is SAD.
  Energy threshold   = 1.00e-08
  Density threshold  = 1.00e-08
  Integral threshold = 0.00e+00

  ==> Primary Basis <==

  Basis Set: STO-3G
    Blend: STO-3G
    Number of shells: 10
    Number of basis function: 14
    Number of Cartesian functions: 14
    Spherical Harmonics?: true
    Max angular momentum: 1

   => Loading Basis Set <=

    Name: (STO-3G AUX)
    Role: JKFIT
    Keyword: DF_BASIS_SCF
    atoms 1, 4     entry O          line   323 file /theoryfs2/ds/alenaizan/Gits/psi4/objdir/stage/share/psi4/basis/def2-svp-jkfit.gbs 
    atoms 2-3, 5-6 entry H          line    23 file /theoryfs2/ds/alenaizan/Gits/psi4/objdir/stage/share/psi4/basis/def2-svp-jkfit.gbs 

  ==> Pre-Iterations <==

   -------------------------------------------------------
    Irrep   Nso     Nmo     Nalpha   Nbeta   Ndocc  Nsocc
   -------------------------------------------------------
     A         14      14       0       0       0       0
   -------------------------------------------------------
    Total      14      14       5       5       5       0
   -------------------------------------------------------

  ==> Integral Setup <==

  DFHelper Memory: AOs need 0.000 GiB; user supplied 0.366 GiB. Using in-core AOs.

  ==> MemDFJK: Density-Fitted J/K Matrices <==

    J tasked:                   Yes
    K tasked:                   Yes
    wK tasked:                   No
    OpenMP threads:               6
    Memory [MiB]:               375
    Algorithm:                 Core
    Schwarz Cutoff:           1E-12
    Mask sparsity (%):       1.0204
    Fitting Condition:        1E-12

   => Auxiliary Basis Set <=

  Basis Set: (STO-3G AUX)
    Blend: DEF2-SVP-JKFIT
    Number of shells: 74
    Number of basis function: 226
    Number of Cartesian functions: 266
    Spherical Harmonics?: true
    Max angular momentum: 4

  Minimum eigenvalue in the overlap matrix is 3.4063509175E-01.
  Using Symmetric Orthogonalization.

  SCF Guess: Superposition of Atomic Densities via on-the-fly atomic UHF.

  ==> Iterations <==

                           Total Energy        Delta E     RMS |[F,P]|

   @DF-RHF iter   0:   -74.74352889421934   -7.47435e+01   1.05621e-01 
   @DF-RHF iter   1:   -74.94034400140657   -1.96815e-01   1.33806e-02 
   @DF-RHF iter   2:   -74.96806121703891   -2.77172e-02   3.00119e-03 DIIS
   @DF-RHF iter   3:   -74.96995360229798   -1.89239e-03   1.23984e-03 DIIS
   @DF-RHF iter   4:   -74.97043300031517   -4.79398e-04   2.10658e-04 DIIS
   @DF-RHF iter   5:   -74.97044644350503   -1.34432e-05   1.67111e-05 DIIS
   @DF-RHF iter   6:   -74.97044651379272   -7.02877e-08   4.39373e-06 DIIS
   @DF-RHF iter   7:   -74.97044651933996   -5.54724e-09   6.50449e-07 DIIS
   @DF-RHF iter   8:   -74.97044651946868   -1.28722e-10   7.51451e-08 DIIS
   @DF-RHF iter   9:   -74.97044651947031   -1.63425e-12   1.60762e-08 DIIS
   @DF-RHF iter  10:   -74.97044651947044   -1.27898e-13   2.95157e-09 DIIS
  Energy converged.


  ==> Post-Iterations <==

    Orbital Energies [Eh]
    ---------------------

    Doubly Occupied:                                                      

       1A    -20.253616     2A     -1.268924     3A     -0.620355  
       4A     -0.456120     5A     -0.395831  

    Virtual:                                                              

       6A      0.542634     7A      0.600713     8A      0.730212  
       9A      1.032079    10A      1.382152    11A      2.543244  
      12A      2.943751    13A      3.295573    14A     31.276648  

    Final Occupation by Irrep:
              A 
    DOCC [     5 ]

  @DF-RHF Final Energy:   -74.97044651947044

   => Energetics <=

    Nuclear Repulsion Energy =              9.1163127389552496
    One-Electron Energy =                -122.1838252855302756
    Two-Electron Energy =                  38.0970660271045887
    Total Energy =                        -74.9704465194704426

Computation Completed


Properties will be evaluated at   0.000000,   0.000000,   0.000000 [a0]

Properties computed using the SCF density matrix

  Nuclear Dipole Moment: [e a0]
     X:     1.2177      Y:    30.2778      Z:     0.6255

  Electronic Dipole Moment: [e a0]
     X:    -1.7657      Y:   -30.1726      Z:    -1.0613

  Dipole Moment: [e a0]
     X:    -0.5480      Y:     0.1052      Z:    -0.4358     Total:     0.7081

  Dipole Moment: [D]
     X:    -1.3929      Y:     0.2674      Z:    -1.1078     Total:     1.7997


*** tstop() called on ds1.sherrill.chemistry.gatech.edu at Wed Nov 21 15:28:02 2018
Module time:
	user time   =       4.37 seconds =       0.07 minutes
	system time =       0.13 seconds =       0.00 minutes
	total time  =          1 seconds =       0.02 minutes
Total time:
	user time   =      10.02 seconds =       0.17 minutes
	system time =       0.34 seconds =       0.01 minutes
	total time  =          3 seconds =       0.05 minutes

*** tstart() called on ds1.sherrill.chemistry.gatech.edu
*** at Wed Nov 21 15:28:02 2018


         ------------------------------------------------------------
                                   SCF GRAD                          
                          Rob Parrish, Justin Turney,                
                       Andy Simmonett, and Alex Sokolov              
         ------------------------------------------------------------

  ==> Geometry <==

    Molecular point group: c1
    Full point group: C1

    Geometry (in Bohr), charge = 0, multiplicity = 1:

       Center              X                  Y                   Z               Mass       
    ------------   -----------------  -----------------  -----------------  -----------------
      Gh(O)           2.469246140000    -1.754377390000    -0.170928840000    15.994914619570
      Gh(H)           3.763682600000    -2.214254030000     1.008461040000     1.007825032230
      Gh(H)           2.305983300000     0.070984450000    -0.039424730000     1.007825032230
         O            0.291279300000     3.008756250000     0.203085150000    15.994914619570
         H           -1.212530480000     1.958209000000     0.103033240000     1.007825032230
         H            0.100020490000     4.249581150000    -1.102220790000     1.007825032230

  Nuclear repulsion =    9.116312738955250

  ==> Basis Set <==

  Basis Set: STO-3G
    Blend: STO-3G
    Number of shells: 10
    Number of basis function: 14
    Number of Cartesian functions: 14
    Spherical Harmonics?: true
    Max angular momentum: 1

  ==> DFJKGrad: Density-Fitted SCF Gradients <==

    Gradient:                    1
    J tasked:                  Yes
    K tasked:                  Yes
    wK tasked:                  No
    OpenMP threads:              6
    Integrals threads:           6
    Memory [MiB]:              375
    Schwarz Cutoff:          0E+00
    Fitting Condition:       1E-12

   => Auxiliary Basis Set <=

  Basis Set: (STO-3G AUX)
    Blend: DEF2-SVP-JKFIT
    Number of shells: 74
    Number of basis function: 226
    Number of Cartesian functions: 266
    Spherical Harmonics?: true
    Max angular momentum: 4


  -Total Gradient:
     Atom            X                  Y                   Z
    ------   -----------------  -----------------  -----------------
       1       -0.000052245348    -0.000636936292    -0.000044342754
       2        0.000006891912    -0.000006914492     0.000001747375
       3        0.004838543681    -0.007489024118     0.000108076453
       4       -0.036218285259     0.025776859856    -0.040727245960
       5        0.017674629889     0.001815522824     0.010068606942
       6        0.013750465124    -0.019459507779     0.030593157943


*** tstop() called on ds1.sherrill.chemistry.gatech.edu at Wed Nov 21 15:28:02 2018
Module time:
	user time   =       1.99 seconds =       0.03 minutes
	system time =       0.04 seconds =       0.00 minutes
	total time  =          0 seconds =       0.00 minutes
Total time:
	user time   =      12.02 seconds =       0.20 minutes
	system time =       0.38 seconds =       0.01 minutes
	total time  =          3 seconds =       0.05 minutes

       N-Body: Complex Energy (fragments = (3,), basis = (2, 3):   -74.97044651947044)

       N-Body: Computing complex (3/9) with fragments (2,) in the basis of fragments (2, 3).

gradient() will perform analytic gradient computation.

*** tstart() called on ds1.sherrill.chemistry.gatech.edu
*** at Wed Nov 21 15:28:02 2018

   => Loading Basis Set <=

    Name: STO-3G
    Role: ORBITAL
    Keyword: BASIS
    atoms 1, 4     entry O          line    81 file /theoryfs2/ds/alenaizan/Gits/psi4/objdir/stage/share/psi4/basis/sto-3g.gbs 
    atoms 2-3, 5-6 entry H          line    19 file /theoryfs2/ds/alenaizan/Gits/psi4/objdir/stage/share/psi4/basis/sto-3g.gbs 


         ---------------------------------------------------------
                                   SCF
            by Justin Turney, Rob Parrish, Andy Simmonett
                             and Daniel Smith
                              RHF Reference
                        6 Threads,    500 MiB Core
         ---------------------------------------------------------

  ==> Geometry <==

    Molecular point group: c1
    Full point group: C1

    Geometry (in Bohr), charge = 0, multiplicity = 1:

       Center              X                  Y                   Z               Mass       
    ------------   -----------------  -----------------  -----------------  -----------------
         O            2.469246140000    -1.754377390000    -0.170928840000    15.994914619570
         H            3.763682600000    -2.214254030000     1.008461040000     1.007825032230
         H            2.305983300000     0.070984450000    -0.039424730000     1.007825032230
      Gh(O)           0.291279300000     3.008756250000     0.203085150000    15.994914619570
      Gh(H)          -1.212530480000     1.958209000000     0.103033240000     1.007825032230
      Gh(H)           0.100020490000     4.249581150000    -1.102220790000     1.007825032230

  Running in c1 symmetry.

  Rotational constants: A =      0.66182  B =      0.23462  C =      0.17637 [cm^-1]
  Rotational constants: A =  19840.79823  B =   7033.78531  C =   5287.47319 [MHz]
  Nuclear repulsion =    9.116778471315827

  Charge       = 0
  Multiplicity = 1
  Electrons    = 10
  Nalpha       = 5
  Nbeta        = 5

  ==> Algorithm <==

  SCF Algorithm Type is DF.
  DIIS enabled.
  MOM disabled.
  Fractional occupation disabled.
  Guess Type is SAD.
  Energy threshold   = 1.00e-08
  Density threshold  = 1.00e-08
  Integral threshold = 0.00e+00

  ==> Primary Basis <==

  Basis Set: STO-3G
    Blend: STO-3G
    Number of shells: 10
    Number of basis function: 14
    Number of Cartesian functions: 14
    Spherical Harmonics?: true
    Max angular momentum: 1

   => Loading Basis Set <=

    Name: (STO-3G AUX)
    Role: JKFIT
    Keyword: DF_BASIS_SCF
    atoms 1, 4     entry O          line   323 file /theoryfs2/ds/alenaizan/Gits/psi4/objdir/stage/share/psi4/basis/def2-svp-jkfit.gbs 
    atoms 2-3, 5-6 entry H          line    23 file /theoryfs2/ds/alenaizan/Gits/psi4/objdir/stage/share/psi4/basis/def2-svp-jkfit.gbs 

  ==> Pre-Iterations <==

   -------------------------------------------------------
    Irrep   Nso     Nmo     Nalpha   Nbeta   Ndocc  Nsocc
   -------------------------------------------------------
     A         14      14       0       0       0       0
   -------------------------------------------------------
    Total      14      14       5       5       5       0
   -------------------------------------------------------

  ==> Integral Setup <==

  DFHelper Memory: AOs need 0.000 GiB; user supplied 0.366 GiB. Using in-core AOs.

  ==> MemDFJK: Density-Fitted J/K Matrices <==

    J tasked:                   Yes
    K tasked:                   Yes
    wK tasked:                   No
    OpenMP threads:               6
    Memory [MiB]:               375
    Algorithm:                 Core
    Schwarz Cutoff:           1E-12
    Mask sparsity (%):       1.0204
    Fitting Condition:        1E-12

   => Auxiliary Basis Set <=

  Basis Set: (STO-3G AUX)
    Blend: DEF2-SVP-JKFIT
    Number of shells: 74
    Number of basis function: 226
    Number of Cartesian functions: 266
    Spherical Harmonics?: true
    Max angular momentum: 4

  Minimum eigenvalue in the overlap matrix is 3.4063509175E-01.
  Using Symmetric Orthogonalization.

  SCF Guess: Superposition of Atomic Densities via on-the-fly atomic UHF.

  ==> Iterations <==

                           Total Energy        Delta E     RMS |[F,P]|

   @DF-RHF iter   0:   -74.74160997531155   -7.47416e+01   1.05462e-01 
   @DF-RHF iter   1:   -74.93357126983952   -1.91961e-01   1.33661e-02 
   @DF-RHF iter   2:   -74.96163404487790   -2.80628e-02   2.73154e-03 DIIS
   @DF-RHF iter   3:   -74.96327416044468   -1.64012e-03   1.12184e-03 DIIS
   @DF-RHF iter   4:   -74.96367902954545   -4.04869e-04   1.90445e-04 DIIS
   @DF-RHF iter   5:   -74.96369025312076   -1.12236e-05   1.42101e-05 DIIS
   @DF-RHF iter   6:   -74.96369029768326   -4.45625e-08   3.13617e-06 DIIS
   @DF-RHF iter   7:   -74.96369030004431   -2.36105e-09   5.46224e-07 DIIS
   @DF-RHF iter   8:   -74.96369030013989   -9.55822e-11   1.18864e-07 DIIS
   @DF-RHF iter   9:   -74.96369030014466   -4.77485e-12   1.99559e-08 DIIS
   @DF-RHF iter  10:   -74.96369030014480   -1.42109e-13   2.12416e-09 DIIS
  Energy converged.


  ==> Post-Iterations <==

    Orbital Energies [Eh]
    ---------------------

    Doubly Occupied:                                                      

       1A    -20.242078     2A     -1.263543     3A     -0.615771  
       4A     -0.449719     5A     -0.390334  

    Virtual:                                                              

       6A      0.481395     7A      0.627839     8A      0.750826  
       9A      0.982974    10A      1.338908    11A      2.543594  
      12A      2.924260    13A      3.249478    14A     31.246200  

    Final Occupation by Irrep:
              A 
    DOCC [     5 ]

  @DF-RHF Final Energy:   -74.96369030014480

   => Energetics <=

    Nuclear Repulsion Energy =              9.1167784713158273
    One-Electron Energy =                -122.2380493997041668
    Two-Electron Energy =                  38.1575806282435295
    Total Energy =                        -74.9636903001448047

Computation Completed


Properties will be evaluated at   0.000000,   0.000000,   0.000000 [a0]

Properties computed using the SCF density matrix

  Nuclear Dipole Moment: [e a0]
     X:    25.8236      Y:   -16.1783      Z:    -0.3984

  Electronic Dipole Moment: [e a0]
     X:   -25.4713      Y:    16.5832      Z:     0.8015

  Dipole Moment: [e a0]
     X:     0.3523      Y:     0.4049      Z:     0.4031     Total:     0.6712

  Dipole Moment: [D]
     X:     0.8955      Y:     1.0291      Z:     1.0247     Total:     1.7061


*** tstop() called on ds1.sherrill.chemistry.gatech.edu at Wed Nov 21 15:28:03 2018
Module time:
	user time   =       4.13 seconds =       0.07 minutes
	system time =       0.12 seconds =       0.00 minutes
	total time  =          1 seconds =       0.02 minutes
Total time:
	user time   =      16.19 seconds =       0.27 minutes
	system time =       0.50 seconds =       0.01 minutes
	total time  =          4 seconds =       0.07 minutes

*** tstart() called on ds1.sherrill.chemistry.gatech.edu
*** at Wed Nov 21 15:28:03 2018


         ------------------------------------------------------------
                                   SCF GRAD                          
                          Rob Parrish, Justin Turney,                
                       Andy Simmonett, and Alex Sokolov              
         ------------------------------------------------------------

  ==> Geometry <==

    Molecular point group: c1
    Full point group: C1

    Geometry (in Bohr), charge = 0, multiplicity = 1:

       Center              X                  Y                   Z               Mass       
    ------------   -----------------  -----------------  -----------------  -----------------
         O            2.469246140000    -1.754377390000    -0.170928840000    15.994914619570
         H            3.763682600000    -2.214254030000     1.008461040000     1.007825032230
         H            2.305983300000     0.070984450000    -0.039424730000     1.007825032230
      Gh(O)           0.291279300000     3.008756250000     0.203085150000    15.994914619570
      Gh(H)          -1.212530480000     1.958209000000     0.103033240000     1.007825032230
      Gh(H)           0.100020490000     4.249581150000    -1.102220790000     1.007825032230

  Nuclear repulsion =    9.116778471315827

  ==> Basis Set <==

  Basis Set: STO-3G
    Blend: STO-3G
    Number of shells: 10
    Number of basis function: 14
    Number of Cartesian functions: 14
    Spherical Harmonics?: true
    Max angular momentum: 1

  ==> DFJKGrad: Density-Fitted SCF Gradients <==

    Gradient:                    1
    J tasked:                  Yes
    K tasked:                  Yes
    wK tasked:                  No
    OpenMP threads:              6
    Integrals threads:           6
    Memory [MiB]:              375
    Schwarz Cutoff:          0E+00
    Fitting Condition:       1E-12

   => Auxiliary Basis Set <=

  Basis Set: (STO-3G AUX)
    Blend: DEF2-SVP-JKFIT
    Number of shells: 74
    Number of basis function: 226
    Number of Cartesian functions: 266
    Spherical Harmonics?: true
    Max angular momentum: 4


  -Total Gradient:
     Atom            X                  Y                   Z
    ------   -----------------  -----------------  -----------------
       1        0.036406254090     0.019744759503     0.038247326351
       2       -0.028128681888    -0.003441955662    -0.027903537505
       3       -0.008020394351    -0.016649624653    -0.010301013711
       4       -0.000113824274     0.000142351917    -0.000015852719
       5       -0.000137347265     0.000198799640    -0.000026869496
       6       -0.000006006309     0.000005669255    -0.000000052921


*** tstop() called on ds1.sherrill.chemistry.gatech.edu at Wed Nov 21 15:28:03 2018
Module time:
	user time   =       1.95 seconds =       0.03 minutes
	system time =       0.08 seconds =       0.00 minutes
	total time  =          0 seconds =       0.00 minutes
Total time:
	user time   =      18.15 seconds =       0.30 minutes
	system time =       0.58 seconds =       0.01 minutes
	total time  =          4 seconds =       0.07 minutes

       N-Body: Complex Energy (fragments = (2,), basis = (2, 3):   -74.96369030014480)

       N-Body: Computing complex (4/9) with fragments (1,) in the basis of fragments (1,).

gradient() will perform analytic gradient computation.

*** tstart() called on ds1.sherrill.chemistry.gatech.edu
*** at Wed Nov 21 15:28:03 2018

   => Loading Basis Set <=

    Name: STO-3G
    Role: ORBITAL
    Keyword: BASIS
    atoms 1   entry O          line    81 file /theoryfs2/ds/alenaizan/Gits/psi4/objdir/stage/share/psi4/basis/sto-3g.gbs 
    atoms 2-3 entry H          line    19 file /theoryfs2/ds/alenaizan/Gits/psi4/objdir/stage/share/psi4/basis/sto-3g.gbs 


         ---------------------------------------------------------
                                   SCF
            by Justin Turney, Rob Parrish, Andy Simmonett
                             and Daniel Smith
                              RHF Reference
                        6 Threads,    500 MiB Core
         ---------------------------------------------------------

  ==> Geometry <==

    Molecular point group: c1
    Full point group: C1

    Geometry (in Bohr), charge = 0, multiplicity = 1:

       Center              X                  Y                   Z               Mass       
    ------------   -----------------  -----------------  -----------------  -----------------
         O           -2.763732240000    -1.243777060000    -0.154445660000    15.994914619570
         H           -1.123577910000    -2.062279700000    -0.052437990000     1.007825032230
         H           -3.807923620000    -2.087055250000     1.060904070000     1.007825032230

  Running in c1 symmetry.

  Rotational constants: A =     17.14656  B =      0.35250  C =      0.35060 [cm^-1]
  Rotational constants: A = 514040.82446  B =  10567.72688  C =  10510.70065 [MHz]
  Nuclear repulsion =    9.119928278805013

  Charge       = 0
  Multiplicity = 1
  Electrons    = 10
  Nalpha       = 5
  Nbeta        = 5

  ==> Algorithm <==

  SCF Algorithm Type is DF.
  DIIS enabled.
  MOM disabled.
  Fractional occupation disabled.
  Guess Type is SAD.
  Energy threshold   = 1.00e-08
  Density threshold  = 1.00e-08
  Integral threshold = 0.00e+00

  ==> Primary Basis <==

  Basis Set: STO-3G
    Blend: STO-3G
    Number of shells: 5
    Number of basis function: 7
    Number of Cartesian functions: 7
    Spherical Harmonics?: true
    Max angular momentum: 1

   => Loading Basis Set <=

    Name: (STO-3G AUX)
    Role: JKFIT
    Keyword: DF_BASIS_SCF
    atoms 1   entry O          line   323 file /theoryfs2/ds/alenaizan/Gits/psi4/objdir/stage/share/psi4/basis/def2-svp-jkfit.gbs 
    atoms 2-3 entry H          line    23 file /theoryfs2/ds/alenaizan/Gits/psi4/objdir/stage/share/psi4/basis/def2-svp-jkfit.gbs 

  ==> Pre-Iterations <==

   -------------------------------------------------------
    Irrep   Nso     Nmo     Nalpha   Nbeta   Ndocc  Nsocc
   -------------------------------------------------------
     A          7       7       0       0       0       0
   -------------------------------------------------------
    Total       7       7       5       5       5       0
   -------------------------------------------------------

  ==> Integral Setup <==

  DFHelper Memory: AOs need 0.000 GiB; user supplied 0.366 GiB. Using in-core AOs.

  ==> MemDFJK: Density-Fitted J/K Matrices <==

    J tasked:                   Yes
    K tasked:                   Yes
    wK tasked:                   No
    OpenMP threads:               6
    Memory [MiB]:               375
    Algorithm:                 Core
    Schwarz Cutoff:           1E-12
    Mask sparsity (%):       0.0000
    Fitting Condition:        1E-12

   => Auxiliary Basis Set <=

  Basis Set: (STO-3G AUX)
    Blend: DEF2-SVP-JKFIT
    Number of shells: 37
    Number of basis function: 113
    Number of Cartesian functions: 133
    Spherical Harmonics?: true
    Max angular momentum: 4

  Minimum eigenvalue in the overlap matrix is 3.4706319112E-01.
  Using Symmetric Orthogonalization.

  SCF Guess: Superposition of Atomic Densities via on-the-fly atomic UHF.

  ==> Iterations <==

                           Total Energy        Delta E     RMS |[F,P]|

   @DF-RHF iter   0:   -74.76943609450495   -7.47694e+01   2.11257e-01 
   @DF-RHF iter   1:   -74.92195923618434   -1.52523e-01   3.12912e-02 
   @DF-RHF iter   2:   -74.96095707653183   -3.89978e-02   6.14970e-03 DIIS
   @DF-RHF iter   3:   -74.96294367231204   -1.98660e-03   2.39782e-03 DIIS
   @DF-RHF iter   4:   -74.96338572851350   -4.42056e-04   4.51735e-04 DIIS
   @DF-RHF iter   5:   -74.96340201916745   -1.62907e-05   3.31720e-05 DIIS
   @DF-RHF iter   6:   -74.96340207974826   -6.05808e-08   7.33403e-06 DIIS
   @DF-RHF iter   7:   -74.96340208265804   -2.90977e-09   1.14193e-06 DIIS
   @DF-RHF iter   8:   -74.96340208275703   -9.89928e-11   2.20890e-07 DIIS
   @DF-RHF iter   9:   -74.96340208276095   -3.92220e-12   4.99270e-08 DIIS
   @DF-RHF iter  10:   -74.96340208276119   -2.41585e-13   3.74030e-09 DIIS
  Energy converged.


  ==> Post-Iterations <==

    Orbital Energies [Eh]
    ---------------------

    Doubly Occupied:                                                      

       1A    -20.241218     2A     -1.263189     3A     -0.615741  
       4A     -0.449250     5A     -0.389851  

    Virtual:                                                              

       6A      0.595605     7A      0.737218  

    Final Occupation by Irrep:
              A 
    DOCC [     5 ]

  @DF-RHF Final Energy:   -74.96340208276119

   => Energetics <=

    Nuclear Repulsion Energy =              9.1199282788050127
    One-Electron Energy =                -122.2481627378248277
    Two-Electron Energy =                  38.1648323762586159
    Total Energy =                        -74.9634020827611920

Computation Completed


Properties will be evaluated at   0.000000,   0.000000,   0.000000 [a0]

Properties computed using the SCF density matrix

  Nuclear Dipole Moment: [e a0]
     X:   -27.0414      Y:   -14.0996      Z:    -0.2271

  Electronic Dipole Moment: [e a0]
     X:    27.2151      Y:    13.5924      Z:     0.6324

  Dipole Moment: [e a0]
     X:     0.1737      Y:    -0.5071      Z:     0.4053     Total:     0.6720

  Dipole Moment: [D]
     X:     0.4415      Y:    -1.2890      Z:     1.0302     Total:     1.7081


*** tstop() called on ds1.sherrill.chemistry.gatech.edu at Wed Nov 21 15:28:04 2018
Module time:
	user time   =       3.04 seconds =       0.05 minutes
	system time =       0.10 seconds =       0.00 minutes
	total time  =          1 seconds =       0.02 minutes
Total time:
	user time   =      21.23 seconds =       0.35 minutes
	system time =       0.68 seconds =       0.01 minutes
	total time  =          5 seconds =       0.08 minutes

*** tstart() called on ds1.sherrill.chemistry.gatech.edu
*** at Wed Nov 21 15:28:04 2018


         ------------------------------------------------------------
                                   SCF GRAD                          
                          Rob Parrish, Justin Turney,                
                       Andy Simmonett, and Alex Sokolov              
         ------------------------------------------------------------

  ==> Geometry <==

    Molecular point group: c1
    Full point group: C1

    Geometry (in Bohr), charge = 0, multiplicity = 1:

       Center              X                  Y                   Z               Mass       
    ------------   -----------------  -----------------  -----------------  -----------------
         O           -2.763732240000    -1.243777060000    -0.154445660000    15.994914619570
         H           -1.123577910000    -2.062279700000    -0.052437990000     1.007825032230
         H           -3.807923620000    -2.087055250000     1.060904070000     1.007825032230

  Nuclear repulsion =    9.119928278805013

  ==> Basis Set <==

  Basis Set: STO-3G
    Blend: STO-3G
    Number of shells: 5
    Number of basis function: 7
    Number of Cartesian functions: 7
    Spherical Harmonics?: true
    Max angular momentum: 1

  ==> DFJKGrad: Density-Fitted SCF Gradients <==

    Gradient:                    1
    J tasked:                  Yes
    K tasked:                  Yes
    wK tasked:                  No
    OpenMP threads:              6
    Integrals threads:           6
    Memory [MiB]:              375
    Schwarz Cutoff:          0E+00
    Fitting Condition:       1E-12

   => Auxiliary Basis Set <=

  Basis Set: (STO-3G AUX)
    Blend: DEF2-SVP-JKFIT
    Number of shells: 37
    Number of basis function: 113
    Number of Cartesian functions: 133
    Spherical Harmonics?: true
    Max angular momentum: 4


  -Total Gradient:
     Atom            X                  Y                   Z
    ------   -----------------  -----------------  -----------------
       1       -0.000122129264    -0.041251919486     0.038759367146
       2       -0.010860335526     0.015908098984    -0.010517460439
       3        0.010982464790     0.025343820501    -0.028241906707


*** tstop() called on ds1.sherrill.chemistry.gatech.edu at Wed Nov 21 15:28:04 2018
Module time:
	user time   =       1.88 seconds =       0.03 minutes
	system time =       0.03 seconds =       0.00 minutes
	total time  =          0 seconds =       0.00 minutes
Total time:
	user time   =      23.12 seconds =       0.39 minutes
	system time =       0.71 seconds =       0.01 minutes
	total time  =          5 seconds =       0.08 minutes

       N-Body: Complex Energy (fragments = (1,), basis = (1,):   -74.96340208276119)

       N-Body: Computing complex (5/9) with fragments (3,) in the basis of fragments (3,).

gradient() will perform analytic gradient computation.

*** tstart() called on ds1.sherrill.chemistry.gatech.edu
*** at Wed Nov 21 15:28:04 2018

   => Loading Basis Set <=

    Name: STO-3G
    Role: ORBITAL
    Keyword: BASIS
    atoms 1   entry O          line    81 file /theoryfs2/ds/alenaizan/Gits/psi4/objdir/stage/share/psi4/basis/sto-3g.gbs 
    atoms 2-3 entry H          line    19 file /theoryfs2/ds/alenaizan/Gits/psi4/objdir/stage/share/psi4/basis/sto-3g.gbs 


         ---------------------------------------------------------
                                   SCF
            by Justin Turney, Rob Parrish, Andy Simmonett
                             and Daniel Smith
                              RHF Reference
                        6 Threads,    500 MiB Core
         ---------------------------------------------------------

  ==> Geometry <==

    Molecular point group: c1
    Full point group: C1

    Geometry (in Bohr), charge = 0, multiplicity = 1:

       Center              X                  Y                   Z               Mass       
    ------------   -----------------  -----------------  -----------------  -----------------
         O            0.291279300000     3.008756250000     0.203085150000    15.994914619570
         H           -1.212530480000     1.958209000000     0.103033240000     1.007825032230
         H            0.100020490000     4.249581150000    -1.102220790000     1.007825032230

  Running in c1 symmetry.

  Rotational constants: A =     16.29746  B =      0.35535  C =      0.35390 [cm^-1]
  Rotational constants: A = 488585.46321  B =  10652.99421  C =  10609.68719 [MHz]
  Nuclear repulsion =    9.116312738955250

  Charge       = 0
  Multiplicity = 1
  Electrons    = 10
  Nalpha       = 5
  Nbeta        = 5

  ==> Algorithm <==

  SCF Algorithm Type is DF.
  DIIS enabled.
  MOM disabled.
  Fractional occupation disabled.
  Guess Type is SAD.
  Energy threshold   = 1.00e-08
  Density threshold  = 1.00e-08
  Integral threshold = 0.00e+00

  ==> Primary Basis <==

  Basis Set: STO-3G
    Blend: STO-3G
    Number of shells: 5
    Number of basis function: 7
    Number of Cartesian functions: 7
    Spherical Harmonics?: true
    Max angular momentum: 1

   => Loading Basis Set <=

    Name: (STO-3G AUX)
    Role: JKFIT
    Keyword: DF_BASIS_SCF
    atoms 1   entry O          line   323 file /theoryfs2/ds/alenaizan/Gits/psi4/objdir/stage/share/psi4/basis/def2-svp-jkfit.gbs 
    atoms 2-3 entry H          line    23 file /theoryfs2/ds/alenaizan/Gits/psi4/objdir/stage/share/psi4/basis/def2-svp-jkfit.gbs 

  ==> Pre-Iterations <==

   -------------------------------------------------------
    Irrep   Nso     Nmo     Nalpha   Nbeta   Ndocc  Nsocc
   -------------------------------------------------------
     A          7       7       0       0       0       0
   -------------------------------------------------------
    Total       7       7       5       5       5       0
   -------------------------------------------------------

  ==> Integral Setup <==

  DFHelper Memory: AOs need 0.000 GiB; user supplied 0.366 GiB. Using in-core AOs.

  ==> MemDFJK: Density-Fitted J/K Matrices <==

    J tasked:                   Yes
    K tasked:                   Yes
    wK tasked:                   No
    OpenMP threads:               6
    Memory [MiB]:               375
    Algorithm:                 Core
    Schwarz Cutoff:           1E-12
    Mask sparsity (%):       0.0000
    Fitting Condition:        1E-12

   => Auxiliary Basis Set <=

  Basis Set: (STO-3G AUX)
    Blend: DEF2-SVP-JKFIT
    Number of shells: 37
    Number of basis function: 113
    Number of Cartesian functions: 133
    Spherical Harmonics?: true
    Max angular momentum: 4

  Minimum eigenvalue in the overlap matrix is 3.4730300753E-01.
  Using Symmetric Orthogonalization.

  SCF Guess: Superposition of Atomic Densities via on-the-fly atomic UHF.

  ==> Iterations <==

                           Total Energy        Delta E     RMS |[F,P]|

   @DF-RHF iter   0:   -74.74352657586343   -7.47435e+01   2.11015e-01 
   @DF-RHF iter   1:   -74.93232039675054   -1.88794e-01   2.72761e-02 
   @DF-RHF iter   2:   -74.96122749399743   -2.89071e-02   5.77034e-03 DIIS
   @DF-RHF iter   3:   -74.96305605978985   -1.82857e-03   2.45049e-03 DIIS
   @DF-RHF iter   4:   -74.96353267255955   -4.76613e-04   3.86874e-04 DIIS
   @DF-RHF iter   5:   -74.96354361735087   -1.09448e-05   2.68749e-05 DIIS
   @DF-RHF iter   6:   -74.96354366280747   -4.54566e-08   8.59594e-06 DIIS
   @DF-RHF iter   7:   -74.96354366801901   -5.21155e-09   7.92455e-07 DIIS
   @DF-RHF iter   8:   -74.96354366805878   -3.97620e-11   1.23739e-07 DIIS
   @DF-RHF iter   9:   -74.96354366805967   -8.95284e-13   2.69980e-08 DIIS
   @DF-RHF iter  10:   -74.96354366805973   -5.68434e-14   3.38035e-09 DIIS
  Energy converged.


  ==> Post-Iterations <==

    Orbital Energies [Eh]
    ---------------------

    Doubly Occupied:                                                      

       1A    -20.241634     2A     -1.263271     3A     -0.615118  
       4A     -0.449801     5A     -0.390021  

    Virtual:                                                              

       6A      0.595613     7A      0.735986  

    Final Occupation by Irrep:
              A 
    DOCC [     5 ]

  @DF-RHF Final Energy:   -74.96354366805973

   => Energetics <=

    Nuclear Repulsion Energy =              9.1163127389552496
    One-Electron Energy =                -122.2400220139135740
    Two-Electron Energy =                  38.1601656068986159
    Total Energy =                        -74.9635436680597138

Computation Completed


Properties will be evaluated at   0.000000,   0.000000,   0.000000 [a0]

Properties computed using the SCF density matrix

  Nuclear Dipole Moment: [e a0]
     X:     1.2177      Y:    30.2778      Z:     0.6255

  Electronic Dipole Moment: [e a0]
     X:    -1.7294      Y:   -30.2127      Z:    -1.0569

  Dipole Moment: [e a0]
     X:    -0.5117      Y:     0.0651      Z:    -0.4314     Total:     0.6724

  Dipole Moment: [D]
     X:    -1.3005      Y:     0.1654      Z:    -1.0966     Total:     1.7092


*** tstop() called on ds1.sherrill.chemistry.gatech.edu at Wed Nov 21 15:28:05 2018
Module time:
	user time   =       2.94 seconds =       0.05 minutes
	system time =       0.08 seconds =       0.00 minutes
	total time  =          1 seconds =       0.02 minutes
Total time:
	user time   =      26.10 seconds =       0.43 minutes
	system time =       0.79 seconds =       0.01 minutes
	total time  =          6 seconds =       0.10 minutes

*** tstart() called on ds1.sherrill.chemistry.gatech.edu
*** at Wed Nov 21 15:28:05 2018


         ------------------------------------------------------------
                                   SCF GRAD                          
                          Rob Parrish, Justin Turney,                
                       Andy Simmonett, and Alex Sokolov              
         ------------------------------------------------------------

  ==> Geometry <==

    Molecular point group: c1
    Full point group: C1

    Geometry (in Bohr), charge = 0, multiplicity = 1:

       Center              X                  Y                   Z               Mass       
    ------------   -----------------  -----------------  -----------------  -----------------
         O            0.291279300000     3.008756250000     0.203085150000    15.994914619570
         H           -1.212530480000     1.958209000000     0.103033240000     1.007825032230
         H            0.100020490000     4.249581150000    -1.102220790000     1.007825032230

  Nuclear repulsion =    9.116312738955250

  ==> Basis Set <==

  Basis Set: STO-3G
    Blend: STO-3G
    Number of shells: 5
    Number of basis function: 7
    Number of Cartesian functions: 7
    Spherical Harmonics?: true
    Max angular momentum: 1

  ==> DFJKGrad: Density-Fitted SCF Gradients <==

    Gradient:                    1
    J tasked:                  Yes
    K tasked:                  Yes
    wK tasked:                  No
    OpenMP threads:              6
    Integrals threads:           6
    Memory [MiB]:              375
    Schwarz Cutoff:          0E+00
    Fitting Condition:       1E-12

   => Auxiliary Basis Set <=

  Basis Set: (STO-3G AUX)
    Blend: DEF2-SVP-JKFIT
    Number of shells: 37
    Number of basis function: 113
    Number of Cartesian functions: 133
    Spherical Harmonics?: true
    Max angular momentum: 4


  -Total Gradient:
     Atom            X                  Y                   Z
    ------   -----------------  -----------------  -----------------
       1       -0.033220038991     0.017641239646    -0.040625895880
       2        0.017926294673     0.002460556654     0.010655977966
       3        0.015293744318    -0.020101796301     0.029969917914


*** tstop() called on ds1.sherrill.chemistry.gatech.edu at Wed Nov 21 15:28:05 2018
Module time:
	user time   =       1.89 seconds =       0.03 minutes
	system time =       0.07 seconds =       0.00 minutes
	total time  =          0 seconds =       0.00 minutes
Total time:
	user time   =      27.99 seconds =       0.47 minutes
	system time =       0.86 seconds =       0.01 minutes
	total time  =          6 seconds =       0.10 minutes

       N-Body: Complex Energy (fragments = (3,), basis = (3,):   -74.96354366805973)

       N-Body: Computing complex (6/9) with fragments (1,) in the basis of fragments (1, 2).

gradient() will perform analytic gradient computation.

*** tstart() called on ds1.sherrill.chemistry.gatech.edu
*** at Wed Nov 21 15:28:05 2018

   => Loading Basis Set <=

    Name: STO-3G
    Role: ORBITAL
    Keyword: BASIS
    atoms 1, 4     entry O          line    81 file /theoryfs2/ds/alenaizan/Gits/psi4/objdir/stage/share/psi4/basis/sto-3g.gbs 
    atoms 2-3, 5-6 entry H          line    19 file /theoryfs2/ds/alenaizan/Gits/psi4/objdir/stage/share/psi4/basis/sto-3g.gbs 


         ---------------------------------------------------------
                                   SCF
            by Justin Turney, Rob Parrish, Andy Simmonett
                             and Daniel Smith
                              RHF Reference
                        6 Threads,    500 MiB Core
         ---------------------------------------------------------

  ==> Geometry <==

    Molecular point group: c1
    Full point group: C1

    Geometry (in Bohr), charge = 0, multiplicity = 1:

       Center              X                  Y                   Z               Mass       
    ------------   -----------------  -----------------  -----------------  -----------------
         O           -2.763732240000    -1.243777060000    -0.154445660000    15.994914619570
         H           -1.123577910000    -2.062279700000    -0.052437990000     1.007825032230
         H           -3.807923620000    -2.087055250000     1.060904070000     1.007825032230
      Gh(O)           2.469246140000    -1.754377390000    -0.170928840000    15.994914619570
      Gh(H)           3.763682600000    -2.214254030000     1.008461040000     1.007825032230
      Gh(H)           2.305983300000     0.070984450000    -0.039424730000     1.007825032230

  Running in c1 symmetry.

  Rotational constants: A =      0.67094  B =      0.23246  C =      0.17553 [cm^-1]
  Rotational constants: A =  20114.15437  B =   6968.93165  C =   5262.27541 [MHz]
  Nuclear repulsion =    9.119928278805013

  Charge       = 0
  Multiplicity = 1
  Electrons    = 10
  Nalpha       = 5
  Nbeta        = 5

  ==> Algorithm <==

  SCF Algorithm Type is DF.
  DIIS enabled.
  MOM disabled.
  Fractional occupation disabled.
  Guess Type is SAD.
  Energy threshold   = 1.00e-08
  Density threshold  = 1.00e-08
  Integral threshold = 0.00e+00

  ==> Primary Basis <==

  Basis Set: STO-3G
    Blend: STO-3G
    Number of shells: 10
    Number of basis function: 14
    Number of Cartesian functions: 14
    Spherical Harmonics?: true
    Max angular momentum: 1

   => Loading Basis Set <=

    Name: (STO-3G AUX)
    Role: JKFIT
    Keyword: DF_BASIS_SCF
    atoms 1, 4     entry O          line   323 file /theoryfs2/ds/alenaizan/Gits/psi4/objdir/stage/share/psi4/basis/def2-svp-jkfit.gbs 
    atoms 2-3, 5-6 entry H          line    23 file /theoryfs2/ds/alenaizan/Gits/psi4/objdir/stage/share/psi4/basis/def2-svp-jkfit.gbs 

  ==> Pre-Iterations <==

   -------------------------------------------------------
    Irrep   Nso     Nmo     Nalpha   Nbeta   Ndocc  Nsocc
   -------------------------------------------------------
     A         14      14       0       0       0       0
   -------------------------------------------------------
    Total      14      14       5       5       5       0
   -------------------------------------------------------

  ==> Integral Setup <==

  DFHelper Memory: AOs need 0.000 GiB; user supplied 0.366 GiB. Using in-core AOs.

  ==> MemDFJK: Density-Fitted J/K Matrices <==

    J tasked:                   Yes
    K tasked:                   Yes
    wK tasked:                   No
    OpenMP threads:               6
    Memory [MiB]:               375
    Algorithm:                 Core
    Schwarz Cutoff:           1E-12
    Mask sparsity (%):       1.0204
    Fitting Condition:        1E-12

   => Auxiliary Basis Set <=

  Basis Set: (STO-3G AUX)
    Blend: DEF2-SVP-JKFIT
    Number of shells: 74
    Number of basis function: 226
    Number of Cartesian functions: 266
    Spherical Harmonics?: true
    Max angular momentum: 4

  Minimum eigenvalue in the overlap matrix is 3.4074143904E-01.
  Using Symmetric Orthogonalization.

  SCF Guess: Superposition of Atomic Densities via on-the-fly atomic UHF.

  ==> Iterations <==

                           Total Energy        Delta E     RMS |[F,P]|

   @DF-RHF iter   0:   -74.76943367135269   -7.47694e+01   1.05681e-01 
   @DF-RHF iter   1:   -74.92228443882814   -1.52851e-01   1.56507e-02 
   @DF-RHF iter   2:   -74.96117765967773   -3.88932e-02   3.08367e-03 DIIS
   @DF-RHF iter   3:   -74.96317501082851   -1.99735e-03   1.20051e-03 DIIS
   @DF-RHF iter   4:   -74.96361828458663   -4.43274e-04   2.27608e-04 DIIS
   @DF-RHF iter   5:   -74.96363484317585   -1.65586e-05   1.77349e-05 DIIS
   @DF-RHF iter   6:   -74.96363491688736   -7.37115e-08   3.74673e-06 DIIS
   @DF-RHF iter   7:   -74.96363492007180   -3.18444e-09   6.27128e-07 DIIS
   @DF-RHF iter   8:   -74.96363492018845   -1.16657e-10   1.40451e-07 DIIS
   @DF-RHF iter   9:   -74.96363492019515   -6.69331e-12   2.65513e-08 DIIS
   @DF-RHF iter  10:   -74.96363492019536   -2.13163e-13   2.60853e-09 DIIS
  Energy converged.


  ==> Post-Iterations <==

    Orbital Energies [Eh]
    ---------------------

    Doubly Occupied:                                                      

       1A    -20.241897     2A     -1.263611     3A     -0.616031  
       4A     -0.449599     5A     -0.390275  

    Virtual:                                                              

       6A      0.484466     7A      0.625392     8A      0.748942  
       9A      0.983137    10A      1.341459    11A      2.536572  
      12A      2.926706    13A      3.252920    14A     31.247277  

    Final Occupation by Irrep:
              A 
    DOCC [     5 ]

  @DF-RHF Final Energy:   -74.96363492019536

   => Energetics <=

    Nuclear Repulsion Energy =              9.1199282788050127
    One-Electron Energy =                -122.2443024892173042
    Two-Electron Energy =                  38.1607392902169380
    Total Energy =                        -74.9636349201953607

Computation Completed


Properties will be evaluated at   0.000000,   0.000000,   0.000000 [a0]

Properties computed using the SCF density matrix

  Nuclear Dipole Moment: [e a0]
     X:   -27.0414      Y:   -14.0996      Z:    -0.2271

  Electronic Dipole Moment: [e a0]
     X:    27.2105      Y:    13.5920      Z:     0.6327

  Dipole Moment: [e a0]
     X:     0.1692      Y:    -0.5076      Z:     0.4056     Total:     0.6714

  Dipole Moment: [D]
     X:     0.4300      Y:    -1.2902      Z:     1.0310     Total:     1.7066


*** tstop() called on ds1.sherrill.chemistry.gatech.edu at Wed Nov 21 15:28:06 2018
Module time:
	user time   =       4.13 seconds =       0.07 minutes
	system time =       0.12 seconds =       0.00 minutes
	total time  =          1 seconds =       0.02 minutes
Total time:
	user time   =      32.16 seconds =       0.54 minutes
	system time =       0.98 seconds =       0.02 minutes
	total time  =          7 seconds =       0.12 minutes

*** tstart() called on ds1.sherrill.chemistry.gatech.edu
*** at Wed Nov 21 15:28:06 2018


         ------------------------------------------------------------
                                   SCF GRAD                          
                          Rob Parrish, Justin Turney,                
                       Andy Simmonett, and Alex Sokolov              
         ------------------------------------------------------------

  ==> Geometry <==

    Molecular point group: c1
    Full point group: C1

    Geometry (in Bohr), charge = 0, multiplicity = 1:

       Center              X                  Y                   Z               Mass       
    ------------   -----------------  -----------------  -----------------  -----------------
         O           -2.763732240000    -1.243777060000    -0.154445660000    15.994914619570
         H           -1.123577910000    -2.062279700000    -0.052437990000     1.007825032230
         H           -3.807923620000    -2.087055250000     1.060904070000     1.007825032230
      Gh(O)           2.469246140000    -1.754377390000    -0.170928840000    15.994914619570
      Gh(H)           3.763682600000    -2.214254030000     1.008461040000     1.007825032230
      Gh(H)           2.305983300000     0.070984450000    -0.039424730000     1.007825032230

  Nuclear repulsion =    9.119928278805013

  ==> Basis Set <==

  Basis Set: STO-3G
    Blend: STO-3G
    Number of shells: 10
    Number of basis function: 14
    Number of Cartesian functions: 14
    Spherical Harmonics?: true
    Max angular momentum: 1

  ==> DFJKGrad: Density-Fitted SCF Gradients <==

    Gradient:                    1
    J tasked:                  Yes
    K tasked:                  Yes
    wK tasked:                  No
    OpenMP threads:              6
    Integrals threads:           6
    Memory [MiB]:              375
    Schwarz Cutoff:          0E+00
    Fitting Condition:       1E-12

   => Auxiliary Basis Set <=

  Basis Set: (STO-3G AUX)
    Blend: DEF2-SVP-JKFIT
    Number of shells: 74
    Number of basis function: 226
    Number of Cartesian functions: 266
    Spherical Harmonics?: true
    Max angular momentum: 4


  -Total Gradient:
     Atom            X                  Y                   Z
    ------   -----------------  -----------------  -----------------
       1       -0.000367307020    -0.041380727347     0.038864937659
       2       -0.011036959767     0.015989414223    -0.010413405895
       3        0.010989555167     0.025344375150    -0.028393768121
       4        0.000153489584     0.000023965820    -0.000023232228
       5        0.000011565973     0.000001759262    -0.000001621727
       6        0.000249656061     0.000021212890    -0.000032909689


*** tstop() called on ds1.sherrill.chemistry.gatech.edu at Wed Nov 21 15:28:06 2018
Module time:
	user time   =       2.02 seconds =       0.03 minutes
	system time =       0.04 seconds =       0.00 minutes
	total time  =          0 seconds =       0.00 minutes
Total time:
	user time   =      34.19 seconds =       0.57 minutes
	system time =       1.02 seconds =       0.02 minutes
	total time  =          7 seconds =       0.12 minutes

       N-Body: Complex Energy (fragments = (1,), basis = (1, 2):   -74.96363492019536)

       N-Body: Computing complex (7/9) with fragments (2,) in the basis of fragments (2,).

gradient() will perform analytic gradient computation.

*** tstart() called on ds1.sherrill.chemistry.gatech.edu
*** at Wed Nov 21 15:28:06 2018

   => Loading Basis Set <=

    Name: STO-3G
    Role: ORBITAL
    Keyword: BASIS
    atoms 1   entry O          line    81 file /theoryfs2/ds/alenaizan/Gits/psi4/objdir/stage/share/psi4/basis/sto-3g.gbs 
    atoms 2-3 entry H          line    19 file /theoryfs2/ds/alenaizan/Gits/psi4/objdir/stage/share/psi4/basis/sto-3g.gbs 


         ---------------------------------------------------------
                                   SCF
            by Justin Turney, Rob Parrish, Andy Simmonett
                             and Daniel Smith
                              RHF Reference
                        6 Threads,    500 MiB Core
         ---------------------------------------------------------

  ==> Geometry <==

    Molecular point group: c1
    Full point group: C1

    Geometry (in Bohr), charge = 0, multiplicity = 1:

       Center              X                  Y                   Z               Mass       
    ------------   -----------------  -----------------  -----------------  -----------------
         O            2.469246140000    -1.754377390000    -0.170928840000    15.994914619570
         H            3.763682600000    -2.214254030000     1.008461040000     1.007825032230
         H            2.305983300000     0.070984450000    -0.039424730000     1.007825032230

  Running in c1 symmetry.

  Rotational constants: A =     17.73733  B =      0.35284  C =      0.35071 [cm^-1]
  Rotational constants: A = 531751.83709  B =  10577.84786  C =  10514.12905 [MHz]
  Nuclear repulsion =    9.116778471315827

  Charge       = 0
  Multiplicity = 1
  Electrons    = 10
  Nalpha       = 5
  Nbeta        = 5

  ==> Algorithm <==

  SCF Algorithm Type is DF.
  DIIS enabled.
  MOM disabled.
  Fractional occupation disabled.
  Guess Type is SAD.
  Energy threshold   = 1.00e-08
  Density threshold  = 1.00e-08
  Integral threshold = 0.00e+00

  ==> Primary Basis <==

  Basis Set: STO-3G
    Blend: STO-3G
    Number of shells: 5
    Number of basis function: 7
    Number of Cartesian functions: 7
    Spherical Harmonics?: true
    Max angular momentum: 1

   => Loading Basis Set <=

    Name: (STO-3G AUX)
    Role: JKFIT
    Keyword: DF_BASIS_SCF
    atoms 1   entry O          line   323 file /theoryfs2/ds/alenaizan/Gits/psi4/objdir/stage/share/psi4/basis/def2-svp-jkfit.gbs 
    atoms 2-3 entry H          line    23 file /theoryfs2/ds/alenaizan/Gits/psi4/objdir/stage/share/psi4/basis/def2-svp-jkfit.gbs 

  ==> Pre-Iterations <==

   -------------------------------------------------------
    Irrep   Nso     Nmo     Nalpha   Nbeta   Ndocc  Nsocc
   -------------------------------------------------------
     A          7       7       0       0       0       0
   -------------------------------------------------------
    Total       7       7       5       5       5       0
   -------------------------------------------------------

  ==> Integral Setup <==

  DFHelper Memory: AOs need 0.000 GiB; user supplied 0.366 GiB. Using in-core AOs.

  ==> MemDFJK: Density-Fitted J/K Matrices <==

    J tasked:                   Yes
    K tasked:                   Yes
    wK tasked:                   No
    OpenMP threads:               6
    Memory [MiB]:               375
    Algorithm:                 Core
    Schwarz Cutoff:           1E-12
    Mask sparsity (%):       0.0000
    Fitting Condition:        1E-12

   => Auxiliary Basis Set <=

  Basis Set: (STO-3G AUX)
    Blend: DEF2-SVP-JKFIT
    Number of shells: 37
    Number of basis function: 113
    Number of Cartesian functions: 133
    Spherical Harmonics?: true
    Max angular momentum: 4

  Minimum eigenvalue in the overlap matrix is 3.4724660626E-01.
  Using Symmetric Orthogonalization.

  SCF Guess: Superposition of Atomic Densities via on-the-fly atomic UHF.

  ==> Iterations <==

                           Total Energy        Delta E     RMS |[F,P]|

   @DF-RHF iter   0:   -74.74161284995675   -7.47416e+01   2.10812e-01 
   @DF-RHF iter   1:   -74.93326619470071   -1.91653e-01   2.67089e-02 
   @DF-RHF iter   2:   -74.96140227456021   -2.81361e-02   5.44371e-03 DIIS
   @DF-RHF iter   3:   -74.96303335072638   -1.63108e-03   2.23919e-03 DIIS
   @DF-RHF iter   4:   -74.96343674336080   -4.03393e-04   3.77861e-04 DIIS
   @DF-RHF iter   5:   -74.96344775247958   -1.10091e-05   2.69115e-05 DIIS
   @DF-RHF iter   6:   -74.96344779067311   -3.81935e-08   6.09415e-06 DIIS
   @DF-RHF iter   7:   -74.96344779286579   -2.19268e-09   1.00883e-06 DIIS
   @DF-RHF iter   8:   -74.96344779294736   -8.15703e-11   1.76519e-07 DIIS
   @DF-RHF iter   9:   -74.96344779294982   -2.45848e-12   3.71973e-08 DIIS
   @DF-RHF iter  10:   -74.96344779294991   -8.52651e-14   3.15322e-09 DIIS
  Energy converged.


  ==> Post-Iterations <==

    Orbital Energies [Eh]
    ---------------------

    Doubly Occupied:                                                      

       1A    -20.241351     2A     -1.263093     3A     -0.615459  
       4A     -0.449355     5A     -0.389879  

    Virtual:                                                              

       6A      0.595326     7A      0.736674  

    Final Occupation by Irrep:
              A 
    DOCC [     5 ]

  @DF-RHF Final Energy:   -74.96344779294991

   => Energetics <=

    Nuclear Repulsion Energy =              9.1167784713158273
    One-Electron Energy =                -122.2421812098717737
    Two-Electron Energy =                  38.1619549456060412
    Total Energy =                        -74.9634477929499070

Computation Completed


Properties will be evaluated at   0.000000,   0.000000,   0.000000 [a0]

Properties computed using the SCF density matrix

  Nuclear Dipole Moment: [e a0]
     X:    25.8236      Y:   -16.1783      Z:    -0.3984

  Electronic Dipole Moment: [e a0]
     X:   -25.4742      Y:    16.5871      Z:     0.8013

  Dipole Moment: [e a0]
     X:     0.3495      Y:     0.4088      Z:     0.4029     Total:     0.6720

  Dipole Moment: [D]
     X:     0.8883      Y:     1.0391      Z:     1.0241     Total:     1.7081


*** tstop() called on ds1.sherrill.chemistry.gatech.edu at Wed Nov 21 15:28:07 2018
Module time:
	user time   =       2.94 seconds =       0.05 minutes
	system time =       0.09 seconds =       0.00 minutes
	total time  =          1 seconds =       0.02 minutes
Total time:
	user time   =      37.17 seconds =       0.62 minutes
	system time =       1.11 seconds =       0.02 minutes
	total time  =          8 seconds =       0.13 minutes

*** tstart() called on ds1.sherrill.chemistry.gatech.edu
*** at Wed Nov 21 15:28:07 2018


         ------------------------------------------------------------
                                   SCF GRAD                          
                          Rob Parrish, Justin Turney,                
                       Andy Simmonett, and Alex Sokolov              
         ------------------------------------------------------------

  ==> Geometry <==

    Molecular point group: c1
    Full point group: C1

    Geometry (in Bohr), charge = 0, multiplicity = 1:

       Center              X                  Y                   Z               Mass       
    ------------   -----------------  -----------------  -----------------  -----------------
         O            2.469246140000    -1.754377390000    -0.170928840000    15.994914619570
         H            3.763682600000    -2.214254030000     1.008461040000     1.007825032230
         H            2.305983300000     0.070984450000    -0.039424730000     1.007825032230

  Nuclear repulsion =    9.116778471315827

  ==> Basis Set <==

  Basis Set: STO-3G
    Blend: STO-3G
    Number of shells: 5
    Number of basis function: 7
    Number of Cartesian functions: 7
    Spherical Harmonics?: true
    Max angular momentum: 1

  ==> DFJKGrad: Density-Fitted SCF Gradients <==

    Gradient:                    1
    J tasked:                  Yes
    K tasked:                  Yes
    wK tasked:                  No
    OpenMP threads:              6
    Integrals threads:           6
    Memory [MiB]:              375
    Schwarz Cutoff:          0E+00
    Fitting Condition:       1E-12

   => Auxiliary Basis Set <=

  Basis Set: (STO-3G AUX)
    Blend: DEF2-SVP-JKFIT
    Number of shells: 37
    Number of basis function: 113
    Number of Cartesian functions: 133
    Spherical Harmonics?: true
    Max angular momentum: 4


  -Total Gradient:
     Atom            X                  Y                   Z
    ------   -----------------  -----------------  -----------------
       1        0.036178304080     0.019888939144     0.038154885551
       2       -0.028116868156    -0.003451926847    -0.027749301437
       3       -0.008061435921    -0.016437012297    -0.010405584114


*** tstop() called on ds1.sherrill.chemistry.gatech.edu at Wed Nov 21 15:28:07 2018
Module time:
	user time   =       1.89 seconds =       0.03 minutes
	system time =       0.05 seconds =       0.00 minutes
	total time  =          0 seconds =       0.00 minutes
Total time:
	user time   =      39.07 seconds =       0.65 minutes
	system time =       1.16 seconds =       0.02 minutes
	total time  =          8 seconds =       0.13 minutes

       N-Body: Complex Energy (fragments = (2,), basis = (2,):   -74.96344779294991)

       N-Body: Computing complex (8/9) with fragments (1,) in the basis of fragments (1, 3).

gradient() will perform analytic gradient computation.

*** tstart() called on ds1.sherrill.chemistry.gatech.edu
*** at Wed Nov 21 15:28:07 2018

   => Loading Basis Set <=

    Name: STO-3G
    Role: ORBITAL
    Keyword: BASIS
    atoms 1, 4     entry O          line    81 file /theoryfs2/ds/alenaizan/Gits/psi4/objdir/stage/share/psi4/basis/sto-3g.gbs 
    atoms 2-3, 5-6 entry H          line    19 file /theoryfs2/ds/alenaizan/Gits/psi4/objdir/stage/share/psi4/basis/sto-3g.gbs 


         ---------------------------------------------------------
                                   SCF
            by Justin Turney, Rob Parrish, Andy Simmonett
                             and Daniel Smith
                              RHF Reference
                        6 Threads,    500 MiB Core
         ---------------------------------------------------------

  ==> Geometry <==

    Molecular point group: c1
    Full point group: C1

    Geometry (in Bohr), charge = 0, multiplicity = 1:

       Center              X                  Y                   Z               Mass       
    ------------   -----------------  -----------------  -----------------  -----------------
         O           -2.763732240000    -1.243777060000    -0.154445660000    15.994914619570
         H           -1.123577910000    -2.062279700000    -0.052437990000     1.007825032230
         H           -3.807923620000    -2.087055250000     1.060904070000     1.007825032230
      Gh(O)           0.291279300000     3.008756250000     0.203085150000    15.994914619570
      Gh(H)          -1.212530480000     1.958209000000     0.103033240000     1.007825032230
      Gh(H)           0.100020490000     4.249581150000    -1.102220790000     1.007825032230

  Running in c1 symmetry.

  Rotational constants: A =      0.66207  B =      0.23435  C =      0.17633 [cm^-1]
  Rotational constants: A =  19848.38696  B =   7025.55974  C =   5286.37823 [MHz]
  Nuclear repulsion =    9.119928278805013

  Charge       = 0
  Multiplicity = 1
  Electrons    = 10
  Nalpha       = 5
  Nbeta        = 5

  ==> Algorithm <==

  SCF Algorithm Type is DF.
  DIIS enabled.
  MOM disabled.
  Fractional occupation disabled.
  Guess Type is SAD.
  Energy threshold   = 1.00e-08
  Density threshold  = 1.00e-08
  Integral threshold = 0.00e+00

  ==> Primary Basis <==

  Basis Set: STO-3G
    Blend: STO-3G
    Number of shells: 10
    Number of basis function: 14
    Number of Cartesian functions: 14
    Spherical Harmonics?: true
    Max angular momentum: 1

   => Loading Basis Set <=

    Name: (STO-3G AUX)
    Role: JKFIT
    Keyword: DF_BASIS_SCF
    atoms 1, 4     entry O          line   323 file /theoryfs2/ds/alenaizan/Gits/psi4/objdir/stage/share/psi4/basis/def2-svp-jkfit.gbs 
    atoms 2-3, 5-6 entry H          line    23 file /theoryfs2/ds/alenaizan/Gits/psi4/objdir/stage/share/psi4/basis/def2-svp-jkfit.gbs 

  ==> Pre-Iterations <==

   -------------------------------------------------------
    Irrep   Nso     Nmo     Nalpha   Nbeta   Ndocc  Nsocc
   -------------------------------------------------------
     A         14      14       0       0       0       0
   -------------------------------------------------------
    Total      14      14       5       5       5       0
   -------------------------------------------------------

  ==> Integral Setup <==

  DFHelper Memory: AOs need 0.000 GiB; user supplied 0.366 GiB. Using in-core AOs.

  ==> MemDFJK: Density-Fitted J/K Matrices <==

    J tasked:                   Yes
    K tasked:                   Yes
    wK tasked:                   No
    OpenMP threads:               6
    Memory [MiB]:               375
    Algorithm:                 Core
    Schwarz Cutoff:           1E-12
    Mask sparsity (%):       1.0204
    Fitting Condition:        1E-12

   => Auxiliary Basis Set <=

  Basis Set: (STO-3G AUX)
    Blend: DEF2-SVP-JKFIT
    Number of shells: 74
    Number of basis function: 226
    Number of Cartesian functions: 266
    Spherical Harmonics?: true
    Max angular momentum: 4

  Minimum eigenvalue in the overlap matrix is 3.4069553340E-01.
  Using Symmetric Orthogonalization.

  SCF Guess: Superposition of Atomic Densities via on-the-fly atomic UHF.

  ==> Iterations <==

                           Total Energy        Delta E     RMS |[F,P]|

   @DF-RHF iter   0:   -74.76943857969194   -7.47694e+01   1.05725e-01 
   @DF-RHF iter   1:   -74.93026642084740   -1.60828e-01   1.53323e-02 
   @DF-RHF iter   2:   -74.96765443765639   -3.73880e-02   3.23235e-03 DIIS
   @DF-RHF iter   3:   -74.96974636220293   -2.09192e-03   1.21236e-03 DIIS
   @DF-RHF iter   4:   -74.97018769272995   -4.41331e-04   2.42147e-04 DIIS
   @DF-RHF iter   5:   -74.97020678172878   -1.90890e-05   2.20538e-05 DIIS
   @DF-RHF iter   6:   -74.97020690646282   -1.24734e-07   3.79356e-06 DIIS
   @DF-RHF iter   7:   -74.97020690983449   -3.37167e-09   6.87385e-07 DIIS
   @DF-RHF iter   8:   -74.97020690997347   -1.38982e-10   1.41681e-07 DIIS
   @DF-RHF iter   9:   -74.97020690998002   -6.55120e-12   2.77170e-08 DIIS
   @DF-RHF iter  10:   -74.97020690998035   -3.26850e-13   3.34809e-09 DIIS
  Energy converged.


  ==> Post-Iterations <==

    Orbital Energies [Eh]
    ---------------------

    Doubly Occupied:                                                      

       1A    -20.253036     2A     -1.268744     3A     -0.620905  
       4A     -0.455489     5A     -0.395609  

[...]
       3        0.010982464826     0.025343820533    -0.028241906752


*** tstop() called on ds1.sherrill.chemistry.gatech.edu at Wed Nov 21 15:28:24 2018
Module time:
	user time   =       1.84 seconds =       0.03 minutes
	system time =       0.08 seconds =       0.00 minutes
	total time  =          0 seconds =       0.00 minutes
Total time:
	user time   =     124.74 seconds =       2.08 minutes
	system time =       3.51 seconds =       0.06 minutes
	total time  =         25 seconds =       0.42 minutes
	Energy of ((1,), (1,))............................................PASSED
	Gradient of ((1,), (1,))..........................................PASSED
gradient() will perform analytic gradient computation.

*** tstart() called on ds1.sherrill.chemistry.gatech.edu
*** at Wed Nov 21 15:28:24 2018

   => Loading Basis Set <=

    Name: STO-3G
    Role: ORBITAL
    Keyword: BASIS
    atoms 1   entry O          line    81 file /theoryfs2/ds/alenaizan/Gits/psi4/objdir/stage/share/psi4/basis/sto-3g.gbs 
    atoms 2-3 entry H          line    19 file /theoryfs2/ds/alenaizan/Gits/psi4/objdir/stage/share/psi4/basis/sto-3g.gbs 


         ---------------------------------------------------------
                                   SCF
            by Justin Turney, Rob Parrish, Andy Simmonett
                             and Daniel Smith
                              RHF Reference
                        6 Threads,    500 MiB Core
         ---------------------------------------------------------

  ==> Geometry <==

    Molecular point group: c1
    Full point group: C1

    Geometry (in Bohr), charge = 0, multiplicity = 1:

       Center              X                  Y                   Z               Mass       
    ------------   -----------------  -----------------  -----------------  -----------------
         O            2.469246140000    -1.754377390000    -0.170928840000    15.994914619570
         H            3.763682600000    -2.214254030000     1.008461040000     1.007825032230
         H            2.305983300000     0.070984450000    -0.039424730000     1.007825032230

  Running in c1 symmetry.

  Rotational constants: A =     17.73733  B =      0.35284  C =      0.35071 [cm^-1]
  Rotational constants: A = 531751.83709  B =  10577.84786  C =  10514.12905 [MHz]
  Nuclear repulsion =    9.116778471315827

  Charge       = 0
  Multiplicity = 1
  Electrons    = 10
  Nalpha       = 5
  Nbeta        = 5

  ==> Algorithm <==

  SCF Algorithm Type is DF.
  DIIS enabled.
  MOM disabled.
  Fractional occupation disabled.
  Guess Type is SAD.
  Energy threshold   = 1.00e-08
  Density threshold  = 1.00e-08
  Integral threshold = 0.00e+00

  ==> Primary Basis <==

  Basis Set: STO-3G
    Blend: STO-3G
    Number of shells: 5
    Number of basis function: 7
    Number of Cartesian functions: 7
    Spherical Harmonics?: true
    Max angular momentum: 1

   => Loading Basis Set <=

    Name: (STO-3G AUX)
    Role: JKFIT
    Keyword: DF_BASIS_SCF
    atoms 1   entry O          line   323 file /theoryfs2/ds/alenaizan/Gits/psi4/objdir/stage/share/psi4/basis/def2-svp-jkfit.gbs 
    atoms 2-3 entry H          line    23 file /theoryfs2/ds/alenaizan/Gits/psi4/objdir/stage/share/psi4/basis/def2-svp-jkfit.gbs 

  ==> Pre-Iterations <==

   -------------------------------------------------------
    Irrep   Nso     Nmo     Nalpha   Nbeta   Ndocc  Nsocc
   -------------------------------------------------------
     A          7       7       0       0       0       0
   -------------------------------------------------------
    Total       7       7       5       5       5       0
   -------------------------------------------------------

  ==> Integral Setup <==

  DFHelper Memory: AOs need 0.000 GiB; user supplied 0.366 GiB. Using in-core AOs.

  ==> MemDFJK: Density-Fitted J/K Matrices <==

    J tasked:                   Yes
    K tasked:                   Yes
    wK tasked:                   No
    OpenMP threads:               6
    Memory [MiB]:               375
    Algorithm:                 Core
    Schwarz Cutoff:           1E-12
    Mask sparsity (%):       0.0000
    Fitting Condition:        1E-12

   => Auxiliary Basis Set <=

  Basis Set: (STO-3G AUX)
    Blend: DEF2-SVP-JKFIT
    Number of shells: 37
    Number of basis function: 113
    Number of Cartesian functions: 133
    Spherical Harmonics?: true
    Max angular momentum: 4

  Minimum eigenvalue in the overlap matrix is 3.4724660626E-01.
  Using Symmetric Orthogonalization.

  SCF Guess: Superposition of Atomic Densities via on-the-fly atomic UHF.

  ==> Iterations <==

                           Total Energy        Delta E     RMS |[F,P]|

   @DF-RHF iter   0:   -74.74161284995678   -7.47416e+01   2.10812e-01 
   @DF-RHF iter   1:   -74.93326619470071   -1.91653e-01   2.67089e-02 
   @DF-RHF iter   2:   -74.96140227456027   -2.81361e-02   5.44371e-03 DIIS
   @DF-RHF iter   3:   -74.96303335072643   -1.63108e-03   2.23919e-03 DIIS
   @DF-RHF iter   4:   -74.96343674336079   -4.03393e-04   3.77861e-04 DIIS
   @DF-RHF iter   5:   -74.96344775247958   -1.10091e-05   2.69115e-05 DIIS
   @DF-RHF iter   6:   -74.96344779067310   -3.81935e-08   6.09415e-06 DIIS
   @DF-RHF iter   7:   -74.96344779286582   -2.19272e-09   1.00883e-06 DIIS
   @DF-RHF iter   8:   -74.96344779294735   -8.15277e-11   1.76519e-07 DIIS
   @DF-RHF iter   9:   -74.96344779294979   -2.44427e-12   3.71973e-08 DIIS
   @DF-RHF iter  10:   -74.96344779294995   -1.56319e-13   3.15321e-09 DIIS
  Energy converged.


  ==> Post-Iterations <==

    Orbital Energies [Eh]
    ---------------------

    Doubly Occupied:                                                      

       1A    -20.241351     2A     -1.263093     3A     -0.615459  
       4A     -0.449355     5A     -0.389879  

    Virtual:                                                              

       6A      0.595326     7A      0.736674  

    Final Occupation by Irrep:
              A 
    DOCC [     5 ]

  @DF-RHF Final Energy:   -74.96344779294995

   => Energetics <=

    Nuclear Repulsion Energy =              9.1167784713158273
    One-Electron Energy =                -122.2421812098718874
    Two-Electron Energy =                  38.1619549456061122
    Total Energy =                        -74.9634477929499496

Computation Completed


Properties will be evaluated at   0.000000,   0.000000,   0.000000 [a0]

Properties computed using the SCF density matrix

  Nuclear Dipole Moment: [e a0]
     X:    25.8236      Y:   -16.1783      Z:    -0.3984

  Electronic Dipole Moment: [e a0]
     X:   -25.4742      Y:    16.5871      Z:     0.8013

  Dipole Moment: [e a0]
     X:     0.3495      Y:     0.4088      Z:     0.4029     Total:     0.6720

  Dipole Moment: [D]
     X:     0.8883      Y:     1.0391      Z:     1.0241     Total:     1.7081


*** tstop() called on ds1.sherrill.chemistry.gatech.edu at Wed Nov 21 15:28:24 2018
Module time:
	user time   =       2.92 seconds =       0.05 minutes
	system time =       0.09 seconds =       0.00 minutes
	total time  =          0 seconds =       0.00 minutes
Total time:
	user time   =     127.70 seconds =       2.13 minutes
	system time =       3.60 seconds =       0.06 minutes
	total time  =         25 seconds =       0.42 minutes

*** tstart() called on ds1.sherrill.chemistry.gatech.edu
*** at Wed Nov 21 15:28:24 2018


         ------------------------------------------------------------
                                   SCF GRAD                          
                          Rob Parrish, Justin Turney,                
                       Andy Simmonett, and Alex Sokolov              
         ------------------------------------------------------------

  ==> Geometry <==

    Molecular point group: c1
    Full point group: C1

    Geometry (in Bohr), charge = 0, multiplicity = 1:

       Center              X                  Y                   Z               Mass       
    ------------   -----------------  -----------------  -----------------  -----------------
         O            2.469246140000    -1.754377390000    -0.170928840000    15.994914619570
         H            3.763682600000    -2.214254030000     1.008461040000     1.007825032230
         H            2.305983300000     0.070984450000    -0.039424730000     1.007825032230

  Nuclear repulsion =    9.116778471315827

  ==> Basis Set <==

  Basis Set: STO-3G
    Blend: STO-3G
    Number of shells: 5
    Number of basis function: 7
    Number of Cartesian functions: 7
    Spherical Harmonics?: true
    Max angular momentum: 1

  ==> DFJKGrad: Density-Fitted SCF Gradients <==

    Gradient:                    1
    J tasked:                  Yes
    K tasked:                  Yes
    wK tasked:                  No
    OpenMP threads:              6
    Integrals threads:           6
    Memory [MiB]:              375
    Schwarz Cutoff:          0E+00
    Fitting Condition:       1E-12

   => Auxiliary Basis Set <=

  Basis Set: (STO-3G AUX)
    Blend: DEF2-SVP-JKFIT
    Number of shells: 37
    Number of basis function: 113
    Number of Cartesian functions: 133
    Spherical Harmonics?: true
    Max angular momentum: 4


  -Total Gradient:
     Atom            X                  Y                   Z
    ------   -----------------  -----------------  -----------------
       1        0.036178304068     0.019888939127     0.038154885536
       2       -0.028116868146    -0.003451926846    -0.027749301426
       3       -0.008061435919    -0.016437012282    -0.010405584109


*** tstop() called on ds1.sherrill.chemistry.gatech.edu at Wed Nov 21 15:28:25 2018
Module time:
	user time   =       1.89 seconds =       0.03 minutes
	system time =       0.07 seconds =       0.00 minutes
	total time  =          1 seconds =       0.02 minutes
Total time:
	user time   =     129.60 seconds =       2.16 minutes
	system time =       3.67 seconds =       0.06 minutes
	total time  =         26 seconds =       0.43 minutes
	Energy of ((2,), (2,))............................................PASSED
	Gradient of ((2,), (2,))..........................................PASSED
gradient() will perform analytic gradient computation.

*** tstart() called on ds1.sherrill.chemistry.gatech.edu
*** at Wed Nov 21 15:28:25 2018

   => Loading Basis Set <=

    Name: STO-3G
    Role: ORBITAL
    Keyword: BASIS
    atoms 1   entry O          line    81 file /theoryfs2/ds/alenaizan/Gits/psi4/objdir/stage/share/psi4/basis/sto-3g.gbs 
    atoms 2-3 entry H          line    19 file /theoryfs2/ds/alenaizan/Gits/psi4/objdir/stage/share/psi4/basis/sto-3g.gbs 


         ---------------------------------------------------------
                                   SCF
            by Justin Turney, Rob Parrish, Andy Simmonett
                             and Daniel Smith
                              RHF Reference
                        6 Threads,    500 MiB Core
         ---------------------------------------------------------

  ==> Geometry <==

    Molecular point group: c1
    Full point group: C1

    Geometry (in Bohr), charge = 0, multiplicity = 1:

       Center              X                  Y                   Z               Mass       
    ------------   -----------------  -----------------  -----------------  -----------------
         O            0.291279300000     3.008756250000     0.203085150000    15.994914619570
         H           -1.212530480000     1.958209000000     0.103033240000     1.007825032230
         H            0.100020490000     4.249581150000    -1.102220790000     1.007825032230

  Running in c1 symmetry.

  Rotational constants: A =     16.29746  B =      0.35535  C =      0.35390 [cm^-1]
  Rotational constants: A = 488585.46321  B =  10652.99421  C =  10609.68719 [MHz]
  Nuclear repulsion =    9.116312738955250

  Charge       = 0
  Multiplicity = 1
  Electrons    = 10
  Nalpha       = 5
  Nbeta        = 5

  ==> Algorithm <==

  SCF Algorithm Type is DF.
  DIIS enabled.
  MOM disabled.
  Fractional occupation disabled.
  Guess Type is SAD.
  Energy threshold   = 1.00e-08
  Density threshold  = 1.00e-08
  Integral threshold = 0.00e+00

  ==> Primary Basis <==

  Basis Set: STO-3G
    Blend: STO-3G
    Number of shells: 5
    Number of basis function: 7
    Number of Cartesian functions: 7
    Spherical Harmonics?: true
    Max angular momentum: 1

   => Loading Basis Set <=

    Name: (STO-3G AUX)
    Role: JKFIT
    Keyword: DF_BASIS_SCF
    atoms 1   entry O          line   323 file /theoryfs2/ds/alenaizan/Gits/psi4/objdir/stage/share/psi4/basis/def2-svp-jkfit.gbs 
    atoms 2-3 entry H          line    23 file /theoryfs2/ds/alenaizan/Gits/psi4/objdir/stage/share/psi4/basis/def2-svp-jkfit.gbs 

  ==> Pre-Iterations <==

   -------------------------------------------------------
    Irrep   Nso     Nmo     Nalpha   Nbeta   Ndocc  Nsocc
   -------------------------------------------------------
     A          7       7       0       0       0       0
   -------------------------------------------------------
    Total       7       7       5       5       5       0
   -------------------------------------------------------

  ==> Integral Setup <==

  DFHelper Memory: AOs need 0.000 GiB; user supplied 0.366 GiB. Using in-core AOs.

  ==> MemDFJK: Density-Fitted J/K Matrices <==

    J tasked:                   Yes
    K tasked:                   Yes
    wK tasked:                   No
    OpenMP threads:               6
    Memory [MiB]:               375
    Algorithm:                 Core
    Schwarz Cutoff:           1E-12
    Mask sparsity (%):       0.0000
    Fitting Condition:        1E-12

   => Auxiliary Basis Set <=

  Basis Set: (STO-3G AUX)
    Blend: DEF2-SVP-JKFIT
    Number of shells: 37
    Number of basis function: 113
    Number of Cartesian functions: 133
    Spherical Harmonics?: true
    Max angular momentum: 4

  Minimum eigenvalue in the overlap matrix is 3.4730300753E-01.
  Using Symmetric Orthogonalization.

  SCF Guess: Superposition of Atomic Densities via on-the-fly atomic UHF.

  ==> Iterations <==

                           Total Energy        Delta E     RMS |[F,P]|

   @DF-RHF iter   0:   -74.74352657586344   -7.47435e+01   2.11015e-01 
   @DF-RHF iter   1:   -74.93232039675057   -1.88794e-01   2.72761e-02 
   @DF-RHF iter   2:   -74.96122749399743   -2.89071e-02   5.77034e-03 DIIS
   @DF-RHF iter   3:   -74.96305605978985   -1.82857e-03   2.45049e-03 DIIS
   @DF-RHF iter   4:   -74.96353267255954   -4.76613e-04   3.86874e-04 DIIS
   @DF-RHF iter   5:   -74.96354361735087   -1.09448e-05   2.68749e-05 DIIS
   @DF-RHF iter   6:   -74.96354366280744   -4.54566e-08   8.59594e-06 DIIS
   @DF-RHF iter   7:   -74.96354366801903   -5.21159e-09   7.92455e-07 DIIS
   @DF-RHF iter   8:   -74.96354366805879   -3.97620e-11   1.23739e-07 DIIS
   @DF-RHF iter   9:   -74.96354366805970   -9.09495e-13   2.69980e-08 DIIS
   @DF-RHF iter  10:   -74.96354366805969    1.42109e-14   3.38035e-09 DIIS
  Energy converged.


  ==> Post-Iterations <==

    Orbital Energies [Eh]
    ---------------------

    Doubly Occupied:                                                      

       1A    -20.241634     2A     -1.263271     3A     -0.615118  
       4A     -0.449801     5A     -0.390021  

    Virtual:                                                              

       6A      0.595613     7A      0.735986  

    Final Occupation by Irrep:
              A 
    DOCC [     5 ]

  @DF-RHF Final Energy:   -74.96354366805969

   => Energetics <=

    Nuclear Repulsion Energy =              9.1163127389552496
    One-Electron Energy =                -122.2400220139135030
    Two-Electron Energy =                  38.1601656068985804
    Total Energy =                        -74.9635436680596854

Computation Completed


Properties will be evaluated at   0.000000,   0.000000,   0.000000 [a0]

Properties computed using the SCF density matrix

  Nuclear Dipole Moment: [e a0]
     X:     1.2177      Y:    30.2778      Z:     0.6255

  Electronic Dipole Moment: [e a0]
     X:    -1.7294      Y:   -30.2127      Z:    -1.0569

  Dipole Moment: [e a0]
     X:    -0.5117      Y:     0.0651      Z:    -0.4314     Total:     0.6724

  Dipole Moment: [D]
     X:    -1.3005      Y:     0.1654      Z:    -1.0966     Total:     1.7092


*** tstop() called on ds1.sherrill.chemistry.gatech.edu at Wed Nov 21 15:28:25 2018
Module time:
	user time   =       2.97 seconds =       0.05 minutes
	system time =       0.04 seconds =       0.00 minutes
	total time  =          0 seconds =       0.00 minutes
Total time:
	user time   =     132.61 seconds =       2.21 minutes
	system time =       3.71 seconds =       0.06 minutes
	total time  =         26 seconds =       0.43 minutes

*** tstart() called on ds1.sherrill.chemistry.gatech.edu
*** at Wed Nov 21 15:28:25 2018


         ------------------------------------------------------------
                                   SCF GRAD                          
                          Rob Parrish, Justin Turney,                
                       Andy Simmonett, and Alex Sokolov              
         ------------------------------------------------------------

  ==> Geometry <==

    Molecular point group: c1
    Full point group: C1

    Geometry (in Bohr), charge = 0, multiplicity = 1:

       Center              X                  Y                   Z               Mass       
    ------------   -----------------  -----------------  -----------------  -----------------
         O            0.291279300000     3.008756250000     0.203085150000    15.994914619570
         H           -1.212530480000     1.958209000000     0.103033240000     1.007825032230
         H            0.100020490000     4.249581150000    -1.102220790000     1.007825032230

  Nuclear repulsion =    9.116312738955250

  ==> Basis Set <==

  Basis Set: STO-3G
    Blend: STO-3G
    Number of shells: 5
    Number of basis function: 7
    Number of Cartesian functions: 7
    Spherical Harmonics?: true
    Max angular momentum: 1

  ==> DFJKGrad: Density-Fitted SCF Gradients <==

    Gradient:                    1
    J tasked:                  Yes
    K tasked:                  Yes
    wK tasked:                  No
    OpenMP threads:              6
    Integrals threads:           6
    Memory [MiB]:              375
    Schwarz Cutoff:          0E+00
    Fitting Condition:       1E-12

   => Auxiliary Basis Set <=

  Basis Set: (STO-3G AUX)
    Blend: DEF2-SVP-JKFIT
    Number of shells: 37
    Number of basis function: 113
    Number of Cartesian functions: 133
    Spherical Harmonics?: true
    Max angular momentum: 4


  -Total Gradient:
     Atom            X                  Y                   Z
    ------   -----------------  -----------------  -----------------
       1       -0.033220038948     0.017641239643    -0.040625895847
       2        0.017926294643     0.002460556641     0.010655977957
       3        0.015293744306    -0.020101796284     0.029969917890


*** tstop() called on ds1.sherrill.chemistry.gatech.edu at Wed Nov 21 15:28:26 2018
Module time:
	user time   =       1.89 seconds =       0.03 minutes
	system time =       0.07 seconds =       0.00 minutes
	total time  =          1 seconds =       0.02 minutes
Total time:
	user time   =     134.50 seconds =       2.24 minutes
	system time =       3.78 seconds =       0.06 minutes
	total time  =         27 seconds =       0.45 minutes
	Energy of ((3,), (3,))............................................PASSED
	Gradient of ((3,), (3,))..........................................PASSED
	VMFC-Corrected Energy.............................................PASSED
	VMFC-Corrected Gradient...........................................PASSED

    Psi4 stopped on: Wednesday, 21 November 2018 03:28PM
    Psi4 wall time for execution: 0:00:26.33

*** Psi4 exiting successfully. Buy a developer a beer!
