    -----------------------------------------------------------------------
          Psi4: An Open-Source Ab Initio Electronic Structure Package
                              Psi4 0.5 Driver

                          Git: Rev {master} dbe9080

    J. M. Turney, A. C. Simmonett, R. M. Parrish, E. G. Hohenstein,
    F. A. Evangelista, J. T. Fermann, B. J. Mintz, L. A. Burns, J. J. Wilke,
    M. L. Abrams, N. J. Russ, M. L. Leininger, C. L. Janssen, E. T. Seidl,
    W. D. Allen, H. F. Schaefer, R. A. King, E. F. Valeev, C. D. Sherrill,
    and T. D. Crawford, WIREs Comput. Mol. Sci. 2, 556-565 (2012)
    (doi: 10.1002/wcms.93)

                         Additional Contributions by
    A. E. DePrince, M. Saitow, U. Bozkaya, A. Yu. Sokolov
    -----------------------------------------------------------------------


    Psi4 started on: Mon Mar 14 15:15:31 2016

    Process ID:   9301
    PSI4DATADIR: /home/dsmith/Gits/dgas_psi/share
    Memory level set to 256.000 MB

  ==> Input File <==

--------------------------------------------------------------------------
#! SAPT0 aug-cc-pVTZ computation of the charge transfer energy of the water
#! dimer.

memory 250 mb

molecule water_dimer {
     0 1
     O  -1.551007  -0.114520   0.000000
     H  -1.934259   0.762503   0.000000
     H  -0.599677   0.040712   0.000000
     --
     0 1
     O   1.350625   0.111469   0.000000
     H   1.680398  -0.373741  -0.758561
     H   1.680398  -0.373741   0.758561
     units angstrom
}

set globals {
    basis         aug-cc-pvtz
    df_basis_scf  aug-cc-pvtz-jkfit
    df_basis_sapt aug-cc-pvtz-ri
    df_basis_elst aug-cc-pvtz-jkfit
    guess         sad
    scf_type      df
    puream        true
    print         1
    basis_guess   true
}

energy('sapt0-ct')

ECT = psi4.get_variable("SAPT CT ENERGY")

Eref = [ -0.0006483 ]   #TEST

compare_values(Eref[0], ECT, 6, "SAPT Charge-Transfer")           #TEST

--------------------------------------------------------------------------

  Memory set to 250.000 MiB by Python script.
  SAPT does not make use of molecular symmetry, further calculations in C1 point group.

  //>>>>>>>>>>>>>>>>>>>>>>>>>>>>>>>>>>>//
  //              Dimer HF             //
  //<<<<<<<<<<<<<<<<<<<<<<<<<<<<<<<<<<<//


  //>>>>>>>>>>>>>>>>>>>>>>>>>>>>>>>>>>>//
  //       Guess SCF, 3-21G Basis      //
  //<<<<<<<<<<<<<<<<<<<<<<<<<<<<<<<<<<<//


*** tstart() called on ds1.sherrill.chemistry.gatech.edu
*** at Mon Mar 14 15:15:31 2016


         ---------------------------------------------------------
                                   SCF
            by Justin Turney, Rob Parrish, and Andy Simmonett
                              RHF Reference
                        1 Threads,    250 MiB Core
         ---------------------------------------------------------

  ==> Geometry <==

    Molecular point group: c1
    Full point group: Cs

    Geometry (in Angstrom), charge = 0, multiplicity = 1:

       Center              X                  Y                   Z               Mass       
    ------------   -----------------  -----------------  -----------------  -----------------
           O         -1.485163346097    -0.114724564047     0.000000000000    15.994914619560
           H         -1.868415346097     0.762298435953     0.000000000000     1.007825032070
           H         -0.533833346097     0.040507435953     0.000000000000     1.007825032070
           O          1.416468653903     0.111264435953     0.000000000000    15.994914619560
           H          1.746241653903    -0.373945564047    -0.758561000000     1.007825032070
           H          1.746241653903    -0.373945564047     0.758561000000     1.007825032070

  Running in c1 symmetry.

  Rotational constants: A =      7.15151  B =      0.21457  C =      0.21447 [cm^-1]
  Rotational constants: A = 214396.91676  B =   6432.69056  C =   6429.61813 [MHz]
  Nuclear repulsion =   36.662847852755299

  Charge       = 0
  Multiplicity = 1
  Electrons    = 20
  Nalpha       = 10
  Nbeta        = 10

  ==> Algorithm <==

  SCF Algorithm Type is DF.
  DIIS enabled.
  MOM disabled.
  Fractional occupation disabled.
  Guess Type is SAD.
  Energy threshold   = 1.00e-08
  Density threshold  = 1.00e-08
  Integral threshold = 0.00e+00

  ==> Primary Basis <==

  Basis Set: 3-21G
    Number of shells: 18
    Number of basis function: 26
    Number of Cartesian functions: 26
    Spherical Harmonics?: true
    Max angular momentum: 1

  ==> Pre-Iterations <==

   -------------------------------------------------------
    Irrep   Nso     Nmo     Nalpha   Nbeta   Ndocc  Nsocc
   -------------------------------------------------------
     A         26      26       0       0       0       0
   -------------------------------------------------------
    Total      26      26      10      10      10       0
   -------------------------------------------------------

  ==> Integral Setup <==

  ==> DFJK: Density-Fitted J/K Matrices <==

    J tasked:                  Yes
    K tasked:                  Yes
    wK tasked:                  No
    OpenMP threads:              1
    Integrals threads:           1
    Memory (MB):               178
    Algorithm:                Core
    Integral Cache:           NONE
    Schwarz Cutoff:          1E-12
    Fitting Condition:       1E-12

   => Auxiliary Basis Set <=

  Basis Set: AUG-CC-PVTZ-JKFIT
    Number of shells: 116
    Number of basis function: 392
    Number of Cartesian functions: 482
    Spherical Harmonics?: true
    Max angular momentum: 4

  Minimum eigenvalue in the overlap matrix is 9.3993473979E-02.
  Using Symmetric Orthogonalization.
  SCF Guess: Superposition of Atomic Densities via on-the-fly atomic UHF.

  ==> Iterations <==

                           Total Energy        Delta E     RMS |[F,P]|

   @DF-RHF iter   0:  -151.32329189091843   -1.51323e+02   8.48522e-02 
   @DF-RHF iter   1:  -151.11091919465511    2.12373e-01   1.49742e-02 
   @DF-RHF iter   2:  -151.17561415192910   -6.46950e-02   7.03772e-03 DIIS
   @DF-RHF iter   3:  -151.18630883696795   -1.06947e-02   1.34428e-03 DIIS
   @DF-RHF iter   4:  -151.18759865852911   -1.28982e-03   3.23318e-04 DIIS
   @DF-RHF iter   5:  -151.18770500001654   -1.06341e-04   7.08512e-05 DIIS
   @DF-RHF iter   6:  -151.18770948744444   -4.48743e-06   3.04043e-05 DIIS
   @DF-RHF iter   7:  -151.18771006199006   -5.74546e-07   6.25221e-06 DIIS
   @DF-RHF iter   8:  -151.18771009824025   -3.62502e-08   9.61381e-07 DIIS
   @DF-RHF iter   9:  -151.18771009921224   -9.71994e-10   1.81265e-07 DIIS
   @DF-RHF iter  10:  -151.18771009924595   -3.37081e-11   2.63855e-08 DIIS
   @DF-RHF iter  11:  -151.18771009924660   -6.53699e-13   5.99146e-09 DIIS

  ==> Post-Iterations <==

    Orbital Energies (a.u.)
    -----------------------

    Doubly Occupied:                                                      

       1A    -20.471307     2A    -20.384782     3A     -1.366365  
       4A     -1.288882     5A     -0.721257     6A     -0.654462  
       7A     -0.577557     8A     -0.523494     9A     -0.490851  
      10A     -0.441908  

    Virtual:                                                              

      11A      0.233489    12A      0.321217    13A      0.337262  
      14A      0.475187    15A      1.162556    16A      1.228547  
      17A      1.298583    18A      1.364793    19A      1.778528  
      20A      1.819311    21A      1.871617    22A      1.912431  
      23A      1.976920    24A      2.132906    25A      3.056802  
      26A      3.318047  

    Final Occupation by Irrep:
              A 
    DOCC [    10 ]

  Energy converged.

  @DF-RHF Final Energy:  -151.18771009924660

   => Energetics <=

    Nuclear Repulsion Energy =             36.6628478527552986
    One-Electron Energy =                -281.8593885522847700
    Two-Electron Energy =                  94.0088306002828347
    DFT Exchange-Correlation Energy =       0.0000000000000000
    Empirical Dispersion Energy =           0.0000000000000000
    PCM Polarization Energy =               0.0000000000000000
    EFP Energy =                            0.0000000000000000
    Total Energy =                       -151.1877100992466296

    Alert: EFP and PCM quantities not currently incorporated into SCF psivars.

Properties will be evaluated at   0.000000,   0.000000,   0.000000 Bohr
  ==> Properties <==


Properties computed using the SCF density matrix

  Nuclear Dipole Moment: (a.u.)
     X:     1.0217      Y:     0.0515      Z:     0.0000

  Electronic Dipole Moment: (a.u.)
     X:     0.2609      Y:    -0.0320      Z:    -0.0000

  Dipole Moment: (a.u.)
     X:     1.2827      Y:     0.0195      Z:    -0.0000     Total:     1.2828

  Dipole Moment: (Debye)
     X:     3.2602      Y:     0.0495      Z:    -0.0000     Total:     3.2606


  Saving occupied orbitals to File 180.

*** tstop() called on ds1.sherrill.chemistry.gatech.edu at Mon Mar 14 15:15:31 2016
Module time:
	user time   =       0.16 seconds =       0.00 minutes
	system time =       0.01 seconds =       0.00 minutes
	total time  =          0 seconds =       0.00 minutes
Total time:
	user time   =       0.16 seconds =       0.00 minutes
	system time =       0.01 seconds =       0.00 minutes
	total time  =          0 seconds =       0.00 minutes

  //>>>>>>>>>>>>>>>>>>>>>>>>>>>>>>>>>>>//
  //                RHF                //
  //<<<<<<<<<<<<<<<<<<<<<<<<<<<<<<<<<<<//


*** tstart() called on ds1.sherrill.chemistry.gatech.edu
*** at Mon Mar 14 15:15:31 2016


         ---------------------------------------------------------
                                   SCF
            by Justin Turney, Rob Parrish, and Andy Simmonett
                              RHF Reference
                        1 Threads,    250 MiB Core
         ---------------------------------------------------------

  ==> Geometry <==

    Molecular point group: c1
    Full point group: Cs

    Geometry (in Angstrom), charge = 0, multiplicity = 1:

       Center              X                  Y                   Z               Mass       
    ------------   -----------------  -----------------  -----------------  -----------------
           O         -1.485163346097    -0.114724564047     0.000000000000    15.994914619560
           H         -1.868415346097     0.762298435953     0.000000000000     1.007825032070
           H         -0.533833346097     0.040507435953     0.000000000000     1.007825032070
           O          1.416468653903     0.111264435953     0.000000000000    15.994914619560
           H          1.746241653903    -0.373945564047    -0.758561000000     1.007825032070
           H          1.746241653903    -0.373945564047     0.758561000000     1.007825032070

  Running in c1 symmetry.

  Rotational constants: A =      7.15151  B =      0.21457  C =      0.21447 [cm^-1]
  Rotational constants: A = 214396.91676  B =   6432.69056  C =   6429.61813 [MHz]
  Nuclear repulsion =   36.662847852755299

  Charge       = 0
  Multiplicity = 1
  Electrons    = 20
  Nalpha       = 10
  Nbeta        = 10

  ==> Algorithm <==

  SCF Algorithm Type is DF.
  DIIS enabled.
  MOM disabled.
  Fractional occupation disabled.
  Guess Type is READ.
  Energy threshold   = 1.00e-08
  Density threshold  = 1.00e-08
  Integral threshold = 0.00e+00

  ==> Primary Basis <==

  Basis Set: AUG-CC-PVTZ
    Number of shells: 64
    Number of basis function: 184
    Number of Cartesian functions: 210
    Spherical Harmonics?: true
    Max angular momentum: 3

  ==> Pre-Iterations <==

   -------------------------------------------------------
    Irrep   Nso     Nmo     Nalpha   Nbeta   Ndocc  Nsocc
   -------------------------------------------------------
     A        184     184       0       0       0       0
   -------------------------------------------------------
    Total     184     184      10      10      10       0
   -------------------------------------------------------

  ==> Integral Setup <==

  ==> DFJK: Density-Fitted J/K Matrices <==

    J tasked:                  Yes
    K tasked:                  Yes
    wK tasked:                  No
    OpenMP threads:              1
    Integrals threads:           1
    Memory (MB):               178
    Algorithm:                Core
    Integral Cache:           SAVE
    Schwarz Cutoff:          1E-12
    Fitting Condition:       1E-12

   => Auxiliary Basis Set <=

  Basis Set: AUG-CC-PVTZ-JKFIT
    Number of shells: 116
    Number of basis function: 392
    Number of Cartesian functions: 482
    Spherical Harmonics?: true
    Max angular momentum: 4

  Minimum eigenvalue in the overlap matrix is 2.2768154804E-04.
  Using Symmetric Orthogonalization.
  SCF Guess: Reading in previously saved MOs, projecting if necessary.

  Computing basis set projection from 3-21G to AUG-CC-PVTZ.
  Recomputing DOCC and SOCC from number of alpha and beta electrons from previous calculation.
              A 
    DOCC [    10 ]

  ==> Iterations <==

                           Total Energy        Delta E     RMS |[F,P]|

   @DF-RHF iter   0:  -151.91540193374732   -1.51915e+02   6.22969e-03 
   @DF-RHF iter   1:  -152.11770035746684   -2.02298e-01   6.04729e-04 
   @DF-RHF iter   2:  -152.12549147529566   -7.79112e-03   1.54210e-04 DIIS
   @DF-RHF iter   3:  -152.12644973609622   -9.58261e-04   5.94699e-05 DIIS
   @DF-RHF iter   4:  -152.12658481026523   -1.35074e-04   2.56898e-05 DIIS
   @DF-RHF iter   5:  -152.12660270294964   -1.78927e-05   7.09988e-06 DIIS
   @DF-RHF iter   6:  -152.12660392242623   -1.21948e-06   8.46916e-07 DIIS
   @DF-RHF iter   7:  -152.12660394874371   -2.63175e-08   3.70248e-07 DIIS
   @DF-RHF iter   8:  -152.12660395124396   -2.50026e-09   1.10364e-07 DIIS
   @DF-RHF iter   9:  -152.12660395172131   -4.77343e-10   1.50195e-08 DIIS
   @DF-RHF iter  10:  -152.12660395173114   -9.83391e-12   3.53730e-09 DIIS

  ==> Post-Iterations <==

    Orbital Energies (a.u.)
    -----------------------

    Doubly Occupied:                                                      

       1A    -20.592141     2A    -20.536271     3A     -1.380460  
       4A     -1.323539     5A     -0.742552     6A     -0.694978  
       7A     -0.614606     8A     -0.560921     9A     -0.530900  
      10A     -0.482055  

    Virtual:                                                              

      11A      0.023095    12A      0.045673    13A      0.046735  
      14A      0.075928    15A      0.121266    16A      0.142767  
      17A      0.164380    18A      0.169645    19A      0.177476  
      20A      0.186252    21A      0.215222    22A      0.217179  
      23A      0.233990    24A      0.243590    25A      0.271483  
      26A      0.271939    27A      0.298855    28A      0.313176  
      29A      0.367035    30A      0.372139    31A      0.372624  
      32A      0.412380    33A      0.412654    34A      0.440511  
      35A      0.444263    36A      0.457285    37A      0.485438  
      38A      0.579744    39A      0.591913    40A      0.613078  
      41A      0.669358    42A      0.708020    43A      0.718840  
      44A      0.728856    45A      0.752853    46A      0.776852  
      47A      0.787037    48A      0.797757    49A      0.827680  
      50A      0.831023    51A      0.857329    52A      0.892019  
      53A      0.907166    54A      0.932143    55A      0.945747  
      56A      0.959764    57A      0.966669    58A      0.971982  
      59A      0.989566    60A      0.998844    61A      1.020621  
      62A      1.025855    63A      1.035702    64A      1.052249  
      65A      1.073246    66A      1.123420    67A      1.153474  
      68A      1.187176    69A      1.187493    70A      1.237308  
      71A      1.238446    72A      1.243480    73A      1.289764  
      74A      1.293771    75A      1.383288    76A      1.435217  
      77A      1.491929    78A      1.517449    79A      1.563098  
      80A      1.566117    81A      1.630787    82A      1.645951  
      83A      1.704783    84A      1.726465    85A      1.812382  
      86A      1.826478    87A      1.947317    88A      2.001167  
      89A      2.067620    90A      2.101696    91A      2.135105  
      92A      2.264198    93A      2.308995    94A      2.318716  
      95A      2.332047    96A      2.412793    97A      2.439321  
      98A      2.461820    99A      2.479996   100A      2.487102  
     101A      2.504167   102A      2.508479   103A      2.578148  
     104A      2.605939   105A      2.669500   106A      2.688055  
     107A      2.752386   108A      2.755524   109A      2.776363  
     110A      2.814730   111A      2.860848   112A      2.901141  
     113A      2.926745   114A      3.002244   115A      3.007538  
     116A      3.015987   117A      3.749596   118A      3.787601  
     119A      3.805894   120A      4.027861   121A      4.070805  
     122A      4.086623   123A      4.195845   124A      4.230412  
     125A      4.241354   126A      4.258485   127A      4.297101  
     128A      4.316055   129A      4.336885   130A      4.409571  
     131A      4.416679   132A      4.476794   133A      4.478741  
     134A      4.478988   135A      4.493829   136A      4.564660  
     137A      4.593237   138A      4.723930   139A      4.751704  
     140A      4.856845   141A      4.890030   142A      5.043253  
     143A      5.120928   144A      5.184946   145A      5.185028  
     146A      5.237743   147A      5.282141   148A      5.326252  
     149A      5.358757   150A      5.429273   151A      5.593443  
     152A      5.668347   153A      5.748161   154A      5.766750  
     155A      6.247952   156A      6.364461   157A      6.513707  
     158A      6.566693   159A      6.772279   160A      6.790099  
     161A      6.940686   162A      6.990451   163A      7.164878  
     164A      7.176309   165A      7.285104   166A      7.310418  
     167A      7.312757   168A      7.339894   169A      7.360725  
     170A      7.363726   171A      7.391232   172A      7.437019  
     173A      7.460049   174A      7.538189   175A      7.596680  
     176A      7.740096   177A      7.929337   178A      7.947035  
     179A      8.020918   180A      8.083512   181A      8.903279  
     182A      8.921873   183A     15.886572   184A     17.028261  

    Final Occupation by Irrep:
              A 
    DOCC [    10 ]

  Energy converged.

  @DF-RHF Final Energy:  -152.12660395173114

   => Energetics <=

    Nuclear Repulsion Energy =             36.6628478527552986
    One-Electron Energy =                -282.6620581381361035
    Two-Electron Energy =                  93.8726063336496566
    DFT Exchange-Correlation Energy =       0.0000000000000000
    Empirical Dispersion Energy =           0.0000000000000000
    PCM Polarization Energy =               0.0000000000000000
    EFP Energy =                            0.0000000000000000
    Total Energy =                       -152.1266039517311413

    Alert: EFP and PCM quantities not currently incorporated into SCF psivars.

Properties will be evaluated at   0.000000,   0.000000,   0.000000 Bohr
  ==> Properties <==


Properties computed using the SCF density matrix

  Nuclear Dipole Moment: (a.u.)
     X:     1.0217      Y:     0.0515      Z:     0.0000

  Electronic Dipole Moment: (a.u.)
     X:     0.0116      Y:    -0.0185      Z:    -0.0000

  Dipole Moment: (a.u.)
     X:     1.0333      Y:     0.0330      Z:    -0.0000     Total:     1.0338

  Dipole Moment: (Debye)
     X:     2.6264      Y:     0.0838      Z:    -0.0000     Total:     2.6278


  Saving occupied orbitals to File 180.

*** tstop() called on ds1.sherrill.chemistry.gatech.edu at Mon Mar 14 15:15:33 2016
Module time:
	user time   =       1.50 seconds =       0.03 minutes
	system time =       0.06 seconds =       0.00 minutes
	total time  =          2 seconds =       0.03 minutes
Total time:
	user time   =       1.70 seconds =       0.03 minutes
	system time =       0.07 seconds =       0.00 minutes
	total time  =          2 seconds =       0.03 minutes

  //>>>>>>>>>>>>>>>>>>>>>>>>>>>>>>>>>>>//
  //     Monomer A HF (Dimer Basis)    //
  //<<<<<<<<<<<<<<<<<<<<<<<<<<<<<<<<<<<//


  //>>>>>>>>>>>>>>>>>>>>>>>>>>>>>>>>>>>//
  //       Guess SCF, 3-21G Basis      //
  //<<<<<<<<<<<<<<<<<<<<<<<<<<<<<<<<<<<//


*** tstart() called on ds1.sherrill.chemistry.gatech.edu
*** at Mon Mar 14 15:15:33 2016


         ---------------------------------------------------------
                                   SCF
            by Justin Turney, Rob Parrish, and Andy Simmonett
                              RHF Reference
                        1 Threads,    250 MiB Core
         ---------------------------------------------------------

  ==> Geometry <==

    Molecular point group: c1
    Full point group: Cs

    Geometry (in Angstrom), charge = 0, multiplicity = 1:

       Center              X                  Y                   Z               Mass       
    ------------   -----------------  -----------------  -----------------  -----------------
           O         -1.485163346097    -0.114724564047     0.000000000000    15.994914619560
           H         -1.868415346097     0.762298435953     0.000000000000     1.007825032070
           H         -0.533833346097     0.040507435953     0.000000000000     1.007825032070
           O(Gh)      1.416468653903     0.111264435953     0.000000000000    15.994914619560
           H(Gh)      1.746241653903    -0.373945564047    -0.758561000000     1.007825032070
           H(Gh)      1.746241653903    -0.373945564047     0.758561000000     1.007825032070

  Running in c1 symmetry.

  Rotational constants: A =      7.15151  B =      0.21457  C =      0.21447 [cm^-1]
  Rotational constants: A = 214396.91676  B =   6432.69056  C =   6429.61813 [MHz]
  Nuclear repulsion =    9.163830145965930

  Charge       = 0
  Multiplicity = 1
  Electrons    = 10
  Nalpha       = 5
  Nbeta        = 5

  ==> Algorithm <==

  SCF Algorithm Type is DF.
  DIIS enabled.
  MOM disabled.
  Fractional occupation disabled.
  Guess Type is SAD.
  Energy threshold   = 1.00e-08
  Density threshold  = 1.00e-08
  Integral threshold = 0.00e+00

  ==> Primary Basis <==

  Basis Set: 3-21G
    Number of shells: 18
    Number of basis function: 26
    Number of Cartesian functions: 26
    Spherical Harmonics?: true
    Max angular momentum: 1

  ==> Pre-Iterations <==

   -------------------------------------------------------
    Irrep   Nso     Nmo     Nalpha   Nbeta   Ndocc  Nsocc
   -------------------------------------------------------
     A         26      26       0       0       0       0
   -------------------------------------------------------
    Total      26      26       5       5       5       0
   -------------------------------------------------------

  ==> Integral Setup <==

  ==> DFJK: Density-Fitted J/K Matrices <==

    J tasked:                  Yes
    K tasked:                  Yes
    wK tasked:                  No
    OpenMP threads:              1
    Integrals threads:           1
    Memory (MB):               178
    Algorithm:                Core
    Integral Cache:           NONE
    Schwarz Cutoff:          1E-12
    Fitting Condition:       1E-12

   => Auxiliary Basis Set <=

  Basis Set: AUG-CC-PVTZ-JKFIT
    Number of shells: 116
    Number of basis function: 392
    Number of Cartesian functions: 482
    Spherical Harmonics?: true
    Max angular momentum: 4

  Minimum eigenvalue in the overlap matrix is 9.3993473979E-02.
  Using Symmetric Orthogonalization.
  SCF Guess: Superposition of Atomic Densities via on-the-fly atomic UHF.

  ==> Iterations <==

                           Total Energy        Delta E     RMS |[F,P]|

   @DF-RHF iter   0:   -75.69586363717636   -7.56959e+01   5.99013e-02 
   @DF-RHF iter   1:   -75.52939530651591    1.66468e-01   1.23449e-02 
   @DF-RHF iter   2:   -75.57719092285510   -4.77956e-02   6.12638e-03 DIIS
   @DF-RHF iter   3:   -75.58507191639461   -7.88099e-03   1.13175e-03 DIIS
   @DF-RHF iter   4:   -75.58596081588767   -8.88899e-04   2.44201e-04 DIIS
   @DF-RHF iter   5:   -75.58601510056231   -5.42847e-05   4.89395e-05 DIIS
   @DF-RHF iter   6:   -75.58601768042050   -2.57986e-06   1.24814e-05 DIIS
   @DF-RHF iter   7:   -75.58601784343828   -1.63018e-07   1.41013e-06 DIIS
   @DF-RHF iter   8:   -75.58601784552093   -2.08264e-09   3.79296e-07 DIIS
   @DF-RHF iter   9:   -75.58601784567207   -1.51147e-10   4.88968e-08 DIIS
   @DF-RHF iter  10:   -75.58601784567448   -2.40163e-12   1.11460e-08 DIIS
   @DF-RHF iter  11:   -75.58601784567456   -8.52651e-14   1.40587e-09 DIIS

  ==> Post-Iterations <==

    Orbital Energies (a.u.)
    -----------------------

    Doubly Occupied:                                                      

       1A    -20.429507     2A     -1.328425     3A     -0.683831  
       4A     -0.537722     5A     -0.479834  

    Virtual:                                                              

       6A      0.166990     7A      0.286906     8A      0.359938  
       9A      0.390302    10A      0.742856    11A      0.955001  
      12A      1.088191    13A      1.164091    14A      1.230862  
      15A      1.317547    16A      1.781838    17A      1.869564  
      18A      2.061932    19A      2.366287    20A      2.610840  
      21A      3.175616    22A      4.351826    23A      6.464677  
      24A      6.612343    25A      6.671936    26A     33.874584  

    Final Occupation by Irrep:
              A 
    DOCC [     5 ]

  Energy converged.

  @DF-RHF Final Energy:   -75.58601784567456

   => Energetics <=

    Nuclear Repulsion Energy =              9.1638301459659299
    One-Electron Energy =                -122.5810560900342097
    Two-Electron Energy =                  37.8312080983937165
    DFT Exchange-Correlation Energy =       0.0000000000000000
    Empirical Dispersion Energy =           0.0000000000000000
    PCM Polarization Energy =               0.0000000000000000
    EFP Energy =                            0.0000000000000000
    Total Energy =                        -75.5860178456745615

    Alert: EFP and PCM quantities not currently incorporated into SCF psivars.

Properties will be evaluated at   0.000000,   0.000000,   0.000000 Bohr
  ==> Properties <==


Properties computed using the SCF density matrix

  Nuclear Dipole Moment: (a.u.)
     X:   -26.9920      Y:    -0.2173      Z:     0.0000

  Electronic Dipole Moment: (a.u.)
     X:    27.4463      Y:     1.0604      Z:     0.0000

  Dipole Moment: (a.u.)
     X:     0.4543      Y:     0.8431      Z:     0.0000     Total:     0.9577

  Dipole Moment: (Debye)
     X:     1.1548      Y:     2.1430      Z:     0.0000     Total:     2.4343


  Saving occupied orbitals to File 180.

*** tstop() called on ds1.sherrill.chemistry.gatech.edu at Mon Mar 14 15:15:33 2016
Module time:
	user time   =       0.17 seconds =       0.00 minutes
	system time =       0.00 seconds =       0.00 minutes
	total time  =          0 seconds =       0.00 minutes
Total time:
	user time   =       1.91 seconds =       0.03 minutes
	system time =       0.07 seconds =       0.00 minutes
	total time  =          2 seconds =       0.03 minutes

  //>>>>>>>>>>>>>>>>>>>>>>>>>>>>>>>>>>>//
  //                RHF                //
  //<<<<<<<<<<<<<<<<<<<<<<<<<<<<<<<<<<<//


*** tstart() called on ds1.sherrill.chemistry.gatech.edu
*** at Mon Mar 14 15:15:33 2016


         ---------------------------------------------------------
                                   SCF
            by Justin Turney, Rob Parrish, and Andy Simmonett
                              RHF Reference
                        1 Threads,    250 MiB Core
         ---------------------------------------------------------

  ==> Geometry <==

    Molecular point group: c1
    Full point group: Cs

    Geometry (in Angstrom), charge = 0, multiplicity = 1:

       Center              X                  Y                   Z               Mass       
    ------------   -----------------  -----------------  -----------------  -----------------
           O         -1.485163346097    -0.114724564047     0.000000000000    15.994914619560
           H         -1.868415346097     0.762298435953     0.000000000000     1.007825032070
           H         -0.533833346097     0.040507435953     0.000000000000     1.007825032070
           O(Gh)      1.416468653903     0.111264435953     0.000000000000    15.994914619560
           H(Gh)      1.746241653903    -0.373945564047    -0.758561000000     1.007825032070
           H(Gh)      1.746241653903    -0.373945564047     0.758561000000     1.007825032070

  Running in c1 symmetry.

  Rotational constants: A =      7.15151  B =      0.21457  C =      0.21447 [cm^-1]
  Rotational constants: A = 214396.91676  B =   6432.69056  C =   6429.61813 [MHz]
  Nuclear repulsion =    9.163830145965930

  Charge       = 0
  Multiplicity = 1
  Electrons    = 10
  Nalpha       = 5
  Nbeta        = 5

  ==> Algorithm <==

  SCF Algorithm Type is DF.
  DIIS enabled.
  MOM disabled.
  Fractional occupation disabled.
  Guess Type is READ.
  Energy threshold   = 1.00e-08
  Density threshold  = 1.00e-08
  Integral threshold = 0.00e+00

  ==> Primary Basis <==

  Basis Set: AUG-CC-PVTZ
    Number of shells: 64
    Number of basis function: 184
    Number of Cartesian functions: 210
    Spherical Harmonics?: true
    Max angular momentum: 3

  ==> Pre-Iterations <==

   -------------------------------------------------------
    Irrep   Nso     Nmo     Nalpha   Nbeta   Ndocc  Nsocc
   -------------------------------------------------------
     A        184     184       0       0       0       0
   -------------------------------------------------------
    Total     184     184       5       5       5       0
   -------------------------------------------------------

  ==> Integral Setup <==

  ==> DFJK: Density-Fitted J/K Matrices <==

    J tasked:                  Yes
    K tasked:                  Yes
    wK tasked:                  No
    OpenMP threads:              1
    Integrals threads:           1
    Memory (MB):               178
    Algorithm:                Core
    Integral Cache:           LOAD
    Schwarz Cutoff:          1E-12
    Fitting Condition:       1E-12

   => Auxiliary Basis Set <=

  Basis Set: AUG-CC-PVTZ-JKFIT
    Number of shells: 116
    Number of basis function: 392
    Number of Cartesian functions: 482
    Spherical Harmonics?: true
    Max angular momentum: 4

  Minimum eigenvalue in the overlap matrix is 2.2768154804E-04.
  Using Symmetric Orthogonalization.
  SCF Guess: Reading in previously saved MOs, projecting if necessary.

  Computing basis set projection from 3-21G to AUG-CC-PVTZ.
  Recomputing DOCC and SOCC from number of alpha and beta electrons from previous calculation.
              A 
    DOCC [     5 ]

  ==> Iterations <==

                           Total Energy        Delta E     RMS |[F,P]|

   @DF-RHF iter   0:   -75.94871845232143   -7.59487e+01   4.51620e-03 
   @DF-RHF iter   1:   -76.05533055494134   -1.06612e-01   4.49203e-04 
   @DF-RHF iter   2:   -76.05972749290063   -4.39694e-03   1.13295e-04 DIIS
   @DF-RHF iter   3:   -76.06029390230749   -5.66409e-04   4.18131e-05 DIIS
   @DF-RHF iter   4:   -76.06037769861948   -8.37963e-05   1.10371e-05 DIIS
   @DF-RHF iter   5:   -76.06038179759796   -4.09898e-06   4.46519e-06 DIIS
   @DF-RHF iter   6:   -76.06038210364665   -3.06049e-07   6.95089e-07 DIIS
   @DF-RHF iter   7:   -76.06038211922575   -1.55791e-08   1.51811e-07 DIIS
   @DF-RHF iter   8:   -76.06038212017751   -9.51758e-10   2.09334e-08 DIIS
   @DF-RHF iter   9:   -76.06038212019538   -1.78773e-11   4.08148e-09 DIIS

  ==> Post-Iterations <==

    Orbital Energies (a.u.)
    -----------------------

    Doubly Occupied:                                                      

       1A    -20.567835     2A     -1.352024     3A     -0.715689  
       4A     -0.584625     5A     -0.510134  

    Virtual:                                                              

       6A      0.022023     7A      0.042452     8A      0.050571  
       9A      0.072954    10A      0.102089    11A      0.122674  
      12A      0.148632    13A      0.157329    14A      0.173541  
      15A      0.178786    16A      0.198804    17A      0.223132  
      18A      0.243498    19A      0.254319    20A      0.265640  
      21A      0.289194    22A      0.293682    23A      0.313228  
      24A      0.321725    25A      0.348031    26A      0.372464  
      27A      0.376680    28A      0.393619    29A      0.398704  
      30A      0.443886    31A      0.445636    32A      0.470288  
      33A      0.558349    34A      0.621586    35A      0.643392  
      36A      0.703240    37A      0.712824    38A      0.724842  
      39A      0.747379    40A      0.756034    41A      0.766724  
      42A      0.785102    43A      0.803023    44A      0.809191  
      45A      0.844915    46A      0.865311    47A      0.875655  
      48A      0.891894    49A      0.892089    50A      0.926057  
      51A      0.944975    52A      0.952535    53A      0.967237  
      54A      0.979483    55A      1.002972    56A      1.010797  
      57A      1.021668    58A      1.039520    59A      1.052372  
      60A      1.090081    61A      1.110194    62A      1.149597  
      63A      1.160635    64A      1.202420    65A      1.219617  
      66A      1.236591    67A      1.254379    68A      1.287910  
      69A      1.301922    70A      1.402464    71A      1.417104  
      72A      1.454264    73A      1.539054    74A      1.578867  
      75A      1.600164    76A      1.612313    77A      1.720847  
      78A      1.727703    79A      1.784496    80A      1.786697  
      81A      1.812603    82A      1.886140    83A      1.946700  
      84A      1.960722    85A      2.080448    86A      2.125956  
      87A      2.273887    88A      2.294825    89A      2.387692  
      90A      2.400375    91A      2.449555    92A      2.465084  
      93A      2.466707    94A      2.487214    95A      2.517552  
      96A      2.541713    97A      2.560829    98A      2.585609  
      99A      2.642739   100A      2.683927   101A      2.741135  
     102A      2.748308   103A      2.830230   104A      2.875235  
     105A      2.956500   106A      2.967638   107A      2.983935  
     108A      3.119538   109A      3.175144   110A      3.199297  
     111A      3.307558   112A      3.313263   113A      3.419037  
     114A      3.539467   115A      3.683158   116A      3.737135  
     117A      4.046324   118A      4.060902   119A      4.204676  
     120A      4.207317   121A      4.270812   122A      4.307025  
     123A      4.365321   124A      4.395798   125A      4.398957  
     126A      4.453822   127A      4.528228   128A      4.582570  
     129A      4.621521   130A      4.661200   131A      4.667515  
     132A      4.758015   133A      4.793220   134A      4.902542  
     135A      4.980338   136A      5.002333   137A      5.142966  
     138A      5.152980   139A      5.200424   140A      5.286119  
     141A      5.338098   142A      5.435187   143A      5.500253  
     144A      5.565400   145A      5.713006   146A      5.725188  
     147A      5.749908   148A      5.866632   149A      6.222390  
     150A      6.273809   151A      6.440217   152A      6.541099  
     153A      6.639117   154A      6.769730   155A      6.937120  
     156A      7.040622   157A      7.171419   158A      7.283903  
     159A      7.330477   160A      7.345936   161A      7.387649  
     162A      7.499991   163A      7.690508   164A      7.721579  
     165A      7.871893   166A      7.988904   167A      8.027083  
     168A      8.141887   169A      8.172795   170A      8.297201  
     171A      8.760898   172A      8.811790   173A      8.855850  
     174A      9.792628   175A      9.989560   176A     10.005195  
     177A     10.237231   178A     11.240756   179A     11.872908  
     180A     12.273076   181A     13.508119   182A     13.838322  
     183A     16.695720   184A     65.567322  

    Final Occupation by Irrep:
              A 
    DOCC [     5 ]

  Energy converged.

  @DF-RHF Final Energy:   -76.06038212019538

   => Energetics <=

    Nuclear Repulsion Energy =              9.1638301459659299
    One-Electron Energy =                -122.9878107177472941
    Two-Electron Energy =                  37.7635984515859917
    DFT Exchange-Correlation Energy =       0.0000000000000000
    Empirical Dispersion Energy =           0.0000000000000000
    PCM Polarization Energy =               0.0000000000000000
    EFP Energy =                            0.0000000000000000
    Total Energy =                        -76.0603821201953707

    Alert: EFP and PCM quantities not currently incorporated into SCF psivars.

Properties will be evaluated at   0.000000,   0.000000,   0.000000 Bohr
  ==> Properties <==


Properties computed using the SCF density matrix

  Nuclear Dipole Moment: (a.u.)
     X:   -26.9920      Y:    -0.2173      Z:     0.0000

  Electronic Dipole Moment: (a.u.)
     X:    27.3683      Y:     0.9032      Z:     0.0000

  Dipole Moment: (a.u.)
     X:     0.3763      Y:     0.6859      Z:     0.0000     Total:     0.7823

  Dipole Moment: (Debye)
     X:     0.9565      Y:     1.7433      Z:     0.0000     Total:     1.9885


  Saving occupied orbitals to File 180.

*** tstop() called on ds1.sherrill.chemistry.gatech.edu at Mon Mar 14 15:15:34 2016
Module time:
	user time   =       0.90 seconds =       0.02 minutes
	system time =       0.03 seconds =       0.00 minutes
	total time  =          1 seconds =       0.02 minutes
Total time:
	user time   =       2.85 seconds =       0.05 minutes
	system time =       0.10 seconds =       0.00 minutes
	total time  =          3 seconds =       0.05 minutes

  //>>>>>>>>>>>>>>>>>>>>>>>>>>>>>>>>>>>//
  //     Monomer B HF (Dimer Basis)    //
  //<<<<<<<<<<<<<<<<<<<<<<<<<<<<<<<<<<<//


  //>>>>>>>>>>>>>>>>>>>>>>>>>>>>>>>>>>>//
  //       Guess SCF, 3-21G Basis      //
  //<<<<<<<<<<<<<<<<<<<<<<<<<<<<<<<<<<<//


*** tstart() called on ds1.sherrill.chemistry.gatech.edu
*** at Mon Mar 14 15:15:34 2016


         ---------------------------------------------------------
                                   SCF
            by Justin Turney, Rob Parrish, and Andy Simmonett
                              RHF Reference
                        1 Threads,    250 MiB Core
         ---------------------------------------------------------

  ==> Geometry <==

    Molecular point group: c1
    Full point group: Cs

    Geometry (in Angstrom), charge = 0, multiplicity = 1:

       Center              X                  Y                   Z               Mass       
    ------------   -----------------  -----------------  -----------------  -----------------
           O(Gh)     -1.485163346097    -0.114724564047     0.000000000000    15.994914619560
           H(Gh)     -1.868415346097     0.762298435953     0.000000000000     1.007825032070
           H(Gh)     -0.533833346097     0.040507435953     0.000000000000     1.007825032070
           O          1.416468653903     0.111264435953     0.000000000000    15.994914619560
           H          1.746241653903    -0.373945564047    -0.758561000000     1.007825032070
           H          1.746241653903    -0.373945564047     0.758561000000     1.007825032070

  Running in c1 symmetry.

  Rotational constants: A =      7.15151  B =      0.21457  C =      0.21447 [cm^-1]
  Rotational constants: A = 214396.91676  B =   6432.69056  C =   6429.61813 [MHz]
  Nuclear repulsion =    9.178038904903588

  Charge       = 0
  Multiplicity = 1
  Electrons    = 10
  Nalpha       = 5
  Nbeta        = 5

  ==> Algorithm <==

  SCF Algorithm Type is DF.
  DIIS enabled.
  MOM disabled.
  Fractional occupation disabled.
  Guess Type is SAD.
  Energy threshold   = 1.00e-08
  Density threshold  = 1.00e-08
  Integral threshold = 0.00e+00

  ==> Primary Basis <==

  Basis Set: 3-21G
    Number of shells: 18
    Number of basis function: 26
    Number of Cartesian functions: 26
    Spherical Harmonics?: true
    Max angular momentum: 1

  ==> Pre-Iterations <==

   -------------------------------------------------------
    Irrep   Nso     Nmo     Nalpha   Nbeta   Ndocc  Nsocc
   -------------------------------------------------------
     A         26      26       0       0       0       0
   -------------------------------------------------------
    Total      26      26       5       5       5       0
   -------------------------------------------------------

  ==> Integral Setup <==

  ==> DFJK: Density-Fitted J/K Matrices <==

    J tasked:                  Yes
    K tasked:                  Yes
    wK tasked:                  No
    OpenMP threads:              1
    Integrals threads:           1
    Memory (MB):               178
    Algorithm:                Core
    Integral Cache:           NONE
    Schwarz Cutoff:          1E-12
    Fitting Condition:       1E-12

   => Auxiliary Basis Set <=

  Basis Set: AUG-CC-PVTZ-JKFIT
    Number of shells: 116
    Number of basis function: 392
    Number of Cartesian functions: 482
    Spherical Harmonics?: true
    Max angular momentum: 4

  Minimum eigenvalue in the overlap matrix is 9.3993473979E-02.
  Using Symmetric Orthogonalization.
  SCF Guess: Superposition of Atomic Densities via on-the-fly atomic UHF.

  ==> Iterations <==

                           Total Energy        Delta E     RMS |[F,P]|

   @DF-RHF iter   0:   -75.59170244802893   -7.55917e+01   5.95416e-02 
   @DF-RHF iter   1:   -75.56190988288367    2.97926e-02   9.48329e-03 
   @DF-RHF iter   2:   -75.58691294391760   -2.50031e-02   4.66035e-03 DIIS
   @DF-RHF iter   3:   -75.59159286090119   -4.67992e-03   8.33304e-04 DIIS
   @DF-RHF iter   4:   -75.59214840349574   -5.55543e-04   2.44448e-04 DIIS
   @DF-RHF iter   5:   -75.59221896908285   -7.05656e-05   4.28103e-05 DIIS
   @DF-RHF iter   6:   -75.59222132839763   -2.35931e-06   7.29553e-06 DIIS
   @DF-RHF iter   7:   -75.59222138577526   -5.73776e-08   9.49164e-07 DIIS
   @DF-RHF iter   8:   -75.59222138666685   -8.91589e-10   1.94443e-07 DIIS
   @DF-RHF iter   9:   -75.59222138669975   -3.28981e-11   3.38187e-08 DIIS
   @DF-RHF iter  10:   -75.59222138670046   -7.10543e-13   6.52540e-09 DIIS

  ==> Post-Iterations <==

    Orbital Energies (a.u.)
    -----------------------

    Doubly Occupied:                                                      

       1A    -20.443357     2A     -1.337735     3A     -0.694165  
       4A     -0.545882     5A     -0.487491  

    Virtual:                                                              

       6A      0.236257     7A      0.271230     8A      0.355979  
       9A      0.459700    10A      0.779752    11A      0.936346  
      12A      1.096984    13A      1.187340    14A      1.236655  
      15A      1.328306    16A      1.811862    17A      1.989267  
      18A      2.006771    19A      2.431747    20A      2.665268  
      21A      3.148379    22A      4.412408    23A      6.468735  
      24A      6.588559    25A      6.773966    26A     33.928157  

    Final Occupation by Irrep:
              A 
    DOCC [     5 ]

  Energy converged.

  @DF-RHF Final Energy:   -75.59222138670046

   => Energetics <=

    Nuclear Repulsion Energy =              9.1780389049035875
    One-Electron Energy =                -122.5232611406666621
    Two-Electron Energy =                  37.7530008490626372
    DFT Exchange-Correlation Energy =       0.0000000000000000
    Empirical Dispersion Energy =           0.0000000000000000
    PCM Polarization Energy =               0.0000000000000000
    EFP Energy =                            0.0000000000000000
    Total Energy =                        -75.5922213867004302

    Alert: EFP and PCM quantities not currently incorporated into SCF psivars.

Properties will be evaluated at   0.000000,   0.000000,   0.000000 Bohr
  ==> Properties <==


Properties computed using the SCF density matrix

  Nuclear Dipole Moment: (a.u.)
     X:    28.0137      Y:     0.2688      Z:     0.0000

  Electronic Dipole Moment: (a.u.)
     X:   -27.3730      Y:    -1.0648      Z:     0.0000

  Dipole Moment: (a.u.)
     X:     0.6407      Y:    -0.7961      Z:     0.0000     Total:     1.0219

  Dipole Moment: (Debye)
     X:     1.6285      Y:    -2.0234      Z:     0.0000     Total:     2.5973


  Saving occupied orbitals to File 180.

*** tstop() called on ds1.sherrill.chemistry.gatech.edu at Mon Mar 14 15:15:34 2016
Module time:
	user time   =       0.17 seconds =       0.00 minutes
	system time =       0.00 seconds =       0.00 minutes
	total time  =          0 seconds =       0.00 minutes
Total time:
	user time   =       3.06 seconds =       0.05 minutes
	system time =       0.10 seconds =       0.00 minutes
	total time  =          3 seconds =       0.05 minutes

  //>>>>>>>>>>>>>>>>>>>>>>>>>>>>>>>>>>>//
  //                RHF                //
  //<<<<<<<<<<<<<<<<<<<<<<<<<<<<<<<<<<<//


*** tstart() called on ds1.sherrill.chemistry.gatech.edu
*** at Mon Mar 14 15:15:34 2016


         ---------------------------------------------------------
                                   SCF
            by Justin Turney, Rob Parrish, and Andy Simmonett
                              RHF Reference
                        1 Threads,    250 MiB Core
         ---------------------------------------------------------

  ==> Geometry <==

    Molecular point group: c1
    Full point group: Cs

    Geometry (in Angstrom), charge = 0, multiplicity = 1:

       Center              X                  Y                   Z               Mass       
    ------------   -----------------  -----------------  -----------------  -----------------
           O(Gh)     -1.485163346097    -0.114724564047     0.000000000000    15.994914619560
           H(Gh)     -1.868415346097     0.762298435953     0.000000000000     1.007825032070
           H(Gh)     -0.533833346097     0.040507435953     0.000000000000     1.007825032070
           O          1.416468653903     0.111264435953     0.000000000000    15.994914619560
           H          1.746241653903    -0.373945564047    -0.758561000000     1.007825032070
           H          1.746241653903    -0.373945564047     0.758561000000     1.007825032070

  Running in c1 symmetry.

  Rotational constants: A =      7.15151  B =      0.21457  C =      0.21447 [cm^-1]
  Rotational constants: A = 214396.91676  B =   6432.69056  C =   6429.61813 [MHz]
  Nuclear repulsion =    9.178038904903588

  Charge       = 0
  Multiplicity = 1
  Electrons    = 10
  Nalpha       = 5
  Nbeta        = 5

  ==> Algorithm <==

  SCF Algorithm Type is DF.
  DIIS enabled.
  MOM disabled.
  Fractional occupation disabled.
  Guess Type is READ.
  Energy threshold   = 1.00e-08
  Density threshold  = 1.00e-08
  Integral threshold = 0.00e+00

  ==> Primary Basis <==

  Basis Set: AUG-CC-PVTZ
    Number of shells: 64
    Number of basis function: 184
    Number of Cartesian functions: 210
    Spherical Harmonics?: true
    Max angular momentum: 3

  ==> Pre-Iterations <==

   -------------------------------------------------------
    Irrep   Nso     Nmo     Nalpha   Nbeta   Ndocc  Nsocc
   -------------------------------------------------------
     A        184     184       0       0       0       0
   -------------------------------------------------------
    Total     184     184       5       5       5       0
   -------------------------------------------------------

  ==> Integral Setup <==

  ==> DFJK: Density-Fitted J/K Matrices <==

    J tasked:                  Yes
    K tasked:                  Yes
    wK tasked:                  No
    OpenMP threads:              1
    Integrals threads:           1
    Memory (MB):               178
    Algorithm:                Core
    Integral Cache:           LOAD
    Schwarz Cutoff:          1E-12
    Fitting Condition:       1E-12

   => Auxiliary Basis Set <=

  Basis Set: AUG-CC-PVTZ-JKFIT
    Number of shells: 116
    Number of basis function: 392
    Number of Cartesian functions: 482
    Spherical Harmonics?: true
    Max angular momentum: 4

  Minimum eigenvalue in the overlap matrix is 2.2768154804E-04.
  Using Symmetric Orthogonalization.
  SCF Guess: Reading in previously saved MOs, projecting if necessary.

  Computing basis set projection from 3-21G to AUG-CC-PVTZ.
  Recomputing DOCC and SOCC from number of alpha and beta electrons from previous calculation.
              A 
    DOCC [     5 ]

  ==> Iterations <==

                           Total Energy        Delta E     RMS |[F,P]|

   @DF-RHF iter   0:   -75.95714812270532   -7.59571e+01   4.42035e-03 
   @DF-RHF iter   1:   -76.05610667610939   -9.89586e-02   4.29392e-04 
   @DF-RHF iter   2:   -76.06000865147428   -3.90198e-03   1.10993e-04 DIIS
   @DF-RHF iter   3:   -76.06048587692231   -4.77225e-04   4.16699e-05 DIIS
   @DF-RHF iter   4:   -76.06055736702700   -7.14901e-05   1.72497e-05 DIIS
   @DF-RHF iter   5:   -76.06056571788679   -8.35086e-06   5.51444e-06 DIIS
   @DF-RHF iter   6:   -76.06056632782662   -6.09940e-07   5.67908e-07 DIIS
   @DF-RHF iter   7:   -76.06056634229918   -1.44726e-08   1.46727e-07 DIIS
   @DF-RHF iter   8:   -76.06056634330892   -1.00974e-09   2.32345e-08 DIIS
   @DF-RHF iter   9:   -76.06056634333333   -2.44142e-11   4.88674e-09 DIIS

  ==> Post-Iterations <==

    Orbital Energies (a.u.)
    -----------------------

    Doubly Occupied:                                                      

       1A    -20.567295     2A     -1.352577     3A     -0.716899  
       4A     -0.584426     5A     -0.510190  

    Virtual:                                                              

       6A      0.026692     7A      0.045310     8A      0.047541  
       9A      0.068779    10A      0.123048    11A      0.141888  
      12A      0.141944    13A      0.155423    14A      0.167541  
      15A      0.183400    16A      0.198699    17A      0.227683  
      18A      0.229142    19A      0.247616    20A      0.282320  
      21A      0.288853    22A      0.304600    23A      0.318925  
      24A      0.362822    25A      0.373710    26A      0.374464  
      27A      0.396862    28A      0.397100    29A      0.424873  
      30A      0.443166    31A      0.469057    32A      0.477832  
      33A      0.538188    34A      0.609162    35A      0.658323  
      36A      0.685914    37A      0.695992    38A      0.733460  
      39A      0.738708    40A      0.786277    41A      0.796179  
      42A      0.816618    43A      0.824014    44A      0.829866  
      45A      0.849433    46A      0.860811    47A      0.874205  
      48A      0.900871    49A      0.901819    50A      0.928105  
      51A      0.929883    52A      0.970005    53A      0.974875  
      54A      1.008274    55A      1.018953    56A      1.030146  
      57A      1.038544    58A      1.050022    59A      1.054071  
      60A      1.089872    61A      1.130157    62A      1.151198  
      63A      1.169613    64A      1.202208    65A      1.216618  
      66A      1.253866    67A      1.289230    68A      1.303442  
      69A      1.310510    70A      1.423572    71A      1.489735  
      72A      1.521010    73A      1.586992    74A      1.599884  
      75A      1.628599    76A      1.667952    77A      1.711509  
      78A      1.742370    79A      1.814676    80A      1.838406  
      81A      1.843511    82A      1.848764    83A      1.899160  
      84A      2.054105    85A      2.089071    86A      2.124478  
      87A      2.228672    88A      2.324227    89A      2.368233  
      90A      2.442000    91A      2.462284    92A      2.482177  
      93A      2.511233    94A      2.511987    95A      2.528562  
      96A      2.552773    97A      2.611724    98A      2.621398  
      99A      2.684232   100A      2.708464   101A      2.725480  
     102A      2.735520   103A      2.757643   104A      2.805249  
     105A      2.889558   106A      2.947975   107A      3.012610  
     108A      3.039480   109A      3.207412   110A      3.220282  
     111A      3.331781   112A      3.489343   113A      3.499015  
     114A      3.622574   115A      3.814176   116A      3.852816  
     117A      3.859900   118A      4.078953   119A      4.227882  
     120A      4.273105   121A      4.317152   122A      4.423080  
     123A      4.434661   124A      4.454591   125A      4.500903  
     126A      4.524548   127A      4.534769   128A      4.597141  
     129A      4.615080   130A      4.643828   131A      4.728830  
     132A      4.787833   133A      4.883003   134A      4.921822  
     135A      4.930585   136A      4.933181   137A      5.124518  
     138A      5.201139   139A      5.233322   140A      5.306358  
     141A      5.330788   142A      5.358082   143A      5.507916  
     144A      5.661489   145A      5.672837   146A      5.695520  
     147A      5.776347   148A      5.911540   149A      6.130899  
     150A      6.389877   151A      6.546205   152A      6.546859  
     153A      6.700584   154A      6.822461   155A      6.999841  
     156A      7.111319   157A      7.218483   158A      7.325818  
     159A      7.355119   160A      7.395046   161A      7.395207  
     162A      7.433172   163A      7.644344   164A      7.722811  
     165A      7.864190   166A      7.965779   167A      7.972870  
     168A      8.079161   169A      8.219427   170A      8.330177  
     171A      8.874157   172A      8.926120   173A      9.017816  
     174A      9.691309   175A      9.865224   176A     10.109780  
     177A     10.358724   178A     11.300939   179A     11.789584  
     180A     12.241258   181A     13.643280   182A     13.980130  
     183A     16.276144   184A     66.520554  

    Final Occupation by Irrep:
              A 
    DOCC [     5 ]

  Energy converged.

  @DF-RHF Final Energy:   -76.06056634333333

   => Energetics <=

    Nuclear Repulsion Energy =              9.1780389049035875
    One-Electron Energy =                -123.0144331230269756
    Two-Electron Energy =                  37.7758278747899183
    DFT Exchange-Correlation Energy =       0.0000000000000000
    Empirical Dispersion Energy =           0.0000000000000000
    PCM Polarization Energy =               0.0000000000000000
    EFP Energy =                            0.0000000000000000
    Total Energy =                        -76.0605663433334769

    Alert: EFP and PCM quantities not currently incorporated into SCF psivars.

Properties will be evaluated at   0.000000,   0.000000,   0.000000 Bohr
  ==> Properties <==


Properties computed using the SCF density matrix

  Nuclear Dipole Moment: (a.u.)
     X:    28.0137      Y:     0.2688      Z:     0.0000

  Electronic Dipole Moment: (a.u.)
     X:   -27.5756      Y:    -0.9130      Z:    -0.0000

  Dipole Moment: (a.u.)
     X:     0.4381      Y:    -0.6442      Z:    -0.0000     Total:     0.7791

  Dipole Moment: (Debye)
     X:     1.1136      Y:    -1.6375      Z:    -0.0000     Total:     1.9803


  Saving occupied orbitals to File 180.

*** tstop() called on ds1.sherrill.chemistry.gatech.edu at Mon Mar 14 15:15:35 2016
Module time:
	user time   =       0.90 seconds =       0.01 minutes
	system time =       0.03 seconds =       0.00 minutes
	total time  =          1 seconds =       0.02 minutes
Total time:
	user time   =       3.99 seconds =       0.07 minutes
	system time =       0.13 seconds =       0.00 minutes
	total time  =          4 seconds =       0.07 minutes

  //>>>>>>>>>>>>>>>>>>>>>>>>>>>>>>>>>>>//
  //    Monomer A HF (Monomer Basis)   //
  //<<<<<<<<<<<<<<<<<<<<<<<<<<<<<<<<<<<//


  //>>>>>>>>>>>>>>>>>>>>>>>>>>>>>>>>>>>//
  //       Guess SCF, 3-21G Basis      //
  //<<<<<<<<<<<<<<<<<<<<<<<<<<<<<<<<<<<//


*** tstart() called on ds1.sherrill.chemistry.gatech.edu
*** at Mon Mar 14 15:15:35 2016


         ---------------------------------------------------------
                                   SCF
            by Justin Turney, Rob Parrish, and Andy Simmonett
                              RHF Reference
                        1 Threads,    250 MiB Core
         ---------------------------------------------------------

  ==> Geometry <==

    Molecular point group: c1
    Full point group: Cs

    Geometry (in Angstrom), charge = 0, multiplicity = 1:

       Center              X                  Y                   Z               Mass       
    ------------   -----------------  -----------------  -----------------  -----------------
           O         -1.485163346097    -0.114724564047     0.000000000000    15.994914619560
           H         -1.868415346097     0.762298435953     0.000000000000     1.007825032070
           H         -0.533833346097     0.040507435953     0.000000000000     1.007825032070

  Running in c1 symmetry.

  Rotational constants: A =     22.30231  B =      0.43084  C =      0.42267 [cm^-1]
  Rotational constants: A = 668606.36294  B =  12916.17767  C =  12671.39099 [MHz]
  Nuclear repulsion =    9.163830145965930

  Charge       = 0
  Multiplicity = 1
  Electrons    = 10
  Nalpha       = 5
  Nbeta        = 5

  ==> Algorithm <==

  SCF Algorithm Type is DF.
  DIIS enabled.
  MOM disabled.
  Fractional occupation disabled.
  Guess Type is SAD.
  Energy threshold   = 1.00e-08
  Density threshold  = 1.00e-08
  Integral threshold = 0.00e+00

  ==> Primary Basis <==

  Basis Set: 3-21G
    Number of shells: 9
    Number of basis function: 13
    Number of Cartesian functions: 13
    Spherical Harmonics?: true
    Max angular momentum: 1

  ==> Pre-Iterations <==

   -------------------------------------------------------
    Irrep   Nso     Nmo     Nalpha   Nbeta   Ndocc  Nsocc
   -------------------------------------------------------
     A         13      13       0       0       0       0
   -------------------------------------------------------
    Total      13      13       5       5       5       0
   -------------------------------------------------------

  ==> Integral Setup <==

  ==> DFJK: Density-Fitted J/K Matrices <==

    J tasked:                  Yes
    K tasked:                  Yes
    wK tasked:                  No
    OpenMP threads:              1
    Integrals threads:           1
    Memory (MB):               178
    Algorithm:                Core
    Integral Cache:           NONE
    Schwarz Cutoff:          1E-12
    Fitting Condition:       1E-12

   => Auxiliary Basis Set <=

  Basis Set: AUG-CC-PVTZ-JKFIT
    Number of shells: 58
    Number of basis function: 196
    Number of Cartesian functions: 241
    Spherical Harmonics?: true
    Max angular momentum: 4

  Minimum eigenvalue in the overlap matrix is 1.0843177440E-01.
  Using Symmetric Orthogonalization.
  SCF Guess: Superposition of Atomic Densities via on-the-fly atomic UHF.

  ==> Iterations <==

                           Total Energy        Delta E     RMS |[F,P]|

   @DF-RHF iter   0:   -75.69586730841166   -7.56959e+01   1.19633e-01 
   @DF-RHF iter   1:   -75.52886123961265    1.67006e-01   2.46989e-02 
   @DF-RHF iter   2:   -75.57666994648470   -4.78087e-02   1.22280e-02 DIIS
   @DF-RHF iter   3:   -75.58450837808830   -7.83843e-03   2.25945e-03 DIIS
   @DF-RHF iter   4:   -75.58539193218552   -8.83554e-04   4.86657e-04 DIIS
   @DF-RHF iter   5:   -75.58544554002880   -5.36078e-05   9.71151e-05 DIIS
   @DF-RHF iter   6:   -75.58544805582471   -2.51580e-06   2.46877e-05 DIIS
   @DF-RHF iter   7:   -75.58544821302138   -1.57197e-07   2.73031e-06 DIIS
   @DF-RHF iter   8:   -75.58544821493398   -1.91260e-09   7.40996e-07 DIIS
   @DF-RHF iter   9:   -75.58544821507635   -1.42379e-10   9.38831e-08 DIIS
   @DF-RHF iter  10:   -75.58544821507847   -2.11742e-12   2.13178e-08 DIIS
   @DF-RHF iter  11:   -75.58544821507861   -1.42109e-13   2.54104e-09 DIIS

  ==> Post-Iterations <==

    Orbital Energies (a.u.)
    -----------------------

    Doubly Occupied:                                                      

       1A    -20.429018     2A     -1.328055     3A     -0.683607  
       4A     -0.537520     5A     -0.479572  

    Virtual:                                                              

       6A      0.262707     7A      0.360928     8A      1.190875  
       9A      1.305443    10A      1.782135    11A      1.867954  
      12A      2.015635    13A      3.112053  

    Final Occupation by Irrep:
              A 
    DOCC [     5 ]

  Energy converged.

  @DF-RHF Final Energy:   -75.58544821507861

   => Energetics <=

    Nuclear Repulsion Energy =              9.1638301459659299
    One-Electron Energy =                -122.5830154260746525
    Two-Electron Energy =                  37.8337370650300926
    DFT Exchange-Correlation Energy =       0.0000000000000000
    Empirical Dispersion Energy =           0.0000000000000000
    PCM Polarization Energy =               0.0000000000000000
    EFP Energy =                            0.0000000000000000
    Total Energy =                        -75.5854482150786282

    Alert: EFP and PCM quantities not currently incorporated into SCF psivars.

Properties will be evaluated at   0.000000,   0.000000,   0.000000 Bohr
  ==> Properties <==


Properties computed using the SCF density matrix

  Nuclear Dipole Moment: (a.u.)
     X:   -26.9920      Y:    -0.2173      Z:     0.0000

  Electronic Dipole Moment: (a.u.)
     X:    27.4511      Y:     1.0596      Z:     0.0000

  Dipole Moment: (a.u.)
     X:     0.4591      Y:     0.8423      Z:     0.0000     Total:     0.9593

  Dipole Moment: (Debye)
     X:     1.1668      Y:     2.1409      Z:     0.0000     Total:     2.4382


  Saving occupied orbitals to File 180.

*** tstop() called on ds1.sherrill.chemistry.gatech.edu at Mon Mar 14 15:15:35 2016
Module time:
	user time   =       0.10 seconds =       0.00 minutes
	system time =       0.00 seconds =       0.00 minutes
	total time  =          0 seconds =       0.00 minutes
Total time:
	user time   =       4.11 seconds =       0.07 minutes
	system time =       0.13 seconds =       0.00 minutes
	total time  =          4 seconds =       0.07 minutes

  //>>>>>>>>>>>>>>>>>>>>>>>>>>>>>>>>>>>//
  //                RHF                //
  //<<<<<<<<<<<<<<<<<<<<<<<<<<<<<<<<<<<//


*** tstart() called on ds1.sherrill.chemistry.gatech.edu
*** at Mon Mar 14 15:15:35 2016


         ---------------------------------------------------------
                                   SCF
            by Justin Turney, Rob Parrish, and Andy Simmonett
                              RHF Reference
                        1 Threads,    250 MiB Core
         ---------------------------------------------------------

  ==> Geometry <==

    Molecular point group: c1
    Full point group: Cs

    Geometry (in Angstrom), charge = 0, multiplicity = 1:

       Center              X                  Y                   Z               Mass       
    ------------   -----------------  -----------------  -----------------  -----------------
           O         -1.485163346097    -0.114724564047     0.000000000000    15.994914619560
           H         -1.868415346097     0.762298435953     0.000000000000     1.007825032070
           H         -0.533833346097     0.040507435953     0.000000000000     1.007825032070

  Running in c1 symmetry.

  Rotational constants: A =     22.30231  B =      0.43084  C =      0.42267 [cm^-1]
  Rotational constants: A = 668606.36294  B =  12916.17767  C =  12671.39099 [MHz]
  Nuclear repulsion =    9.163830145965930

  Charge       = 0
  Multiplicity = 1
  Electrons    = 10
  Nalpha       = 5
  Nbeta        = 5

  ==> Algorithm <==

  SCF Algorithm Type is DF.
  DIIS enabled.
  MOM disabled.
  Fractional occupation disabled.
  Guess Type is READ.
  Energy threshold   = 1.00e-08
  Density threshold  = 1.00e-08
  Integral threshold = 0.00e+00

  ==> Primary Basis <==

  Basis Set: AUG-CC-PVTZ
    Number of shells: 32
    Number of basis function: 92
    Number of Cartesian functions: 105
    Spherical Harmonics?: true
    Max angular momentum: 3

  ==> Pre-Iterations <==

   -------------------------------------------------------
    Irrep   Nso     Nmo     Nalpha   Nbeta   Ndocc  Nsocc
   -------------------------------------------------------
     A         92      92       0       0       0       0
   -------------------------------------------------------
    Total      92      92       5       5       5       0
   -------------------------------------------------------

  ==> Integral Setup <==

  ==> DFJK: Density-Fitted J/K Matrices <==

    J tasked:                  Yes
    K tasked:                  Yes
    wK tasked:                  No
    OpenMP threads:              1
    Integrals threads:           1
    Memory (MB):               178
    Algorithm:                Core
    Integral Cache:           NONE
    Schwarz Cutoff:          1E-12
    Fitting Condition:       1E-12

   => Auxiliary Basis Set <=

  Basis Set: AUG-CC-PVTZ-JKFIT
    Number of shells: 58
    Number of basis function: 196
    Number of Cartesian functions: 241
    Spherical Harmonics?: true
    Max angular momentum: 4

  Minimum eigenvalue in the overlap matrix is 3.8720972747E-04.
  Using Symmetric Orthogonalization.
  SCF Guess: Reading in previously saved MOs, projecting if necessary.

  Computing basis set projection from 3-21G to AUG-CC-PVTZ.
  Recomputing DOCC and SOCC from number of alpha and beta electrons from previous calculation.
              A 
    DOCC [     5 ]

  ==> Iterations <==

                           Total Energy        Delta E     RMS |[F,P]|

   @DF-RHF iter   0:   -75.95188998945892   -7.59519e+01   8.63880e-03 
   @DF-RHF iter   1:   -76.05535072981361   -1.03461e-01   8.93999e-04 
   @DF-RHF iter   2:   -76.05968634735416   -4.33562e-03   2.25425e-04 DIIS
   @DF-RHF iter   3:   -76.06024835093999   -5.62004e-04   8.44257e-05 DIIS
   @DF-RHF iter   4:   -76.06033217326637   -8.38223e-05   2.40414e-05 DIIS
   @DF-RHF iter   5:   -76.06033633370176   -4.16044e-06   1.01308e-05 DIIS
   @DF-RHF iter   6:   -76.06033677173329   -4.38032e-07   1.34530e-06 DIIS
   @DF-RHF iter   7:   -76.06033678740576   -1.56725e-08   2.96905e-07 DIIS
   @DF-RHF iter   8:   -76.06033678831932   -9.13559e-10   4.15003e-08 DIIS
   @DF-RHF iter   9:   -76.06033678833680   -1.74794e-11   8.11766e-09 DIIS

  ==> Post-Iterations <==

    Orbital Energies (a.u.)
    -----------------------

    Doubly Occupied:                                                      

       1A    -20.567851     2A     -1.352058     3A     -0.715718  
       4A     -0.584661     5A     -0.510143  

    Virtual:                                                              

       6A      0.029385     7A      0.047682     8A      0.135914  
       9A      0.158703    10A      0.175129    11A      0.183021  
      12A      0.227266    13A      0.244932    14A      0.265329  
      15A      0.300294    16A      0.310311    17A      0.365781  
      18A      0.437501    19A      0.466237    20A      0.599386  
      21A      0.658336    22A      0.708202    23A      0.722504  
      24A      0.731723    25A      0.830601    26A      0.846269  
      27A      0.891982    28A      0.912687    29A      0.918572  
      30A      0.922429    31A      0.930697    32A      0.962054  
      33A      1.021148    34A      1.043564    35A      1.082796  
      36A      1.108839    37A      1.176253    38A      1.181790  
      39A      1.260749    40A      1.510525    41A      1.536685  
      42A      1.583806    43A      1.804582    44A      1.819108  
      45A      1.985452    46A      2.117943    47A      2.262839  
      48A      2.316215    49A      2.326452    50A      2.418515  
      51A      2.420764    52A      2.442832    53A      2.479679  
      54A      2.677556    55A      2.698372    56A      2.771154  
      57A      2.817947    58A      2.884481    59A      3.652664  
      60A      3.743931    61A      4.017974    62A      4.084091  
      63A      4.167386    64A      4.247693    65A      4.290687  
      66A      4.375952    67A      4.377828    68A      4.405416  
      69A      4.516861    70A      4.724754    71A      4.843099  
      72A      5.146747    73A      5.151465    74A      5.253937  
      75A      5.326462    76A      5.523288    77A      5.667091  
      78A      6.177575    79A      6.517457    80A      6.714710  
      81A      6.901038    82A      7.136935    83A      7.258070  
      84A      7.308245    85A      7.317655    86A      7.333681  
      87A      7.361933    88A      7.537687    89A      7.904320  
      90A      7.926892    91A      8.807025    92A     15.734177  

    Final Occupation by Irrep:
              A 
    DOCC [     5 ]

  Energy converged.

  @DF-RHF Final Energy:   -76.06033678833680

   => Energetics <=

    Nuclear Repulsion Energy =              9.1638301459659299
    One-Electron Energy =                -122.9874691249837610
    Two-Electron Energy =                  37.7633021906810669
    DFT Exchange-Correlation Energy =       0.0000000000000000
    Empirical Dispersion Energy =           0.0000000000000000
    PCM Polarization Energy =               0.0000000000000000
    EFP Energy =                            0.0000000000000000
    Total Energy =                        -76.0603367883367696

    Alert: EFP and PCM quantities not currently incorporated into SCF psivars.

Properties will be evaluated at   0.000000,   0.000000,   0.000000 Bohr
  ==> Properties <==


Properties computed using the SCF density matrix

  Nuclear Dipole Moment: (a.u.)
     X:   -26.9920      Y:    -0.2173      Z:     0.0000

  Electronic Dipole Moment: (a.u.)
     X:    27.3681      Y:     0.9032      Z:     0.0000

  Dipole Moment: (a.u.)
     X:     0.3761      Y:     0.6859      Z:     0.0000     Total:     0.7822

  Dipole Moment: (Debye)
     X:     0.9559      Y:     1.7433      Z:     0.0000     Total:     1.9882


  Saving occupied orbitals to File 180.

*** tstop() called on ds1.sherrill.chemistry.gatech.edu at Mon Mar 14 15:15:35 2016
Module time:
	user time   =       0.25 seconds =       0.00 minutes
	system time =       0.01 seconds =       0.00 minutes
	total time  =          0 seconds =       0.00 minutes
Total time:
	user time   =       4.40 seconds =       0.07 minutes
	system time =       0.14 seconds =       0.00 minutes
	total time  =          4 seconds =       0.07 minutes

  //>>>>>>>>>>>>>>>>>>>>>>>>>>>>>>>>>>>//
  //    Monomer B HF (Monomer Basis)   //
  //<<<<<<<<<<<<<<<<<<<<<<<<<<<<<<<<<<<//


  //>>>>>>>>>>>>>>>>>>>>>>>>>>>>>>>>>>>//
  //       Guess SCF, 3-21G Basis      //
  //<<<<<<<<<<<<<<<<<<<<<<<<<<<<<<<<<<<//


*** tstart() called on ds1.sherrill.chemistry.gatech.edu
*** at Mon Mar 14 15:15:35 2016


         ---------------------------------------------------------
                                   SCF
            by Justin Turney, Rob Parrish, and Andy Simmonett
                              RHF Reference
                        1 Threads,    250 MiB Core
         ---------------------------------------------------------

  ==> Geometry <==

    Molecular point group: c1
    Full point group: Cs

    Geometry (in Angstrom), charge = 0, multiplicity = 1:

       Center              X                  Y                   Z               Mass       
    ------------   -----------------  -----------------  -----------------  -----------------
           O          1.416468653903     0.111264435953     0.000000000000    15.994914619560
           H          1.746241653903    -0.373945564047    -0.758561000000     1.007825032070
           H          1.746241653903    -0.373945564047     0.758561000000     1.007825032070

  Running in c1 symmetry.

  Rotational constants: A =     10.52737  B =      0.43539  C =      0.42746 [cm^-1]
  Rotational constants: A = 315602.51277  B =  13052.73471  C =  12814.97348 [MHz]
  Nuclear repulsion =    9.178038904903588

  Charge       = 0
  Multiplicity = 1
  Electrons    = 10
  Nalpha       = 5
  Nbeta        = 5

  ==> Algorithm <==

  SCF Algorithm Type is DF.
  DIIS enabled.
  MOM disabled.
  Fractional occupation disabled.
  Guess Type is SAD.
  Energy threshold   = 1.00e-08
  Density threshold  = 1.00e-08
  Integral threshold = 0.00e+00

  ==> Primary Basis <==

  Basis Set: 3-21G
    Number of shells: 9
    Number of basis function: 13
    Number of Cartesian functions: 13
    Spherical Harmonics?: true
    Max angular momentum: 1

  ==> Pre-Iterations <==

   -------------------------------------------------------
    Irrep   Nso     Nmo     Nalpha   Nbeta   Ndocc  Nsocc
   -------------------------------------------------------
     A         13      13       0       0       0       0
   -------------------------------------------------------
    Total      13      13       5       5       5       0
   -------------------------------------------------------

  ==> Integral Setup <==

  ==> DFJK: Density-Fitted J/K Matrices <==

    J tasked:                  Yes
    K tasked:                  Yes
    wK tasked:                  No
    OpenMP threads:              1
    Integrals threads:           1
    Memory (MB):               178
    Algorithm:                Core
    Integral Cache:           NONE
    Schwarz Cutoff:          1E-12
    Fitting Condition:       1E-12

   => Auxiliary Basis Set <=

  Basis Set: AUG-CC-PVTZ-JKFIT
    Number of shells: 58
    Number of basis function: 196
    Number of Cartesian functions: 241
    Spherical Harmonics?: true
    Max angular momentum: 4

  Minimum eigenvalue in the overlap matrix is 1.0818414523E-01.
  Using Symmetric Orthogonalization.
  SCF Guess: Superposition of Atomic Densities via on-the-fly atomic UHF.

  ==> Iterations <==

                           Total Energy        Delta E     RMS |[F,P]|

   @DF-RHF iter   0:   -75.59170648623474   -7.55917e+01   1.18910e-01 
   @DF-RHF iter   1:   -75.55648294634321    3.52235e-02   1.91284e-02 
   @DF-RHF iter   2:   -75.58055845915263   -2.40755e-02   8.96067e-03 DIIS
   @DF-RHF iter   3:   -75.58489064525160   -4.33219e-03   1.57880e-03 DIIS
   @DF-RHF iter   4:   -75.58539226093741   -5.01616e-04   4.77320e-04 DIIS
   @DF-RHF iter   5:   -75.58546284789671   -7.05870e-05   7.77025e-05 DIIS
   @DF-RHF iter   6:   -75.58546488537058   -2.03747e-06   1.52367e-05 DIIS
   @DF-RHF iter   7:   -75.58546494286148   -5.74909e-08   1.88542e-06 DIIS
   @DF-RHF iter   8:   -75.58546494367280   -8.11326e-10   3.70211e-07 DIIS
   @DF-RHF iter   9:   -75.58546494370390   -3.10934e-11   6.33736e-08 DIIS
   @DF-RHF iter  10:   -75.58546494370472   -8.24230e-13   1.30776e-08 DIIS
   @DF-RHF iter  11:   -75.58546494370484   -1.13687e-13   2.38757e-09 DIIS

  ==> Post-Iterations <==

    Orbital Energies (a.u.)
    -----------------------

    Doubly Occupied:                                                      

       1A    -20.428485     2A     -1.328550     3A     -0.684819  
       4A     -0.537276     5A     -0.479503  

    Virtual:                                                              

       6A      0.263243     7A      0.361564     8A      1.192947  
       9A      1.306018    10A      1.782284    11A      1.867051  
      12A      2.016081    13A      3.112581  

    Final Occupation by Irrep:
              A 
    DOCC [     5 ]

  Energy converged.

  @DF-RHF Final Energy:   -75.58546494370484

   => Energetics <=

    Nuclear Repulsion Energy =              9.1780389049035875
    One-Electron Energy =                -122.6097420547227159
    Two-Electron Energy =                  37.8462382061142577
    DFT Exchange-Correlation Energy =       0.0000000000000000
    Empirical Dispersion Energy =           0.0000000000000000
    PCM Polarization Energy =               0.0000000000000000
    EFP Energy =                            0.0000000000000000
    Total Energy =                        -75.5854649437048636

    Alert: EFP and PCM quantities not currently incorporated into SCF psivars.

Properties will be evaluated at   0.000000,   0.000000,   0.000000 Bohr
  ==> Properties <==


Properties computed using the SCF density matrix

  Nuclear Dipole Moment: (a.u.)
     X:    28.0137      Y:     0.2688      Z:     0.0000

  Electronic Dipole Moment: (a.u.)
     X:   -27.4753      Y:    -1.0610      Z:    -0.0000

  Dipole Moment: (a.u.)
     X:     0.5384      Y:    -0.7922      Z:    -0.0000     Total:     0.9578

  Dipole Moment: (Debye)
     X:     1.3685      Y:    -2.0136      Z:    -0.0000     Total:     2.4346


  Saving occupied orbitals to File 180.

*** tstop() called on ds1.sherrill.chemistry.gatech.edu at Mon Mar 14 15:15:35 2016
Module time:
	user time   =       0.09 seconds =       0.00 minutes
	system time =       0.00 seconds =       0.00 minutes
	total time  =          0 seconds =       0.00 minutes
Total time:
	user time   =       4.51 seconds =       0.08 minutes
	system time =       0.14 seconds =       0.00 minutes
	total time  =          4 seconds =       0.07 minutes

  //>>>>>>>>>>>>>>>>>>>>>>>>>>>>>>>>>>>//
  //                RHF                //
  //<<<<<<<<<<<<<<<<<<<<<<<<<<<<<<<<<<<//


*** tstart() called on ds1.sherrill.chemistry.gatech.edu
*** at Mon Mar 14 15:15:35 2016


         ---------------------------------------------------------
                                   SCF
            by Justin Turney, Rob Parrish, and Andy Simmonett
                              RHF Reference
                        1 Threads,    250 MiB Core
         ---------------------------------------------------------

  ==> Geometry <==

    Molecular point group: c1
    Full point group: Cs

    Geometry (in Angstrom), charge = 0, multiplicity = 1:

       Center              X                  Y                   Z               Mass       
    ------------   -----------------  -----------------  -----------------  -----------------
           O          1.416468653903     0.111264435953     0.000000000000    15.994914619560
           H          1.746241653903    -0.373945564047    -0.758561000000     1.007825032070
           H          1.746241653903    -0.373945564047     0.758561000000     1.007825032070

  Running in c1 symmetry.

  Rotational constants: A =     10.52737  B =      0.43539  C =      0.42746 [cm^-1]
  Rotational constants: A = 315602.51277  B =  13052.73471  C =  12814.97348 [MHz]
  Nuclear repulsion =    9.178038904903588

  Charge       = 0
  Multiplicity = 1
  Electrons    = 10
  Nalpha       = 5
  Nbeta        = 5

  ==> Algorithm <==

  SCF Algorithm Type is DF.
  DIIS enabled.
  MOM disabled.
  Fractional occupation disabled.
  Guess Type is READ.
  Energy threshold   = 1.00e-08
  Density threshold  = 1.00e-08
  Integral threshold = 0.00e+00

  ==> Primary Basis <==

  Basis Set: AUG-CC-PVTZ
    Number of shells: 32
    Number of basis function: 92
    Number of Cartesian functions: 105
    Spherical Harmonics?: true
    Max angular momentum: 3

  ==> Pre-Iterations <==

   -------------------------------------------------------
    Irrep   Nso     Nmo     Nalpha   Nbeta   Ndocc  Nsocc
   -------------------------------------------------------
     A         92      92       0       0       0       0
   -------------------------------------------------------
    Total      92      92       5       5       5       0
   -------------------------------------------------------

  ==> Integral Setup <==

  ==> DFJK: Density-Fitted J/K Matrices <==

    J tasked:                  Yes
    K tasked:                  Yes
    wK tasked:                  No
    OpenMP threads:              1
    Integrals threads:           1
    Memory (MB):               178
    Algorithm:                Core
    Integral Cache:           NONE
    Schwarz Cutoff:          1E-12
    Fitting Condition:       1E-12

   => Auxiliary Basis Set <=

  Basis Set: AUG-CC-PVTZ-JKFIT
    Number of shells: 58
    Number of basis function: 196
    Number of Cartesian functions: 241
    Spherical Harmonics?: true
    Max angular momentum: 4

  Minimum eigenvalue in the overlap matrix is 3.8594230789E-04.
  Using Symmetric Orthogonalization.
  SCF Guess: Reading in previously saved MOs, projecting if necessary.

  Computing basis set projection from 3-21G to AUG-CC-PVTZ.
  Recomputing DOCC and SOCC from number of alpha and beta electrons from previous calculation.
              A 
    DOCC [     5 ]

  ==> Iterations <==

                           Total Energy        Delta E     RMS |[F,P]|

   @DF-RHF iter   0:   -75.95192210453632   -7.59519e+01   8.64306e-03 
   @DF-RHF iter   1:   -76.05550838008358   -1.03586e-01   8.94430e-04 
   @DF-RHF iter   2:   -76.05984132167123   -4.33294e-03   2.25257e-04 DIIS
   @DF-RHF iter   3:   -76.06040171579062   -5.60394e-04   8.41926e-05 DIIS
   @DF-RHF iter   4:   -76.06048496476699   -8.32490e-05   2.38015e-05 DIIS
   @DF-RHF iter   5:   -76.06048907900178   -4.11423e-06   1.00344e-05 DIIS
   @DF-RHF iter   6:   -76.06048950549145   -4.26490e-07   1.34732e-06 DIIS
   @DF-RHF iter   7:   -76.06048952115661   -1.56652e-08   2.96579e-07 DIIS
   @DF-RHF iter   8:   -76.06048952206902   -9.12408e-10   4.12412e-08 DIIS
   @DF-RHF iter   9:   -76.06048952208636   -1.73372e-11   8.03254e-09 DIIS

  ==> Post-Iterations <==

    Orbital Energies (a.u.)
    -----------------------

    Doubly Occupied:                                                      

       1A    -20.567479     2A     -1.352685     3A     -0.717004  
       4A     -0.584520     5A     -0.510205  

    Virtual:                                                              

       6A      0.029419     7A      0.047674     8A      0.135953  
       9A      0.158588    10A      0.175136    11A      0.182959  
      12A      0.227485    13A      0.244972    14A      0.265256  
      15A      0.300604    16A      0.310513    17A      0.365800  
      18A      0.437856    19A      0.466514    20A      0.599626  
      21A      0.658254    22A      0.708436    23A      0.722297  
      24A      0.731677    25A      0.830896    26A      0.846236  
      27A      0.891610    28A      0.913015    29A      0.918705  
      30A      0.922508    31A      0.930657    32A      0.962674  
      33A      1.021920    34A      1.044047    35A      1.083119  
      36A      1.109385    37A      1.176416    38A      1.182012  
      39A      1.260116    40A      1.511191    41A      1.538014  
      42A      1.585284    43A      1.803537    44A      1.818434  
      45A      1.988357    46A      2.118913    47A      2.262868  
      48A      2.316660    49A      2.325900    50A      2.418772  
      51A      2.420775    52A      2.442804    53A      2.478885  
      54A      2.676957    55A      2.698215    56A      2.772267  
      57A      2.820338    58A      2.885304    59A      3.654749  
      60A      3.747503    61A      4.018362    62A      4.086009  
      63A      4.171227    64A      4.248767    65A      4.294134  
      66A      4.377566    67A      4.378670    68A      4.406568  
      69A      4.516797    70A      4.725826    71A      4.846048  
      72A      5.147651    73A      5.156520    74A      5.259538  
      75A      5.332008    76A      5.526832    77A      5.672311  
      78A      6.177945    79A      6.518060    80A      6.715194  
      81A      6.901536    82A      7.139038    83A      7.260073  
      84A      7.316306    85A      7.319526    86A      7.331712  
      87A      7.363085    88A      7.542843    89A      7.911368  
      90A      7.928728    91A      8.813465    92A     15.782966  

    Final Occupation by Irrep:
              A 
    DOCC [     5 ]

  Energy converged.

  @DF-RHF Final Energy:   -76.06048952208636

   => Energetics <=

    Nuclear Repulsion Energy =              9.1780389049035875
    One-Electron Energy =                -123.0132714513931944
    Two-Electron Energy =                  37.7747430244033566
    DFT Exchange-Correlation Energy =       0.0000000000000000
    Empirical Dispersion Energy =           0.0000000000000000
    PCM Polarization Energy =               0.0000000000000000
    EFP Energy =                            0.0000000000000000
    Total Energy =                        -76.0604895220862431

    Alert: EFP and PCM quantities not currently incorporated into SCF psivars.

Properties will be evaluated at   0.000000,   0.000000,   0.000000 Bohr
  ==> Properties <==


Properties computed using the SCF density matrix

  Nuclear Dipole Moment: (a.u.)
     X:    28.0137      Y:     0.2688      Z:     0.0000

  Electronic Dipole Moment: (a.u.)
     X:   -27.5752      Y:    -0.9141      Z:    -0.0000

  Dipole Moment: (a.u.)
     X:     0.4386      Y:    -0.6453      Z:    -0.0000     Total:     0.7802

  Dipole Moment: (Debye)
     X:     1.1148      Y:    -1.6402      Z:    -0.0000     Total:     1.9832


  Saving occupied orbitals to File 180.

*** tstop() called on ds1.sherrill.chemistry.gatech.edu at Mon Mar 14 15:15:36 2016
Module time:
	user time   =       0.22 seconds =       0.00 minutes
	system time =       0.01 seconds =       0.00 minutes
	total time  =          1 seconds =       0.02 minutes
Total time:
	user time   =       4.75 seconds =       0.08 minutes
	system time =       0.15 seconds =       0.00 minutes
	total time  =          5 seconds =       0.08 minutes

  //>>>>>>>>>>>>>>>>>>>>>>>>>>>>>>>>>>>//
  //        SAPT Charge Transfer       //
  //<<<<<<<<<<<<<<<<<<<<<<<<<<<<<<<<<<<//


  //>>>>>>>>>>>>>>>>>>>>>>>>>>>>>>>>>>>//
  //          Dimer Basis SAPT         //
  //<<<<<<<<<<<<<<<<<<<<<<<<<<<<<<<<<<<//


*** tstart() called on ds1.sherrill.chemistry.gatech.edu
*** at Mon Mar 14 15:15:36 2016

        SAPT0  
    Ed Hohenstein
     6 June 2009

      Orbital Information
  --------------------------
    NSO        =       184
    NMO        =       184
    NRI        =       396
    NRI (Elst) =       392
    NOCC A     =         5
    NOCC B     =         5
    FOCC A     =         0
    FOCC B     =         0
    NVIR A     =       179
    NVIR B     =       179

    Elst10,r            =    -0.013273570134 H
    Exch10              =     0.011203318816 H
    Exch10 (S^2)        =     0.011123665807 H

    Iter     Energy (mH)           dE (mH)          Residual      Time (s)
       1      -1.35688233       1.356882334       5.203208249             0
       2      -1.52439081       0.167508480       1.894379222             0
       3      -1.54822611       0.023835294       0.530127254             0
       4      -1.54460122      -0.003624884       0.178008540             0
       5      -1.54292042      -0.001680801       0.024692249             0
       6      -1.54335588       0.000435461       0.004482125             0
       7      -1.54331235      -0.000043533       0.001013756             0
       8      -1.54331362       0.000001272       0.000223926             0
       9      -1.54331495       0.000001321       0.000044219             0
      10      -1.54331464      -0.000000306       0.000007980             0
      11      -1.54331468       0.000000039       0.000000997             0

    CHF Iterations converged


    Iter     Energy (mH)           dE (mH)          Residual      Time (s)
       1      -2.57980267       2.579802673       9.782133548             0
       2      -3.20780116       0.627998489       4.022881438             0
       3      -3.27214545       0.064344292       1.039139073             0
       4      -3.26147242      -0.010673036       0.282263118             1
       5      -3.25818444      -0.003287978       0.044613687             1
       6      -3.25912982       0.000945376       0.008997824             1
       7      -3.25899650      -0.000133315       0.001850274             1
       8      -3.25901167       0.000015167       0.000377168             1
       9      -3.25901030      -0.000001369       0.000087442             1
      10      -3.25901011      -0.000000190       0.000023633             1
      11      -3.25901022       0.000000109       0.000004345             1
      12      -3.25901020      -0.000000018       0.000000561             1

    CHF Iterations converged

    Ind20,r (A<-B)      =    -0.001543314678 H
    Ind20,r (B<-A)      =    -0.003259010201 H
    Ind20,r             =    -0.004802324879 H
    Exch-Ind20,r (A<-B) =     0.001051531553 H
    Exch-Ind20,r (B<-A) =     0.001616298416 H
    Exch-Ind20,r        =     0.002667829970 H
    Disp20              =    -0.004059179114 H
    Disp20 (SS)         =    -0.002029589557 H
    Disp20 (OS)         =    -0.002029589557 H
    Exch-Disp20         =     0.000741473473 H
    Exch-Disp20 (SS)    =     0.000491487681 H
    Exch-Disp20 (OS)    =     0.000249985792 H

    SAPT Results 
  --------------------------------------------------------------------------
    Electrostatics              -13.27357013 mH      -8.32929136 kcal mol^-1
      Elst10,r                  -13.27357013 mH      -8.32929136 kcal mol^-1

    Exchange                     11.20331882 mH       7.03018899 kcal mol^-1
      Exch10                     11.20331882 mH       7.03018899 kcal mol^-1
      Exch10(S^2)                11.12366581 mH       6.98020597 kcal mol^-1

    Induction                    -3.58523688 mH      -2.24977020 kcal mol^-1
      Ind20,r                    -4.80232488 mH      -3.01350448 kcal mol^-1
      Exch-Ind20,r                2.66782997 mH       1.67408865 kcal mol^-1
      delta HF,r (2)             -1.45074197 mH      -0.91035437 kcal mol^-1

    Dispersion                   -3.31770564 mH      -2.08189181 kcal mol^-1
      Disp20                     -4.05917911 mH      -2.54717346 kcal mol^-1
      Exch-Disp20                 0.74147347 mH       0.46528165 kcal mol^-1
      Disp20 (SS)                -2.02958956 mH      -1.27358673 kcal mol^-1
      Disp20 (OS)                -2.02958956 mH      -1.27358673 kcal mol^-1
      Exch-Disp20 (SS)            0.49148768 mH       0.30841319 kcal mol^-1
      Exch-Disp20 (OS)            0.24998579 mH       0.15686846 kcal mol^-1


  Total HF                           -5.65548820 mH      -3.54887257 kcal mol^-1
  Total SAPT0                        -8.97319384 mH      -5.63076438 kcal mol^-1

  Special recipe for scaled SAPT0 (see Manual):
    Electrostatics sSAPT0       -13.27357013 mH      -8.32929136 kcal mol^-1
    Exchange sSAPT0              11.20331882 mH       7.03018899 kcal mol^-1
    Induction sSAPT0             -3.52751509 mH      -2.21354923 kcal mol^-1
    Dispersion sSAPT0            -3.30166295 mH      -2.07182487 kcal mol^-1
  Total sSAPT0                       -8.89942936 mH      -5.58447647 kcal mol^-1

  --------------------------------------------------------------------------

*** tstop() called on ds1.sherrill.chemistry.gatech.edu at Mon Mar 14 15:15:39 2016
Module time:
	user time   =       3.02 seconds =       0.05 minutes
	system time =       0.67 seconds =       0.01 minutes
	total time  =          3 seconds =       0.05 minutes
Total time:
	user time   =       7.77 seconds =       0.13 minutes
	system time =       0.82 seconds =       0.01 minutes
	total time  =          8 seconds =       0.13 minutes

  //>>>>>>>>>>>>>>>>>>>>>>>>>>>>>>>>>>>//
  //         Monomer Basis SAPT        //
  //<<<<<<<<<<<<<<<<<<<<<<<<<<<<<<<<<<<//


*** tstart() called on ds1.sherrill.chemistry.gatech.edu
*** at Mon Mar 14 15:15:39 2016

        SAPT0  
    Ed Hohenstein
     6 June 2009

      Orbital Information
  --------------------------
    NSO        =       184
    NSO A      =        92
    NSO B      =        92
    NMO        =       184
    NMO A      =        92
    NMO B      =        92
    NRI        =       396
    NRI (Elst) =       392
    NOCC A     =         5
    NOCC B     =         5
    FOCC A     =         0
    FOCC B     =         0
    NVIR A     =        87
    NVIR B     =        87

    Elst10,r            =    -0.013315276664 H
    Exch10              =     0.010684201597 H
    Exch10 (S^2)        =     0.010609387914 H

    Iter     Energy (mH)           dE (mH)          Residual      Time (s)
       1      -0.56251399       0.562513992       4.496031202             0
       2      -0.65274151       0.090227515       1.898220606             0
       3      -0.67476433       0.022022826       0.503908050             0
       4      -0.67502161       0.000257275       0.176621290             0
       5      -0.67325834      -0.001763264       0.019660132             0
       6      -0.67343723       0.000178886       0.003607955             0
       7      -0.67342748      -0.000009752       0.001007498             0
       8      -0.67342575      -0.000001725       0.000167332             0
       9      -0.67342639       0.000000640       0.000039316             0
      10      -0.67342628      -0.000000108       0.000006356             0
      11      -0.67342629       0.000000010       0.000000958             0

    CHF Iterations converged


    Iter     Energy (mH)           dE (mH)          Residual      Time (s)
       1      -1.40099528       1.400995277       8.420204066             0
       2      -1.78777318       0.386777905       3.984437175             0
       3      -1.85287049       0.065097309       0.951129096             0
       4      -1.85148653      -0.001383965       0.263795662             0
       5      -1.84796557      -0.003520957       0.033931848             0
       6      -1.84846255       0.000496980       0.006189461             0
       7      -1.84841740      -0.000045147       0.001682541             0
       8      -1.84842249       0.000005090       0.000316529             0
       9      -1.84842247      -0.000000019       0.000075323             0
      10      -1.84842229      -0.000000186       0.000021825             0
      11      -1.84842234       0.000000051       0.000003364             0
      12      -1.84842233      -0.000000005       0.000000499             0

    CHF Iterations converged

    Ind20,r (A<-B)      =    -0.000673426295 H
    Ind20,r (B<-A)      =    -0.001848422333 H
    Ind20,r             =    -0.002521848628 H
    Exch-Ind20,r (A<-B) =     0.000338132685 H
    Exch-Ind20,r (B<-A) =     0.000697541973 H
    Exch-Ind20,r        =     0.001035674658 H
    Disp20              =    -0.003419153649 H
    Disp20 (SS)         =    -0.001709576825 H
    Disp20 (OS)         =    -0.001709576825 H
    Exch-Disp20         =     0.000400654682 H
    Exch-Disp20 (SS)    =     0.000233434499 H
    Exch-Disp20 (OS)    =     0.000167220183 H

    SAPT Results 
  --------------------------------------------------------------------------
    Electrostatics              -13.31527666 mH      -8.35546260 kcal mol^-1
      Elst10,r                  -13.31527666 mH      -8.35546260 kcal mol^-1

    Exchange                     10.68420160 mH       6.70443800 kcal mol^-1
      Exch10                     10.68420160 mH       6.70443800 kcal mol^-1
      Exch10(S^2)                10.60938791 mH       6.65749171 kcal mol^-1

    Induction                    -3.14656624 mH      -1.97450021 kcal mol^-1
      Ind20,r                    -2.52184863 mH      -1.58248397 kcal mol^-1
      Exch-Ind20,r                1.03567466 mH       0.64989569 kcal mol^-1
      delta HF,r (2)             -1.66039227 mH      -1.04191192 kcal mol^-1

    Dispersion                   -3.01849897 mH      -1.89413678 kcal mol^-1
      Disp20                     -3.41915365 mH      -2.14555140 kcal mol^-1
      Exch-Disp20                 0.40065468 mH       0.25141462 kcal mol^-1
      Disp20 (SS)                -1.70957682 mH      -1.07277570 kcal mol^-1
      Disp20 (OS)                -1.70957682 mH      -1.07277570 kcal mol^-1
      Exch-Disp20 (SS)            0.23343450 mH       0.14648237 kcal mol^-1
      Exch-Disp20 (OS)            0.16722018 mH       0.10493225 kcal mol^-1


  Total HF                           -5.77764131 mH      -3.62552481 kcal mol^-1
  Total SAPT0                        -8.79614028 mH      -5.51966159 kcal mol^-1

  Special recipe for scaled SAPT0 (see Manual):
    Electrostatics sSAPT0       -13.31527666 mH      -8.35546260 kcal mol^-1
    Exchange sSAPT0              10.68420160 mH       6.70443800 kcal mol^-1
    Induction sSAPT0             -3.12450173 mH      -1.96065452 kcal mol^-1
    Dispersion sSAPT0            -3.00996323 mH      -1.88878052 kcal mol^-1
  Total sSAPT0                       -8.76554003 mH      -5.50045964 kcal mol^-1

  --------------------------------------------------------------------------

*** tstop() called on ds1.sherrill.chemistry.gatech.edu at Mon Mar 14 15:15:41 2016
Module time:
	user time   =       1.57 seconds =       0.03 minutes
	system time =       0.29 seconds =       0.00 minutes
	total time  =          2 seconds =       0.03 minutes
Total time:
	user time   =       9.34 seconds =       0.16 minutes
	system time =       1.11 seconds =       0.02 minutes
	total time  =         10 seconds =       0.17 minutes


    SAPT Charge Transfer Analysis
  -----------------------------------------------------------------------------
    SAPT Induction (Dimer Basis)         -2.1345 mH       -1.3394 kcal mol^-1
    SAPT Induction (Monomer Basis)       -1.4862 mH       -0.9326 kcal mol^-1
    SAPT Charge Transfer                 -0.6483 mH       -0.4068 kcal mol^-1

	SAPT Charge-Transfer..............................................PASSED

*** PSI4 exiting successfully. Buy a developer a beer!
