    -----------------------------------------------------------------------
          PSI4: An Open-Source Ab Initio Electronic Structure Package
                              PSI 4.0.0-beta3+ Driver

               Git: Rev {master} 4a83440e5d9835586a0955ebeee589b8fd300489

    J. M. Turney, A. C. Simmonett, R. M. Parrish, E. G. Hohenstein,
    F. A. Evangelista, J. T. Fermann, B. J. Mintz, L. A. Burns, J. J. Wilke,
    M. L. Abrams, N. J. Russ, M. L. Leininger, C. L. Janssen, E. T. Seidl,
    W. D. Allen, H. F. Schaefer, R. A. King, E. F. Valeev, C. D. Sherrill,
    and T. D. Crawford, WIREs Comput. Mol. Sci., (2011) (doi: 10.1002/wcms.93)

                         Additional Contributions by
    A. E. DePrince, M. Saitow, U. Bozkaya, A. Yu. Sokolov
    -----------------------------------------------------------------------

    Process ID:   5223
    PSI4DATADIR: /home/ugur/psi4/lib

    Using LocalCommunicator (Number of processes = 1)

    Memory level set to 256.000 MB

  ==> Input File <==

--------------------------------------------------------------------------
#! OCEPA cc-pVDZ energy with ROHF initial guess for the NO radical

refnuc      =   25.59060766929188  #TEST
refscf      = -129.25292774600072 #TEST
refocepa    = -129.67618786551816 #TEST

memory 250 mb

molecule no {
0 2
n
o 1 1.158
}

set global {
  basis cc-pcvdz
  reference rohf
  guess gwh
}
energy('ocepa')

compare_values(refnuc, get_variable("NUCLEAR REPULSION ENERGY"), 6, "Nuclear Repulsion Energy (a.u.)"); #TEST
compare_values(refscf, get_variable("SCF TOTAL ENERGY"), 6, "SCF Energy (a.u.)");             #TEST
compare_values(refocepa, get_variable("OCEPA(0) TOTAL ENERGY"), 6, "OCEPA(0) Total Energy (a.u.)");                   #TEST
--------------------------------------------------------------------------

  Memory set to 250.000 MiB by Python script.

*** tstart() called on ub
*** at Fri Dec 14 21:38:03 2012


         ---------------------------------------------------------
                                   SCF
            by Justin Turney, Rob Parrish, and Andy Simmonett
                             ROHF Reference
                        2 Threads,    250 MiB Core
         ---------------------------------------------------------

  ==> Geometry <==

    Molecular point group: c2v
    Full point group: C_inf_v

    Geometry (in Angstrom), charge = 0, multiplicity = 2:

       Center              X                  Y                   Z       
    ------------   -----------------  -----------------  -----------------
           N          0.000000000000     0.000000000000    -0.617445101450
           O          0.000000000000     0.000000000000     0.540554898550

  Running in c2v symmetry.

  Nuclear repulsion =   25.590607669291881

  Charge       = 0
  Multiplicity = 2
  Electrons    = 15
  Nalpha       = 8
  Nbeta        = 7

  ==> Algorithm <==

  SCF Algorithm Type is PK.
  DIIS enabled.
  MOM disabled.
  Fractional occupation disabled.
  Guess Type is GWH.
  Energy threshold   = 1.00e-08
  Density threshold  = 1.00e-06
  Integral threshold = 0.00e+00

  ==> Primary Basis <==

  Basis Set: cc-pcvdz
    Number of shells: 16
    Number of basis function: 36
    Number of Cartesian functions: 38
    Spherical Harmonics?: true
    Max angular momentum: 2

  ==> Pre-Iterations <==

   -------------------------------------------------------
    Irrep   Nso     Nmo     Nalpha   Nbeta   Ndocc  Nsocc
   -------------------------------------------------------
     A1        18      18       0       0       0       0
     A2         2       2       0       0       0       0
     B1         8       8       0       0       0       0
     B2         8       8       0       0       0       0
   -------------------------------------------------------
    Total      36      36       8       7       7       1
   -------------------------------------------------------

  ==> Integral Setup <==

 MINTS: Wrapper to libmints.
   by Justin Turney

   Calculation information:
      Number of atoms:                   2
      Number of AO shells:              16
      Number of SO shells:              16
      Number of primitives:             48
      Number of atomic orbitals:        38
      Number of basis functions:        36

      Number of irreps:                  4
      Number of functions per irrep: [  18    2    8    8 ]

      Overlap, kinetic, potential, dipole, and quadrupole integrals
        stored in file 35.

      Computing two-electron integrals...done
      Computed 50830 non-zero two-electron integrals.
        Stored in file 33.

	Batch   1 pq = [       0,     246] index = [             0,30381]
  ==> DiskJK: Disk-Based J/K Matrices <==

    J tasked:                  Yes
    K tasked:                  Yes
    wK tasked:                  No
    Memory (MB):               178
    Schwarz Cutoff:          0E+00

  Minimum eigenvalue in the overlap matrix is 1.4366348670E-02.
  Using Symmetric Orthogonalization.
  SCF Guess: Generalized Wolfsberg-Helmholtz.

  Initial ROHF energy:   -82.17678471775399

  ==> Iterations <==

                        Total Energy        Delta E     Density RMS

   @ROHF iter   1:  -119.21648665423437   -3.70397e+01   0.00000e+00 
   @ROHF iter   2:  -128.35518646196843   -9.13870e+00   1.45664e-01 DIIS
   @ROHF iter   3:  -128.34065293212336    1.45335e-02   1.06568e-01 DIIS
   @ROHF iter   4:  -129.21688040559962   -8.76227e-01   4.79628e-02 DIIS
   @ROHF iter   5:  -129.25147978270127   -3.45994e-02   1.12375e-02 DIIS
   @ROHF iter   6:  -129.25253953243879   -1.05975e-03   2.31882e-03 DIIS
   @ROHF iter   7:  -129.25272474704991   -1.85215e-04   8.35613e-04 DIIS
   @ROHF iter   8:  -129.25286320946807   -1.38462e-04   8.40394e-04 DIIS
   @ROHF iter   9:  -129.25292154113782   -5.83317e-05   7.20439e-04 DIIS
   @ROHF iter  10:  -129.25292735513702   -5.81400e-06   2.59301e-04 DIIS
   @ROHF iter  11:  -129.25292773701219   -3.81875e-07   7.38472e-05 DIIS
   @ROHF iter  12:  -129.25292774588459   -8.87241e-09   1.18001e-05 DIIS
   @ROHF iter  13:  -129.25292774600072   -1.16131e-10   1.29021e-06 DIIS

  ==> Post-Iterations <==

	Orbital Energies (a.u.)
	-----------------------

	Doubly Occupied:                                                      

	   1A1   -20.692458     2A1   -15.723703     3A1    -1.589190  
	   4A1    -0.923210     1B1    -0.685673     5A1    -0.672465  
	   1B2    -0.641597  

	Singly Occupied:                                                      

	   2B1    -0.118984  

	Virtual:                                                              

	   2B2     0.105599     6A1     0.515999     3B1     0.913058  
	   3B2     0.928926     7A1     0.951819     8A1     0.972228  
	   9A1     1.120578     4B1     1.197561     4B2     1.212811  
	  10A1     1.866186     1A2     1.940385    11A1     1.940529  
	   5B2     1.971229     5B1     1.973659    12A1     2.815202  
	   2A2     2.924462    13A1     2.924473     6B2     3.496840  
	   6B1     3.507097    14A1     3.858164    15A1    26.123746  
	   7B2    30.336007     7B1    30.343090    16A1    30.945873  
	  17A1    34.360222     8B2    39.092313     8B1    39.098440  
	  18A1    39.701528  

	Final Occupation by Irrep:
	         A1    A2    B1    B2 
	DOCC [     5,    0,    1,    1 ]
	SOCC [     0,    0,    1,    0 ]

  Energy converged.

  @ROHF Final Energy:  -129.25292774600072

   => Energetics <=

    Nuclear Repulsion Energy =             25.5906076692918809
    One-Electron Energy =                -227.4114173163713986
    Two-Electron Energy =                  72.5678819010788203
    DFT Exchange-Correlation Energy =       0.0000000000000000
    Empirical Dispersion Energy =           0.0000000000000000
    Total Energy =                       -129.2529277460006938


Properties computed using the SCF density matrix


Properties will be evaluated at   0.000000,   0.000000,   0.000000 Bohr
  ==> Properties <==

  Nuclear Dipole Moment: (a.u.)
     X:     0.0000      Y:     0.0000      Z:     0.0044

  Electronic Dipole Moment: (a.u.)
     X:     0.0000      Y:     0.0000      Z:    -0.1535

  Dipole Moment: (a.u.)
     X:     0.0000      Y:     0.0000      Z:    -0.1491     Total:     0.1491

  Dipole Moment: (Debye)
     X:     0.0000      Y:     0.0000      Z:    -0.3789     Total:     0.3789


  Saving occupied orbitals to File 180.

*** tstop() called on ub at Fri Dec 14 21:38:04 2012
Module time:
	user time   =       0.52 seconds =       0.01 minutes
	system time =       0.01 seconds =       0.00 minutes
	total time  =          1 seconds =       0.02 minutes
Total time:
	user time   =       0.52 seconds =       0.01 minutes
	system time =       0.01 seconds =       0.00 minutes
	total time  =          1 seconds =       0.02 minutes

*** tstart() called on ub
*** at Fri Dec 14 21:38:04 2012



  Options:
  ----------------------------------------------------------------------------
  BENCH                  => 0                
  CACHELEVEL             => 2                
  CCL_ENERGY             => FALSE            
  CC_DIIS_MAX_VECS       => 6                
  CC_DIIS_MIN_VECS       => 2                
  CC_MAXITER             => 50               
  CEPA_OS_SCALE          => 1.27             
  CEPA_SOS_SCALE         => 1.3              
  CEPA_SS_SCALE          => 1.13             
  CEPA_TYPE              => CEPA0            
  CUTOFF                 => 14               
  DEBUG                  => 0                
  DERTYPE                => NONE             
  DIE_IF_NOT_CONVERGED   => TRUE             
  DOCC                   => [  ]             
  DO_DIIS                => TRUE             
  DO_LEVEL_SHIFT         => FALSE            
  DO_SCS                 => FALSE            
  DO_SOS                 => FALSE            
  E3_SCALE               => 0.25             
  E_CONVERGENCE          => 1e-08            
  FREEZE_CORE            => FALSE            
  FROZEN_DOCC            => [  ]             
  FROZEN_UOCC            => [  ]             
  LEVEL_SHIFT            => 0.02             
  LINEQ_SOLVER           => CDGESV           
  MAT_NUM_COLUMN_PRINT   => 5                
  MAX_MOGRAD_CONVERGENCE => 0.001            
  MOGRAD_DAMPING         => 1                
  MO_DIIS_NUM_VECS       => 6                
  MO_MAXITER             => 50               
  MO_READ                => FALSE            
  MO_STEP_MAX            => 0.5              
  MO_WRITE               => FALSE            
  MP2_OS_SCALE           => 1.2              
  MP2_SOS_SCALE          => 1.3              
  MP2_SOS_SCALE2         => 1.2              
  MP2_SS_SCALE           => 0.333333         
  NAT_ORBS               => FALSE            
  NUM_FROZEN_DOCC        => 0                
  NUM_FROZEN_UOCC        => 0                
  OCC_ORBS_PRINT         => FALSE            
  OPT_METHOD             => ORB_RESP         
  ORB_RESP_SOLVER        => PCG              
  ORTH_TYPE              => MGS              
  PCG_BETA_TYPE          => FLETCHER_REEVES  
  PCG_CONVERGENCE        => 1e-06            
  PCG_MAXITER            => 30               
  PRINT                  => 1                
  PROPERTIES             => [  ]             
  PROPERTIES_ORIGIN      => [  ]             
  PUREAM                 => TRUE             
  RMS_MOGRAD_CONVERGENCE => 1e-05            
  R_CONVERGENCE          => 1e-05            
  SCS_TYPE               => SCS              
  SOCC                   => [  ]             
  SOS_TYPE               => SOS              
  TPDM_ABCD_TYPE         => DIRECT           
  UNITS                  => ANGSTROMS        
  WFN                    => SCF              
  WFN_TYPE               => OCEPA           !


 ============================================================================== 
 ============================================================================== 
 ============================================================================== 

                       OCEPA (OO-CEPA)   
              Program Written by Ugur Bozkaya,
              Latest Revision December 14, 2012.

 ============================================================================== 
 ============================================================================== 
 ============================================================================== 

	MO spaces per irreps... 

	IRREP   FC   AOCC  BOCC  AVIR    BVIR  FV 
	==========================================
	  A1     0     5     5    13     13     0
	  A2     0     0     0     2      2     0
	  B1     0     2     1     6      7     0
	  B2     0     1     1     7      7     0
	==========================================

	Computing MP2 energy using SCF MOs (Canonical MP2)... 
	============================================================================== 
	Nuclear Repulsion Energy (a.u.)    : 25.59060766929188
	SCF Energy (a.u.)                  : -129.25292774600072
	REF Energy (a.u.)                  : -129.25292774600277
	Alpha-Alpha Contribution (a.u.)    : -0.04689643172650
	Alpha-Beta Contribution (a.u.)     : -0.30742330772047
	Beta-Beta Contribution (a.u.)      : -0.05020849444099
	Scaled_SS Correlation Energy (a.u.): -0.03236830872250
	Scaled_OS Correlation Energy (a.u.): -0.36890796926456
	SCS-MP2 Total Energy (a.u.)        : -129.65420402398985
	SOS-MP2 Total Energy (a.u.)        : -129.65257804603937
	SCSN-MP2 Total Energy (a.u.)       : -129.42383241605756
	SCS-MI-MP2 Total Energy (a.u.)     : -129.50116242384703
	SCS-MP2-VDW Total Energy (a.u.)    : -129.69498204296872
	SOS-PI-MP2 Total Energy (a.u.)     : -129.68332037681142
	MP2 Correlation Energy (a.u.)      : -0.40452823388796
	MP2 Total Energy (a.u.)            : -129.65745597989073
	============================================================================== 

	Number of alpha independent-pairs: 84
	Number of beta independent-pairs : 79

 ============================================================================== 
 ================ Performing OCEPA iterations... ============================== 
 ============================================================================== 
	            Minimizing CEPA-L Functional 
	            --------------------------- 
 Iter       E_total           DE           RMS MO Grad      MAX MO Grad      RMS T2    
 ----    ---------------    ----------     -----------      -----------     ---------- 
   1     -129.6602460643     -2.79e-03       7.33e-04         2.09e-02        4.49e-06 
   2     -129.6723306579     -1.21e-02       5.09e-04         2.40e-02        4.02e-07 
   3     -129.6736464799     -1.32e-03       4.98e-04         1.61e-02        5.16e-07 
   4     -129.6747474821     -1.10e-03       4.65e-04         1.77e-02        3.54e-07 
   5     -129.6752570160     -5.10e-04       4.65e-04         1.58e-02        2.02e-07 
   6     -129.6757020511     -4.45e-04       1.14e-05         7.20e-04        1.86e-07 
   7     -129.6758840809     -1.82e-04       7.23e-06         4.88e-04        1.09e-07 

 ============================================================================== 
 ======================== OCEPA ITERATIONS ARE CONVERGED ====================== 
 ============================================================================== 

	Orbitals are optimized now.
	Switching to the standard CEPA computation... 

  
 ============================================================================== 
 ================ Performing CEPA iterations... =============================== 
 ============================================================================== 

  Iter    E_corr           E_total            DE           T2 RMS        
  ----   -------------    ---------------    ----------   ----------    
   1     -0.4230485267    -129.6759762727     -9.22e-05     7.26e-08 
   2     -0.4232642299    -129.6761919759     -2.16e-04     4.76e-08 
   3     -0.4232382080    -129.6761659540      2.60e-05     1.20e-08 
   4     -0.4232574898    -129.6761852358     -1.93e-05     1.02e-08 
   5     -0.4232589714    -129.6761867174     -1.48e-06     3.27e-09 
   6     -0.4232606225    -129.6761883685     -1.65e-06     1.29e-09 
   7     -0.4232600979    -129.6761878439      5.25e-07     6.76e-10 
   8     -0.4232600795    -129.6761878255      1.84e-08     9.34e-10 
   9     -0.4232601124    -129.6761878584     -3.29e-08     4.86e-10 
  10     -0.4232601261    -129.6761878721     -1.37e-08     2.36e-10 
  11     -0.4232601101    -129.6761878561      1.60e-08     1.35e-10 
  12     -0.4232601195    -129.6761878655     -9.38e-09     7.40e-11 

 ============================================================================== 
 ======================== CEPA ITERATIONS ARE CONVERGED ======================= 
 ============================================================================== 

	============================================================================== 
	================ OCEPA FINAL RESULTS ========================================= 
	============================================================================== 
	Nuclear Repulsion Energy (a.u.)    : 25.59060766929188
	SCF Energy (a.u.)                  : -129.25292774600072
	REF Energy (a.u.)                  : -129.25416957959607
	SCS-OCEPA(0) Total Energy (a.u.)   : -129.77869030681731
	SOS-OCEPA(0) Total Energy (a.u.)   : -129.69654160365354
	OCEPA(0) Correlation Energy (a.u.) : -0.42326011951744
	Eocepa - Eref (a.u.)               : -0.42201828592209
	OCEPA(0) Total Energy (a.u.)       : -129.67618786551816
	============================================================================== 


*** tstop() called on ub at Fri Dec 14 21:38:08 2012
Module time:
	user time   =       3.63 seconds =       0.06 minutes
	system time =       0.68 seconds =       0.01 minutes
	total time  =          4 seconds =       0.07 minutes
Total time:
	user time   =       4.15 seconds =       0.07 minutes
	system time =       0.69 seconds =       0.01 minutes
	total time  =          5 seconds =       0.08 minutes

*** PSI4 exiting successfully. Buy a developer a beer!
