
    -----------------------------------------------------------------------
          Psi4: An Open-Source Ab Initio Electronic Structure Package
                               Psi4 1.1rc3.dev5 

                         Git: Rev {master} 3fbd859 


    R. M. Parrish, L. A. Burns, D. G. A. Smith, A. C. Simmonett,
    A. E. DePrince III, E. G. Hohenstein, U. Bozkaya, A. Yu. Sokolov,
    R. Di Remigio, R. M. Richard, J. F. Gonthier, A. M. James,
    H. R. McAlexander, A. Kumar, M. Saitow, X. Wang, B. P. Pritchard,
    P. Verma, H. F. Schaefer III, K. Patkowski, R. A. King, E. F. Valeev,
    F. A. Evangelista, J. M. Turney, T. D. Crawford, and C. D. Sherrill,
    J. Chem. Theory Comput. in press (2017).
    (doi: 10.1021/acs.jctc.7b00174)

    -----------------------------------------------------------------------


    Psi4 started on: Monday, 15 May 2017 03:37PM

    Process ID:  14861
    PSIDATADIR: /home/psilocaluser/gits/hrw-direct/objdir4/stage/usr/local/psi4/share/psi4
    Memory:     500.0 MiB
    Threads:    1
    
  ==> Input File <==

--------------------------------------------------------------------------
#! OMP3 cc-pVDZ energy with B3LYP initial guess for the NO radical

refnuc      =   25.59060766929188  #TEST
refscf      = -129.90365333160776 #TEST
refomp3     = -129.66096058511843 #TEST

molecule no {
0 2
n
o 1 1.158
}

set {
  basis cc-pcvdz
  reference uks
  dft_functional b3lyp
}
energy('omp3')

compare_values(refnuc, get_variable("NUCLEAR REPULSION ENERGY"), 6, "Nuclear Repulsion Energy (a.u.)"); #TEST
compare_values(refscf, get_variable("SCF TOTAL ENERGY"), 6, "SCF Energy (a.u.)");             #TEST
compare_values(refomp3, get_variable("OMP3 TOTAL ENERGY"), 6, "OMP3 Total Energy (a.u.)");                   #TEST
--------------------------------------------------------------------------

*** tstart() called on psinet
*** at Mon May 15 15:37:45 2017

   => Loading Basis Set <=

    Name: CC-PCVDZ
    Role: ORBITAL
    Keyword: BASIS
    atoms 1 entry N          line   195 file /home/psilocaluser/gits/hrw-direct/objdir4/stage/usr/local/psi4/share/psi4/basis/cc-pcvdz.gbs 
    atoms 2 entry O          line   229 file /home/psilocaluser/gits/hrw-direct/objdir4/stage/usr/local/psi4/share/psi4/basis/cc-pcvdz.gbs 


         ---------------------------------------------------------
                                   SCF
            by Justin Turney, Rob Parrish, and Andy Simmonett
                              UKS Reference
                        1 Threads,    500 MiB Core
         ---------------------------------------------------------

  ==> Geometry <==

    Molecular point group: c2v
    Full point group: C_inf_v

    Geometry (in Angstrom), charge = 0, multiplicity = 2:

       Center              X                  Y                   Z               Mass       
    ------------   -----------------  -----------------  -----------------  -----------------
           N          0.000000000000     0.000000000000    -0.617445101450    14.003074004780
           O          0.000000000000     0.000000000000     0.540554898550    15.994914619560

  Running in c2v symmetry.

  Rotational constants: A = ************  B =      1.68371  C =      1.68371 [cm^-1]
  Rotational constants: A = ************  B =  50476.22913  C =  50476.22913 [MHz]
  Nuclear repulsion =   25.590607669291881

  Charge       = 0
  Multiplicity = 2
  Electrons    = 15
  Nalpha       = 8
  Nbeta        = 7

  ==> Algorithm <==

  SCF Algorithm Type is PK.
  DIIS enabled.
  MOM disabled.
  Fractional occupation disabled.
  Guess Type is GWH.
  Energy threshold   = 1.00e-08
  Density threshold  = 1.00e-08
  Integral threshold = 0.00e+00

  ==> Primary Basis <==

  Basis Set: CC-PCVDZ
    Blend: CC-PCVDZ
    Number of shells: 16
    Number of basis function: 36
    Number of Cartesian functions: 38
    Spherical Harmonics?: true
    Max angular momentum: 2

  ==> DFT Potential <==

   => B3LYP Composite Functional <= 

    B3LYP Hybrid-GGA Exchange-Correlation Functional (VWN1-RPA)

    P.J. Stephens et. al., J. Phys. Chem., 98, 11623-11627, 1994

    Points   =           5000
    Deriv    =              1
    GGA      =           TRUE
    Meta     =          FALSE

    X_LRC        =          FALSE
    X_Hybrid     =           TRUE
    X_Alpha      =   2.000000E-01
    X_Omega      =   0.000000E+00
    C_LRC        =          FALSE
    C_Hybrid     =          FALSE
    C_Alpha      =   0.000000E+00
    C_Omega      =   0.000000E+00

   => Exchange Functionals <=

    0.8000    B3_X
    0.2000      HF 

   => Correlation Functionals <=

    0.1900 VWN3RPA_C
    0.8100   LYP_C

   => Molecular Quadrature <=

    Radial Scheme    =       TREUTLER
    Pruning Scheme   =           FLAT
    Nuclear Scheme   =       TREUTLER

    BS radius alpha  =              1
    Pruning alpha    =              1
    Radial Points    =             75
    Spherical Points =            302
    Total Points     =          41658
    Total Blocks     =             42
    Max Points       =           2631
    Max Functions    =             36

  ==> Pre-Iterations <==

   -------------------------------------------------------
    Irrep   Nso     Nmo     Nalpha   Nbeta   Ndocc  Nsocc
   -------------------------------------------------------
     A1        18      18       0       0       0       0
     A2         2       2       0       0       0       0
     B1         8       8       0       0       0       0
     B2         8       8       0       0       0       0
   -------------------------------------------------------
    Total      36      36       8       7       7       1
   -------------------------------------------------------

  ==> Integral Setup <==

  Using in-core PK algorithm.
   Calculation information:
      Number of atoms:                   2
      Number of AO shells:              16
      Number of primitives:             48
      Number of atomic orbitals:        38
      Number of basis functions:        36

      Integral cutoff                 1.00e-12
      Number of threads:                 1

  Performing in-core PK
  Using 444222 doubles for integral storage.
  We computed 9125 shell quartets total.
  Whereas there are 9316 unique shell quartets.
  ==> DiskJK: Disk-Based J/K Matrices <==

    J tasked:                  Yes
    K tasked:                  Yes
    wK tasked:                  No
    Memory (MB):               375
    Schwarz Cutoff:          1E-12

    OpenMP threads:              1
  Minimum eigenvalue in the overlap matrix is 1.4366348670E-02.
  Using Symmetric Orthogonalization.

  SCF Guess: Generalized Wolfsberg-Helmholtz.

  ==> Iterations <==

                        Total Energy        Delta E     RMS |[F,P]|

   @UKS iter   1:  -119.84803313846079   -1.19848e+02   8.99231e-01 
   @UKS iter   2:  -127.17219290172949   -7.32416e+00   1.18164e-01 DIIS
   @UKS iter   3:  -125.32063230898794    1.85156e+00   1.51003e-01 DIIS
   @UKS iter   4:  -129.81931033446176   -4.49868e+00   2.08974e-02 DIIS
   @UKS iter   5:  -129.89830631881114   -7.89960e-02   5.70061e-03 DIIS
   @UKS iter   6:  -129.90288387495303   -4.57756e-03   2.07858e-03 DIIS
   @UKS iter   7:  -129.90364447566833   -7.60601e-04   2.11841e-04 DIIS
   @UKS iter   8:  -129.90365266580545   -8.19014e-06   3.45426e-05 DIIS
   @UKS iter   9:  -129.90365308933104   -4.23526e-07   1.78675e-05 DIIS
   @UKS iter  10:  -129.90365328990279   -2.00572e-07   9.86520e-06 DIIS
   @UKS iter  11:  -129.90365332981548   -3.99127e-08   2.55696e-06 DIIS
   @UKS iter  12:  -129.90365333166761   -1.85213e-09   1.51542e-07 DIIS
   @UKS iter  13:  -129.90365333167642   -8.81073e-12   1.97207e-08 DIIS
   @UKS iter  14:  -129.90365333167668   -2.55795e-13   1.81866e-09 DIIS

  ==> Post-Iterations <==

   @Spin Contamination Metric:   2.447266164E-03
   @S^2 Expected:                7.500000000E-01
   @S^2 Observed:                7.524472662E-01
   @S   Expected:                5.000000000E-01
   @S   Observed:                5.000000000E-01

    Orbital Energies (a.u.)
    -----------------------

    Alpha Occupied:                                                       

       1A1   -19.268533     2A1   -14.456586     3A1    -1.239497  
       4A1    -0.683576     1B1    -0.528046     1B2    -0.501460  
       5A1    -0.476650     2B1    -0.210987  

    Alpha Virtual:                                                        

       2B2    -0.100487     6A1     0.322146     3B1     0.657826  
       3B2     0.671811     7A1     0.679002     8A1     0.742194  
       9A1     0.842090     4B1     0.904967     4B2     0.914506  
      10A1     1.567684     1A2     1.637745    11A1     1.641078  
       5B1     1.667894     5B2     1.669724    12A1     2.450275  
       2A2     2.541376    13A1     2.542914     6B1     3.102551  
       6B2     3.103685    14A1     3.429074    15A1    24.943200  
       7B1    29.171354     7B2    29.174211    16A1    29.779339  
      17A1    32.962687     8B1    37.724057     8B2    37.725303  
      18A1    38.332445  

    Beta Occupied:                                                        

       1A1   -19.258332     2A1   -14.441195     3A1    -1.217714  
       4A1    -0.646706     1B2    -0.491300     1B1    -0.454449  
       5A1    -0.452578  

    Beta Virtual:                                                         

       2B2    -0.084260     2B1    -0.041527     6A1     0.337575  
       3B2     0.681912     7A1     0.692306     3B1     0.712344  
       8A1     0.763757     9A1     0.849327     4B2     0.919466  
       4B1     0.942406    10A1     1.581710     5B2     1.674776  
      11A1     1.685801     1A2     1.685906     5B1     1.708365  
      12A1     2.471962    13A1     2.573566     2A2     2.573584  
       6B2     3.108760     6B1     3.139949    14A1     3.443759  
      15A1    24.961296     7B2    29.181569     7B1    29.204531  
      16A1    29.786098    17A1    32.974914     8B2    37.729039  
       8B1    37.746859    18A1    38.336704  

    Final Occupation by Irrep:
             A1    A2    B1    B2 
    DOCC [     5,    0,    1,    1 ]
    SOCC [     0,    0,    1,    0 ]

  Energy converged.

  @UKS Final Energy:  -129.90365333167668

   => Energetics <=

    Nuclear Repulsion Energy =             25.5906076692918809
    One-Electron Energy =                -227.7240955051734090
    Two-Electron Energy =                  84.6634392671742830
    DFT Exchange-Correlation Energy =     -12.4336047629694288
    Empirical Dispersion Energy =           0.0000000000000000
    PCM Polarization Energy =               0.0000000000000000
    EFP Energy =                            0.0000000000000000
    Total Energy =                       -129.9036533316766793


  UHF NO Occupations:
  HONO-2 :    5 A1 1.9996155
  HONO-1 :    1 B1 1.9993715
  HONO-0 :    2 B1 1.0000000
  LUNO+0 :    3 B1 0.0006285
  LUNO+1 :    6 A1 0.0003845
  LUNO+2 :    2 B2 0.0001351
  LUNO+3 :    7 A1 0.0000691



Properties will be evaluated at   0.000000,   0.000000,   0.000000 Bohr

Properties computed using the SCF density matrix

  Nuclear Dipole Moment: (a.u.)
     X:     0.0000      Y:     0.0000      Z:     0.0044

  Electronic Dipole Moment: (a.u.)
     X:     0.0000      Y:     0.0000      Z:     0.0202

  Dipole Moment: (a.u.)
     X:     0.0000      Y:     0.0000      Z:     0.0246     Total:     0.0246

  Dipole Moment: (Debye)
     X:     0.0000      Y:     0.0000      Z:     0.0625     Total:     0.0625


*** tstop() called on psinet at Mon May 15 15:37:49 2017
Module time:
	user time   =       3.36 seconds =       0.06 minutes
	system time =       0.02 seconds =       0.00 minutes
	total time  =          4 seconds =       0.07 minutes
Total time:
	user time   =       3.36 seconds =       0.06 minutes
	system time =       0.02 seconds =       0.00 minutes
	total time  =          4 seconds =       0.07 minutes
 MINTS: Wrapper to libmints.
   by Justin Turney

   Calculation information:
      Number of threads:                 1
      Number of atoms:                   2
      Number of AO shells:              16
      Number of SO shells:              16
      Number of primitives:             48
      Number of atomic orbitals:        38
      Number of basis functions:        36

      Number of irreps:                  4
      Integral cutoff                 0.00e+00
      Number of functions per irrep: [  18    2    8    8 ]

 OEINTS: Overlap, kinetic, potential, dipole, and quadrupole integrals
         stored in file 35.

      Computing two-electron integrals...done
      Computed 57271 non-zero two-electron integrals.
        Stored in file 33.


*** tstart() called on psinet
*** at Mon May 15 15:37:49 2017



  Options:
  ----------------------------------------------------------------------------
  ACTIVE                      => [  ]             
  BASIS_RELATIVISTIC          => (empty)          
  BENCH                       => 0                
  CACHELEVEL                  => 2                
  CCL_ENERGY                  => FALSE            
  CC_DIIS_MAX_VECS            => 6                
  CC_DIIS_MIN_VECS            => 2                
  CC_MAXITER                  => 50               
  CC_TYPE                     => CONV             
  CEPA_OS_SCALE               => 1.27             
  CEPA_SOS_SCALE              => 1.3              
  CEPA_SS_SCALE               => 1.13             
  CEPA_TYPE                   => CEPA0            
  CI_TYPE                     => CONV             
  CUBEPROP_BASIS_FUNCTIONS    => [  ]             
  CUBEPROP_FILEPATH           => .                
  CUBEPROP_ORBITALS           => [  ]             
  CUBEPROP_TASKS              => [  ]             
  CUBIC_BASIS_TOLERANCE       => 1e-12            
  CUBIC_BLOCK_MAX_POINTS      => 1000             
  CUBIC_GRID_OVERAGE          => [  ]             
  CUBIC_GRID_SPACING          => [  ]             
  CUTOFF                      => 14               
  DEBUG                       => 0                
  DERTYPE                     => NONE             
  DF_BASIS_CC                 => (empty)          
  DIE_IF_NOT_CONVERGED        => TRUE             
  DKH_ORDER                   => 2                
  DOCC                        => [  ]             
  DO_DIIS                     => TRUE             
  DO_LEVEL_SHIFT              => TRUE             
  DO_SCS                      => FALSE           !
  DO_SOS                      => FALSE           !
  E3_SCALE                    => 0.25             
  EA_POLES                    => FALSE            
  EKT_EA                      => FALSE            
  EKT_IP                      => FALSE            
  EP_EA_POLES                 => FALSE            
  EP_IP_POLES                 => FALSE            
  EP_MAXITER                  => 30               
  EXTERNAL_POTENTIAL_SYMMETRY => FALSE            
  E_CONVERGENCE               => 1e-06           !
  FREEZE_CORE                 => FALSE            
  FROZEN_DOCC                 => [  ]             
  FROZEN_UOCC                 => [  ]             
  INTEGRAL_PACKAGE            => LIBINT           
  IP_POLES                    => FALSE            
  LEVEL_SHIFT                 => 0.02             
  LINEQ_SOLVER                => CDGESV           
  LITERAL_CFOUR               => (empty)          
  MAT_NUM_COLUMN_PRINT        => 5                
  MAX_MOGRAD_CONVERGENCE      => 0.001            
  MOGRAD_DAMPING              => 1                
  MOLDEN_WITH_VIRTUAL         => TRUE             
  MO_DIIS_NUM_VECS            => 6                
  MO_MAXITER                  => 50               
  MO_READ                     => FALSE            
  MO_STEP_MAX                 => 0.5              
  MO_WRITE                    => FALSE            
  MP2_OS_SCALE                => 1.2              
  MP2_SOS_SCALE               => 1.3              
  MP2_SOS_SCALE2              => 1.2              
  MP2_SS_SCALE                => 0.333333         
  MP2_TYPE                    => DF               
  MP_TYPE                     => CONV             
  NAT_ORBS                    => FALSE            
  NUM_FROZEN_DOCC             => 0                
  NUM_FROZEN_UOCC             => 0                
  OCC_ORBS_PRINT              => FALSE            
  OEPROP                      => FALSE            
  OPT_METHOD                  => ORB_RESP         
  ORB_OPT                     => TRUE            !
  ORB_RESP_SOLVER             => PCG              
  ORTH_TYPE                   => MGS              
  PCG_BETA_TYPE               => FLETCHER_REEVES  
  PCG_CONVERGENCE             => 1e-06            
  PCG_MAXITER                 => 30               
  PCM                         => FALSE            
  PCM_CC_TYPE                 => PTE              
  PCM_SCF_TYPE                => TOTAL            
  PRINT                       => 1                
  PRINT_NOONS                 => 3                
  PROPERTIES                  => [  ]             
  PROPERTIES_ORIGIN           => [  ]             
  PUREAM                      => TRUE             
  QC_MODULE                   => (empty)          
  RAS1                        => [  ]             
  RAS2                        => [  ]             
  RAS3                        => [  ]             
  RAS4                        => [  ]             
  RELATIVISTIC                => NO               
  RELAXED                     => TRUE             
  RESTRICTED_DOCC             => [  ]             
  RESTRICTED_UOCC             => [  ]             
  RMS_MOGRAD_CONVERGENCE      => 1e-06            
  R_CONVERGENCE               => 1e-05            
  SCS_TYPE                    => SCS              
  SOCC                        => [  ]             
  SOS_TYPE                    => SOS              
  SYMMETRIZE                  => TRUE             
  TPDM_ABCD_TYPE              => DIRECT           
  UNITS                       => ANGSTROMS        
  WFN                         => SCF              
  WFN_TYPE                    => OMP3            !
  WRITER_FILE_LABEL           => (empty)          


 ============================================================================== 
 ============================================================================== 
 ============================================================================== 

                       OMP3 (OO-MP3)   
              Program Written by Ugur Bozkaya,
              Latest Revision June 25, 2014.

 ============================================================================== 
 ============================================================================== 
 ============================================================================== 

	RMS orbital gradient is changed to :     1.00e-05
	MAX orbital gradient is changed to :     3.16e-04
	MO spaces per irreps... 

	IRREP   FC   AOCC  BOCC  AVIR    BVIR  FV 
	==========================================
	  A1     0     5     5    13     13     0
	  A2     0     0     0     2      2     0
	  B1     0     2     1     6      7     0
	  B2     0     1     1     7      7     0
	==========================================

	Computing MP2 energy using SCF MOs (Canonical MP2)... 
	============================================================================== 
	Nuclear Repulsion Energy (a.u.)    :    25.59060766929188
	SCF Energy (a.u.)                  :  -129.90365333167668
	REF Energy (a.u.)                  :  -129.24652515881860
	Alpha-Alpha Contribution (a.u.)    :    -0.04906568496562
	Alpha-Beta Contribution (a.u.)     :    -0.32275141391671
	Beta-Beta Contribution (a.u.)      :    -0.05520616854595
	Scaled_SS Correlation Energy (a.u.):    -0.03475728450386
	Scaled_OS Correlation Energy (a.u.):    -0.38730169670005
	SCS-MP2 Total Energy (a.u.)        :  -129.66858414002252
	SOS-MP2 Total Energy (a.u.)        :  -129.66610199691033
	SCSN-MP2 Total Energy (a.u.)       :  -129.43004362099896
	SCS-MP2-VDW Total Energy (a.u.)    :  -129.71178289538778
	SOS-PI-MP2 Total Energy (a.u.)     :  -129.69837713830199
	MP2 Correlation Energy (a.u.)      :    -0.42702326742828
	MP2 Total Energy (a.u.)            :  -129.67354842624687
	============================================================================== 


	Computing MP3 energy using SCF MOs (Canonical MP3)... 
	============================================================================== 
	Nuclear Repulsion Energy (a.u.)    :    25.59060766929188
	SCF Energy (a.u.)                  :  -129.90365333167668
	REF Energy (a.u.)                  :  -129.24652515881860
	Alpha-Alpha Contribution (a.u.)    :    -0.04188983738606
	Alpha-Beta Contribution (a.u.)     :    -0.32887202741090
	Beta-Beta Contribution (a.u.)      :    -0.04541568898574
	MP2.5 Correlation Energy (a.u.)    :     0.23552776225260
	MP2.5 Total Energy (a.u.)          :  -129.66812556942409
	SCS-MP3 Total Energy (a.u.)        :  -129.66587271161112
	SOS-MP3 Total Energy (a.u.)        :  -129.66339056849893
	SCSN-MP3 Total Energy (a.u.)       :  -129.42733219258756
	SCS-MP3-VDW Total Energy (a.u.)    :  -129.70907146697638
	SOS-PI-MP3 Total Energy (a.u.)     :  -129.69566570989059
	3rd Order Energy (a.u.)            :     0.01084571364558
	MP3 Correlation Energy (a.u.)      :    -0.41617755378270
	MP3 Total Energy (a.u.)            :  -129.66270271260129
	============================================================================== 


	Number of alpha independent-pairs: 84
	Number of beta independent-pairs : 79

 ============================================================================== 
 ================ Performing OMP3 iterations... =============================== 
 ============================================================================== 
	            Minimizing MP3-L Functional 
	            --------------------------- 
 Iter       E_total           DE           RMS MO Grad      MAX MO Grad      RMS T2    
 ----    ---------------    ----------     -----------      -----------     ---------- 
   1     -129.6602163898      2.49e-03       3.69e-04         9.47e-03        8.25e-07 
   2     -129.6609492282     -7.33e-04       1.12e-04         5.02e-03        4.22e-08 
   3     -129.6609353270      1.39e-05       7.07e-05         3.56e-03        2.35e-08 
   4     -129.6609503950     -1.51e-05       6.71e-05         3.29e-03        6.86e-09 
   5     -129.6609510814     -6.86e-07       6.37e-05         3.06e-03        7.84e-09 
   6     -129.6609579043     -6.82e-06       2.59e-05         1.55e-03        4.86e-09 
   7     -129.6609597121     -1.81e-06       1.67e-05         6.89e-04        4.41e-09 
   8     -129.6609599467     -2.35e-07       2.05e-05         8.71e-04        2.82e-09 
   9     -129.6609599347      1.20e-08       2.18e-05         9.40e-04        1.68e-09 
  10     -129.6609598428      9.19e-08       2.06e-05         8.94e-04        9.42e-10 
  11     -129.6609593664      4.76e-07       3.11e-05         1.29e-03        2.96e-09 
  12     -129.6609594339     -6.75e-08       2.42e-05         1.03e-03        2.41e-09 
  13     -129.6609598971     -4.63e-07       1.42e-05         6.53e-04        2.83e-09 
  14     -129.6609601255     -2.28e-07       1.55e-05         6.95e-04        3.09e-09 
  15     -129.6609604322     -3.07e-07       1.50e-05         6.83e-04        1.07e-09 
  16     -129.6609603797      5.25e-08       1.48e-05         6.82e-04        6.61e-10 
  17     -129.6609603636      1.60e-08       1.53e-05         7.08e-04        5.28e-10 
  18     -129.6609603891     -2.55e-08       1.51e-05         6.95e-04        4.94e-10 
  19     -129.6609603925     -3.41e-09       1.48e-05         6.84e-04        3.51e-10 
  20     -129.6609607438     -3.51e-07       1.28e-05         4.87e-04        2.16e-09 
  21     -129.6609606955      4.82e-08       1.24e-05         4.83e-04        1.13e-09 
  22     -129.6609607076     -1.21e-08       1.27e-05         5.02e-04        1.07e-09 
  23     -129.6609606996      8.04e-09       1.29e-05         5.15e-04        8.93e-10 
  24     -129.6609606810      1.86e-08       1.29e-05         5.16e-04        3.27e-10 
  25     -129.6609606776      3.36e-09       1.29e-05         5.16e-04        2.86e-10 
  26     -129.6609606320      4.56e-08       1.07e-05         4.63e-04        2.77e-09 
  27     -129.6609609065     -2.74e-07       9.45e-06         4.17e-04        9.46e-10 
  28     -129.6609608548      5.16e-08       9.55e-06         4.27e-04        7.58e-10 
  29     -129.6609608649     -1.01e-08       9.60e-06         4.32e-04        5.16e-10 
  30     -129.6609608710     -6.03e-09       9.61e-06         4.33e-04        1.92e-10 
  31     -129.6609608724     -1.41e-09       9.60e-06         4.33e-04        1.49e-10 
  32     -129.6609610256     -1.53e-07       5.95e-06         2.30e-04        1.53e-09 

 ============================================================================== 
 ======================== OMP3 ITERATIONS ARE CONVERGED ======================= 
 ============================================================================== 

	Computing MP2 energy using optimized MOs... 
	============================================================================== 
	Nuclear Repulsion Energy (a.u.)    :    25.59060766929188
	SCF Energy (a.u.)                  :  -129.90365333167668
	REF Energy (a.u.)                  :  -129.25571113791216
	Alpha-Alpha Contribution (a.u.)    :    -0.04770688215499
	Alpha-Beta Contribution (a.u.)     :    -0.31165110703969
	Beta-Beta Contribution (a.u.)      :    -0.05137950349241
	Scaled_SS Correlation Energy (a.u.):    -0.03302879521580
	Scaled_OS Correlation Energy (a.u.):    -0.37398132844762
	SCS-MP2 Total Energy (a.u.)        :  -129.66272126157560
	SOS-MP2 Total Energy (a.u.)        :  -129.66085757706375
	SCSN-MP2 Total Energy (a.u.)       :  -129.43010317665158
	SCS-MP2-VDW Total Energy (a.u.)    :  -129.70416774774665
	SOS-PI-MP2 Total Energy (a.u.)     :  -129.69202268776772
	MP2 Correlation Energy (a.u.)      :    -0.40524988771926
	MP2 Total Energy (a.u.)            :  -129.66644863059923
	============================================================================== 


	Computing MP3 energy using optimized MOs... 
	============================================================================== 
	Nuclear Repulsion Energy (a.u.)    :    25.59060766929188
	SCF Energy (a.u.)                  :  -129.90365333167668
	REF Energy (a.u.)                  :  -129.25571113791216
	Alpha-Alpha Contribution (a.u.)    :    -0.04165106353503
	Alpha-Beta Contribution (a.u.)     :    -0.32038821128364
	Beta-Beta Contribution (a.u.)      :    -0.04321061290059
	MP2.5 Correlation Energy (a.u.)    :     0.23994850356135
	MP2.5 Total Energy (a.u.)          :  -129.66370482811533
	SCS-MP3 Total Energy (a.u.)        :  -129.66134936033365
	SOS-MP3 Total Energy (a.u.)        :  -129.65948567582180
	SCSN-MP3 Total Energy (a.u.)       :  -129.42873127540963
	SCS-MP3-VDW Total Energy (a.u.)    :  -129.70279584650470
	SOS-PI-MP3 Total Energy (a.u.)     :  -129.69065078652577
	3rd Order Energy (a.u.)            :     0.00548760496781
	MP3 Correlation Energy (a.u.)      :    -0.40524988771926
	MP3 Total Energy (a.u.)            :  -129.66096102563142
	============================================================================== 


	============================================================================== 
	================ OMP3 FINAL RESULTS ========================================== 
	============================================================================== 
	Nuclear Repulsion Energy (a.u.)    :    25.59060766929188
	SCF Energy (a.u.)                  :  -129.90365333167668
	REF Energy (a.u.)                  :  -129.25571113791216
	SCS-OMP3 Total Energy (a.u.)       :  -129.66134936033365
	SOS-OMP3 Total Energy (a.u.)       :  -129.65948567582180
	SCSN-OMP3 Total Energy (a.u.)      :  -129.42873127540963
	SCS-OMP3-VDW Total Energy (a.u.    :  -129.70279584650470
	SOS-PI-OMP3 Total Energy (a.u.)    :  -129.69065078652577
	OMP3 Correlation Energy (a.u.)     :     0.24269230604526
	Eomp3 - Eref (a.u.)                :    -0.40524988771926
	OMP3 Total Energy (a.u.)           :  -129.66096102563142
	============================================================================== 


*** tstop() called on psinet at Mon May 15 15:37:56 2017
Module time:
	user time   =       4.63 seconds =       0.08 minutes
	system time =       2.44 seconds =       0.04 minutes
	total time  =          7 seconds =       0.12 minutes
Total time:
	user time   =       8.10 seconds =       0.13 minutes
	system time =       2.47 seconds =       0.04 minutes
	total time  =         11 seconds =       0.18 minutes
	Nuclear Repulsion Energy (a.u.)...................................PASSED
	SCF Energy (a.u.).................................................PASSED
	OMP3 Total Energy (a.u.)..........................................PASSED

*** Psi4 exiting successfully. Buy a developer a beer!
