Generated by Psi4
     FORCE                           RHF                       PCSEG-0
Number of atoms                            I                3
Charge                                     I                0
Multiplicity                               I                1
Number of electrons                        I               10
Number of alpha electrons                  I                5
Number of beta electrons                   I                5
Number of basis functions                  I               13
Number of independent functions            I               13
Atomic numbers                             I   N=           3
           8           1           1
Nuclear charges                            R   N=           3
  8.00000000e+00  1.00000000e+00  1.00000000e+00
Current cartesian coordinates              R   N=           9
  1.02376027e-01  8.03254315e-02  0.00000000e+00  1.02376027e-01 -1.82829796e+00
  0.00000000e+00 -1.72715786e+00  5.53475066e-01  0.00000000e+00
Integer atomic weights                     I   N=           3
          16           1           1
Real atomic weights                        R   N=           3
  1.59949146e+01  1.00782503e+00  1.00782503e+00
Number of primitive shells                 I               15
Number of contracted shells                I                9
Pure/Cartesian d shells                    I                0
Pure/Cartesian f shells                    I                0
Highest angular momentum                   I                1
Largest degree of contraction              I                4
Shell types                                I   N=           9
           0           0           0           1           1           0
           0           0           0
Number of primitives per shell             I   N=           9
           4           1           1           2           1           2
           1           2           1
Shell to atom map                          I   N=           9
           1           1           1           1           1           2
           2           3           3
Primitive exponents                        R   N=          15
  8.64900000e+02  1.30531000e+02  2.92551000e+01  7.76965000e+00  8.69788000e-01
  2.69783000e-01  8.30553000e+00  1.69516000e+00  3.57951000e-01  4.34473000e+00
  6.60487000e-01  1.36687000e-01  4.34473000e+00  6.60487000e-01  1.36687000e-01
Contraction coefficients                   R   N=          15
  1.78601010e-02  1.24649764e-01  4.38570969e-01  5.55523813e-01  1.00000000e+00
  1.00000000e+00  2.27970846e-01  8.68797958e-01  1.00000000e+00  1.67654352e-01
  8.96889788e-01  1.00000000e+00  1.67654352e-01  8.96889788e-01  1.00000000e+00
Coordinates of each shell                  R   N=          27
  1.02376027e-01  8.03254315e-02  0.00000000e+00  1.02376027e-01  8.03254315e-02
  0.00000000e+00  1.02376027e-01  8.03254315e-02  0.00000000e+00  1.02376027e-01
  8.03254315e-02  0.00000000e+00  1.02376027e-01  8.03254315e-02  0.00000000e+00
  1.02376027e-01 -1.82829796e+00  0.00000000e+00  1.02376027e-01 -1.82829796e+00
  0.00000000e+00 -1.72715786e+00  5.53475066e-01  0.00000000e+00 -1.72715786e+00
  5.53475066e-01  0.00000000e+00
Total Energy                               R     -7.577314102541949e+01
Alpha Orbital Energies                     R   N=          13
 -2.05494904e+01 -1.31533796e+00 -6.74345639e-01 -5.44901019e-01 -4.93526779e-01
  1.80423504e-01  2.79913866e-01  9.22621923e-01  1.01566848e+00  1.46384936e+00
  1.76053906e+00  1.92650976e+00  1.98157219e+00
Alpha MO coefficients                      R   N=         169
  9.86370306e-01  4.53223094e-02 -2.05789932e-02 -1.93617119e-03 -1.48411831e-03
  0.00000000e+00  2.07305584e-03  1.59291734e-03  0.00000000e+00  4.21860040e-04
  3.62015639e-03  3.84310967e-04  3.71180662e-03  2.82751325e-01 -5.04853615e-01
 -4.59385790e-01  6.06037986e-02  4.46975392e-02  0.00000000e+00  6.83620861e-02
  5.19151298e-02  0.00000000e+00 -1.27807684e-01 -1.79624733e-03 -1.31538563e-01
 -1.03952855e-03  1.70767551e-03 -2.66873091e-03 -7.02472830e-03 -2.39829602e-01
  3.03049350e-01  0.00000000e+00 -2.51406836e-01  3.19891127e-01  0.00000000e+00
 -2.59633049e-01 -1.41996846e-01  2.63429618e-01  1.41308857e-01  1.01660623e-01
 -1.89192894e-01 -3.06187170e-01 -3.40186873e-01 -2.66613561e-01  0.00000000e+00
 -4.14268583e-01 -3.25460760e-01  0.00000000e+00  1.53384298e-01  1.03154942e-01
  1.49874356e-01  9.82483538e-02  0.00000000e+00  0.00000000e+00  0.00000000e+00
  0.00000000e+00  0.00000000e+00  5.14828719e-01  0.00000000e+00  0.00000000e+00
  6.53126212e-01  0.00000000e+00  0.00000000e+00  0.00000000e+00  0.00000000e+00
  9.13291846e-02 -9.33371149e-02 -9.94393522e-01  1.50095433e-01  1.22194563e-01
  0.00000000e+00  3.34478476e-01  2.70695080e-01  0.00000000e+00  7.12936909e-02
  8.67031040e-01  6.78945493e-02  8.50167636e-01  1.12471086e-03 -7.99740074e-04
 -1.97282374e-02  1.68727934e-01 -2.16307600e-01  0.00000000e+00  4.14660332e-01
 -5.30466011e-01  0.00000000e+00 -4.27930449e-02 -1.17503238e+00  4.04268346e-02
  1.20350694e+00  6.38870529e-03 -2.10197019e-02  2.07355120e-02 -1.38159317e-01
  2.00137688e-01  0.00000000e+00 -3.07784412e-01  4.17056051e-01  0.00000000e+00
  1.00347794e+00 -6.90520856e-01 -9.06713913e-01  6.26656734e-01  1.29777202e-01
 -3.99816860e-01  1.41708730e-01  2.13477729e-01  1.48149259e-01  0.00000000e+00
  3.19875919e-01  1.98108080e-01  0.00000000e+00  9.09296241e-01 -4.59343991e-01
  1.01883479e+00 -5.17099081e-01  3.25408271e-01 -1.75988701e+00  2.31690829e+00
 -2.22813701e-01 -1.72588744e-01  0.00000000e+00 -6.89501400e-02 -4.68112577e-02
  0.00000000e+00 -2.89663835e-01 -3.59568746e-01 -2.90241053e-01 -3.73198895e-01
  0.00000000e+00  0.00000000e+00  0.00000000e+00  0.00000000e+00  0.00000000e+00
  1.00060656e+00  0.00000000e+00  0.00000000e+00 -9.16345047e-01  0.00000000e+00
  0.00000000e+00  0.00000000e+00  0.00000000e+00  8.69185667e-02 -6.20903834e-01
  1.19294980e+00  7.79287836e-01  5.65900177e-01  0.00000000e+00 -1.00969821e+00
 -7.27267501e-01  0.00000000e+00 -4.18379799e-01 -2.31116877e-01 -4.32533665e-01
 -2.65040355e-01  2.62085510e-03 -1.77296021e-02  2.79659498e-02 -6.04904274e-01
  8.27398312e-01  0.00000000e+00  7.70142068e-01 -1.05173876e+00  0.00000000e+00
 -2.47315911e-01 -3.90836719e-01  2.20692082e-01  3.83041250e-01
Total SCF Density                          R   N=          91
  2.12642498e+00 -2.34562947e-01  5.85464715e-01 -3.62659246e-01  5.77874146e-01
  6.10517457e-01 -3.95342761e-02  6.86343622e-02  1.56089829e-01  3.53843832e-01
 -3.08243852e-02  5.39993120e-02  1.18003879e-01  4.14598856e-02  3.29843544e-01
  0.00000000e+00  0.00000000e+00  0.00000000e+00  0.00000000e+00  0.00000000e+00
  5.30097219e-01 -4.23397048e-02  8.92574371e-02  1.94325114e-01  4.10725047e-01
  7.46269683e-02  0.00000000e+00  4.79003056e-01 -3.25799905e-02  6.91676267e-02
  1.47045814e-01  7.42825729e-02  3.72066329e-01  0.00000000e+00  1.15915361e-01
  4.21905515e-01  0.00000000e+00  0.00000000e+00  0.00000000e+00  0.00000000e+00
  0.00000000e+00  6.72496262e-01  0.00000000e+00  0.00000000e+00  8.53147697e-01
 -4.11438152e-02  7.24339254e-02  2.71278001e-02  4.68383623e-03 -2.50578552e-01
  0.00000000e+00 -1.40101955e-02 -2.79218719e-01  0.00000000e+00  2.14542090e-01
  2.66144693e-02 -3.61326297e-02 -5.96731185e-02 -2.30555754e-03 -1.41240438e-01
  0.00000000e+00 -1.43003286e-02 -1.58167806e-01  0.00000000e+00  1.05841048e-01
  6.16407571e-02 -4.22549149e-02  7.47339024e-02  2.53578233e-02 -2.44271980e-01
  6.79872365e-02  0.00000000e+00 -2.74615396e-01  5.73246923e-02  0.00000000e+00
 -5.71897214e-02 -4.34164548e-02  2.18320055e-01  2.71931726e-02 -3.65439366e-02
 -6.13477646e-02 -1.34766066e-01  3.31544811e-02  0.00000000e+00 -1.52581177e-01
  2.63588218e-02  0.00000000e+00 -4.29685379e-02 -1.98306084e-02  1.04176023e-01
  5.92715802e-02
Cartesian Gradient                         R   N=           9
  2.81221686e-02  2.98469939e-02  0.00000000e+00 -5.42890350e-03 -3.00522800e-02
  0.00000000e+00 -2.26932651e-02  2.05286116e-04  0.00000000e+00
