Generated by Psi4
     FORCE                       DF-OMP2                       PCSEG-0
Number of atoms                            I                3
Charge                                     I                0
Multiplicity                               I                1
Number of electrons                        I               10
Number of alpha electrons                  I                5
Number of beta electrons                   I                5
Number of basis functions                  I               13
Number of independent functions            I               13
Atomic numbers                             I   N=           3
           8           1           1
Nuclear charges                            R   N=           3
  8.00000000e+00  1.00000000e+00  1.00000000e+00
Current cartesian coordinates              R   N=           9
  1.02376027e-01  8.03254315e-02  0.00000000e+00  1.02376027e-01 -1.82829796e+00
  0.00000000e+00 -1.72715786e+00  5.53475066e-01  0.00000000e+00
Integer atomic weights                     I   N=           3
          16           1           1
Real atomic weights                        R   N=           3
  1.59949146e+01  1.00782503e+00  1.00782503e+00
Number of primitive shells                 I               15
Number of contracted shells                I                9
Pure/Cartesian d shells                    I                0
Pure/Cartesian f shells                    I                0
Highest angular momentum                   I                1
Largest degree of contraction              I                4
Shell types                                I   N=           9
           0           0           0           1           1           0
           0           0           0
Number of primitives per shell             I   N=           9
           4           1           1           2           1           2
           1           2           1
Shell to atom map                          I   N=           9
           1           1           1           1           1           2
           2           3           3
Primitive exponents                        R   N=          15
  8.64900000e+02  1.30531000e+02  2.92551000e+01  7.76965000e+00  8.69788000e-01
  2.69783000e-01  8.30553000e+00  1.69516000e+00  3.57951000e-01  4.34473000e+00
  6.60487000e-01  1.36687000e-01  4.34473000e+00  6.60487000e-01  1.36687000e-01
Contraction coefficients                   R   N=          15
  1.78601010e-02  1.24649764e-01  4.38570969e-01  5.55523813e-01  1.00000000e+00
  1.00000000e+00  2.27970846e-01  8.68797958e-01  1.00000000e+00  1.67654352e-01
  8.96889788e-01  1.00000000e+00  1.67654352e-01  8.96889788e-01  1.00000000e+00
Coordinates of each shell                  R   N=          27
  1.02376027e-01  8.03254315e-02  0.00000000e+00  1.02376027e-01  8.03254315e-02
  0.00000000e+00  1.02376027e-01  8.03254315e-02  0.00000000e+00  1.02376027e-01
  8.03254315e-02  0.00000000e+00  1.02376027e-01  8.03254315e-02  0.00000000e+00
  1.02376027e-01 -1.82829796e+00  0.00000000e+00  1.02376027e-01 -1.82829796e+00
  0.00000000e+00 -1.72715786e+00  5.53475066e-01  0.00000000e+00 -1.72715786e+00
  5.53475066e-01  0.00000000e+00
Total Energy                               R     -7.590517255074680e+01
Alpha Orbital Energies                     R   N=          13
 -2.05494904e+01 -1.31533796e+00 -6.74345639e-01 -5.44901019e-01 -4.93526779e-01
  1.80423504e-01  2.79913866e-01  9.22621923e-01  1.01566848e+00  1.46384936e+00
  1.76053906e+00  1.92650976e+00  1.98157219e+00
Alpha MO coefficients                      R   N=         169
  9.86196796e-01  4.61598259e-02 -2.14772938e-02 -1.92334240e-03 -1.47260463e-03
  0.00000000e+00  2.03835700e-03  1.56495506e-03  0.00000000e+00  3.89605203e-04
  3.74430216e-03  3.50147782e-04  3.83849093e-03  2.82096926e-01 -5.02498983e-01
 -4.59175479e-01  6.40018039e-02  4.73628469e-02  0.00000000e+00  6.41425800e-02
  4.87360693e-02  0.00000000e+00 -1.28369186e-01 -3.40232215e-03 -1.32114847e-01
 -2.89555471e-03  1.72102613e-03 -2.67076261e-03 -7.28971858e-03 -2.46238872e-01
  3.11501933e-01  0.00000000e+00 -2.40504552e-01  3.05788621e-01  0.00000000e+00
 -2.61425443e-01 -1.53084710e-01  2.65156710e-01  1.52793191e-01  1.00642968e-01
 -1.76654600e-01 -3.42129297e-01 -3.42619035e-01 -2.68705505e-01  0.00000000e+00
 -4.01348419e-01 -3.15147635e-01  0.00000000e+00  1.58957852e-01  1.19900465e-01
  1.55355470e-01  1.14989606e-01  0.00000000e+00  0.00000000e+00  0.00000000e+00
  0.00000000e+00  0.00000000e+00  5.14982292e-01  0.00000000e+00  0.00000000e+00
  6.52985558e-01  0.00000000e+00  0.00000000e+00  0.00000000e+00  0.00000000e+00
  9.04591860e-02 -9.15017301e-02 -9.90378989e-01  1.55331581e-01  1.26236046e-01
  0.00000000e+00  3.40713852e-01  2.75529869e-01  0.00000000e+00  6.87638776e-02
  8.65379445e-01  6.53493262e-02  8.48555773e-01  1.14105220e-03 -8.26337077e-04
 -1.97107973e-02  1.70017604e-01 -2.17844560e-01  0.00000000e+00  4.15972899e-01
 -5.32025012e-01  0.00000000e+00 -4.14927299e-02 -1.17429012e+00  3.90411532e-02
  1.20274215e+00  6.38918396e-03 -2.10067329e-02  2.07470361e-02 -1.37889255e-01
  1.99768719e-01  0.00000000e+00 -3.07513275e-01  4.16678703e-01  0.00000000e+00
  1.00379115e+00 -6.90344849e-01 -9.07013001e-01  6.26488864e-01  1.29842970e-01
 -3.99637263e-01  1.41816083e-01  2.13335318e-01  1.48069367e-01  0.00000000e+00
  3.19712900e-01  1.98011795e-01  0.00000000e+00  9.09383112e-01 -4.59318812e-01
  1.01895444e+00 -5.17057552e-01  3.27107791e-01 -1.76217412e+00  2.31399623e+00
 -2.24387498e-01 -1.73815270e-01  0.00000000e+00 -7.08492086e-02 -4.82922744e-02
  0.00000000e+00 -2.89227415e-01 -3.59011680e-01 -2.89817123e-01 -3.72656142e-01
  0.00000000e+00  0.00000000e+00  0.00000000e+00  0.00000000e+00  0.00000000e+00
  1.00052753e+00  0.00000000e+00  0.00000000e+00 -9.16445282e-01  0.00000000e+00
  0.00000000e+00  0.00000000e+00  0.00000000e+00  8.66295856e-02 -6.20348595e-01
  1.19222575e+00  7.76316699e-01  5.63712805e-01  0.00000000e+00 -1.01320332e+00
 -7.29880706e-01  0.00000000e+00 -4.16726804e-01 -2.30275678e-01 -4.30755673e-01
 -2.64162437e-01  2.61160898e-03 -1.77185258e-02  2.79637952e-02 -6.02268290e-01
  8.23756126e-01  0.00000000e+00  7.72783078e-01 -1.05546747e+00  0.00000000e+00
 -2.44247490e-01 -3.89097297e-01  2.17740573e-01  3.81400037e-01
Total SCF Density                          R   N=          91
  2.12642498e+00 -2.34562947e-01  5.85464715e-01 -3.62659246e-01  5.77874146e-01
  6.10517457e-01 -3.95342761e-02  6.86343622e-02  1.56089829e-01  3.53843832e-01
 -3.08243852e-02  5.39993120e-02  1.18003879e-01  4.14598856e-02  3.29843544e-01
  0.00000000e+00  0.00000000e+00  0.00000000e+00  0.00000000e+00  0.00000000e+00
  5.30097219e-01 -4.23397048e-02  8.92574371e-02  1.94325114e-01  4.10725047e-01
  7.46269683e-02  0.00000000e+00  4.79003056e-01 -3.25799905e-02  6.91676267e-02
  1.47045814e-01  7.42825729e-02  3.72066329e-01  0.00000000e+00  1.15915361e-01
  4.21905515e-01  0.00000000e+00  0.00000000e+00  0.00000000e+00  0.00000000e+00
  0.00000000e+00  6.72496262e-01  0.00000000e+00  0.00000000e+00  8.53147697e-01
 -4.11438152e-02  7.24339254e-02  2.71278001e-02  4.68383623e-03 -2.50578552e-01
  0.00000000e+00 -1.40101955e-02 -2.79218719e-01  0.00000000e+00  2.14542090e-01
  2.66144693e-02 -3.61326297e-02 -5.96731185e-02 -2.30555754e-03 -1.41240438e-01
  0.00000000e+00 -1.43003286e-02 -1.58167806e-01  0.00000000e+00  1.05841048e-01
  6.16407571e-02 -4.22549149e-02  7.47339024e-02  2.53578233e-02 -2.44271980e-01
  6.79872365e-02  0.00000000e+00 -2.74615396e-01  5.73246923e-02  0.00000000e+00
 -5.71897214e-02 -4.34164548e-02  2.18320055e-01  2.71931726e-02 -3.65439366e-02
 -6.13477646e-02 -1.34766066e-01  3.31544811e-02  0.00000000e+00 -1.52581177e-01
  2.63588218e-02  0.00000000e+00 -4.29685379e-02 -1.98306084e-02  1.04176023e-01
  5.92715802e-02
Total MP2 Density                          R   N=          91
  2.12489109e+00 -2.32224740e-01  5.95801260e-01 -3.64019975e-01  5.52021546e-01
  6.88418882e-01 -3.67845706e-02  5.80707962e-02  1.68884070e-01  3.75089466e-01
 -2.86318497e-02  4.56643935e-02  1.27845142e-01  3.66307476e-02  3.53927663e-01
 -1.67752933e-16  4.72911144e-16  1.49581968e-16  4.82352027e-16  9.90367201e-16
  5.40259176e-01 -4.06193605e-02  7.54476255e-02  2.20711256e-01  3.94603574e-01
  6.86587740e-02 -7.78805622e-17  4.45427682e-01 -3.11893348e-02  5.82793166e-02
  1.67562510e-01  6.83427690e-02  3.59163166e-01  1.59477315e-18  1.11253218e-01
  3.90072618e-01  4.46466784e-17  4.15524908e-17 -7.06643589e-16  3.15951694e-17
  4.08649699e-16  6.55156693e-01 -8.16315623e-16 -9.08089616e-16  8.58091800e-01
 -3.90973460e-02  7.08967660e-02  9.85078174e-03  3.42285778e-03 -2.49066124e-01
 -5.50015507e-16 -1.91529796e-02 -2.65419518e-01 -2.13987801e-16  2.28090583e-01
  2.87858415e-02 -3.50110870e-02 -8.32722659e-02 -7.19264117e-03 -1.49725731e-01
  3.48933544e-16 -2.47392340e-02 -1.67550404e-01  8.58085594e-16  1.21421472e-01
  8.19547479e-02 -4.02007699e-02  7.30842388e-02  8.10454112e-03 -2.43028898e-01
  6.63858931e-02 -3.30807819e-16 -2.62553766e-01  4.87577296e-02 -3.26592152e-16
 -5.47962642e-02 -4.33350693e-02  2.31650339e-01  2.92996266e-02 -3.53671492e-02
 -8.48273509e-02 -1.44476929e-01  3.05347079e-02 -9.28671026e-17 -1.64854524e-01
  1.85470528e-02  2.13890417e-17 -4.29194638e-02 -2.05992231e-02  1.19854256e-01
  7.94162379e-02
Cartesian Gradient                         R   N=           9
  3.54517346e-03  1.08013287e-02 -1.07902098e-16 -2.21098547e-03 -8.83980839e-03
  1.05658093e-17 -1.33418799e-03 -1.96152036e-03  9.73362891e-17
