Generated by Psi4
     FORCE                       RODC-12                       PCSEG-0
Number of atoms                            I                3
Charge                                     I                0
Multiplicity                               I                1
Number of electrons                        I               10
Number of alpha electrons                  I                5
Number of beta electrons                   I                5
Number of basis functions                  I               13
Number of independent functions            I               13
Atomic numbers                             I   N=           3
           8           1           1
Nuclear charges                            R   N=           3
  8.00000000e+00  1.00000000e+00  1.00000000e+00
Current cartesian coordinates              R   N=           9
  1.02376027e-01  8.03254315e-02  0.00000000e+00  1.02376027e-01 -1.82829796e+00
  0.00000000e+00 -1.72715786e+00  5.53475066e-01  0.00000000e+00
Integer atomic weights                     I   N=           3
          16           1           1
Real atomic weights                        R   N=           3
  1.59949146e+01  1.00782503e+00  1.00782503e+00
Number of primitive shells                 I               15
Number of contracted shells                I                9
Pure/Cartesian d shells                    I                0
Pure/Cartesian f shells                    I                0
Highest angular momentum                   I                1
Largest degree of contraction              I                4
Shell types                                I   N=           9
           0           0           0           1           1           0
           0           0           0
Number of primitives per shell             I   N=           9
           4           1           1           2           1           2
           1           2           1
Shell to atom map                          I   N=           9
           1           1           1           1           1           2
           2           3           3
Primitive exponents                        R   N=          15
  8.64900000e+02  1.30531000e+02  2.92551000e+01  7.76965000e+00  8.69788000e-01
  2.69783000e-01  8.30553000e+00  1.69516000e+00  3.57951000e-01  4.34473000e+00
  6.60487000e-01  1.36687000e-01  4.34473000e+00  6.60487000e-01  1.36687000e-01
Contraction coefficients                   R   N=          15
  1.78601010e-02  1.24649764e-01  4.38570969e-01  5.55523813e-01  1.00000000e+00
  1.00000000e+00  2.27970846e-01  8.68797958e-01  1.00000000e+00  1.67654352e-01
  8.96889788e-01  1.00000000e+00  1.67654352e-01  8.96889788e-01  1.00000000e+00
Coordinates of each shell                  R   N=          27
  1.02376027e-01  8.03254315e-02  0.00000000e+00  1.02376027e-01  8.03254315e-02
  0.00000000e+00  1.02376027e-01  8.03254315e-02  0.00000000e+00  1.02376027e-01
  8.03254315e-02  0.00000000e+00  1.02376027e-01  8.03254315e-02  0.00000000e+00
  1.02376027e-01 -1.82829796e+00  0.00000000e+00  1.02376027e-01 -1.82829796e+00
  0.00000000e+00 -1.72715786e+00  5.53475066e-01  0.00000000e+00 -1.72715786e+00
  5.53475066e-01  0.00000000e+00
Total Energy                               R     -7.591065648691762e+01
Alpha Orbital Energies                     R   N=          13
 -2.05495104e+01 -1.31534232e+00 -6.74374959e-01 -5.44930434e-01 -4.93559439e-01
  1.80397380e-01  2.79887946e-01  9.22475174e-01  1.01554929e+00  1.46382903e+00
  1.76044868e+00  1.92636951e+00  1.98143173e+00
Alpha MO coefficients                      R   N=         169
  9.86257413e-01  4.58767845e-02 -2.11999890e-02 -1.91437786e-03 -1.46547547e-03
  0.00000000e+00  2.05456490e-03  1.57721231e-03  0.00000000e+00  4.12323092e-04
  3.71654875e-03  3.73528636e-04  3.81037720e-03  2.82237985e-01 -5.03507955e-01
 -4.57503360e-01  6.35383751e-02  4.70062132e-02  0.00000000e+00  6.39818330e-02
  4.85882581e-02  0.00000000e+00 -1.29322299e-01 -3.37243699e-03 -1.33077219e-01
 -2.79507839e-03  1.71790611e-03 -2.69677944e-03 -7.15684340e-03 -2.44710640e-01
  3.09481658e-01  0.00000000e+00 -2.40982207e-01  3.06354408e-01  0.00000000e+00
 -2.64580892e-01 -1.49348915e-01  2.68276663e-01  1.48889174e-01  1.00957466e-01
 -1.78750503e-01 -3.36722063e-01 -3.42010743e-01 -2.68157616e-01  0.00000000e+00
 -4.02255834e-01 -3.15814561e-01  0.00000000e+00  1.61620955e-01  1.15154701e-01
  1.57899641e-01  1.10171483e-01  0.00000000e+00  0.00000000e+00  0.00000000e+00
  0.00000000e+00  0.00000000e+00  5.15540795e-01  0.00000000e+00  0.00000000e+00
  6.52473815e-01  0.00000000e+00  0.00000000e+00  0.00000000e+00  0.00000000e+00
  9.07448138e-02 -9.21384113e-02 -9.91507328e-01  1.54182569e-01  1.25389312e-01
  0.00000000e+00  3.39335366e-01  2.74504056e-01  0.00000000e+00  6.92137640e-02
  8.65768847e-01  6.58463496e-02  8.48946264e-01  1.14501181e-03 -8.35154727e-04
 -1.97433585e-02  1.69840165e-01 -2.17705712e-01  0.00000000e+00  4.15753211e-01
 -5.31846020e-01  0.00000000e+00 -4.15735153e-02 -1.17438181e+00  3.91716253e-02
  1.20286746e+00  6.37595714e-03 -2.09828547e-02  2.07760875e-02 -1.38681381e-01
  2.00955302e-01  0.00000000e+00 -3.08363168e-01  4.17995952e-01  0.00000000e+00
  1.00278934e+00 -6.90859127e-01 -9.06073495e-01  6.26946144e-01  1.29648753e-01
 -3.99336714e-01  1.42375109e-01  2.14538484e-01  1.48921318e-01  0.00000000e+00
  3.21236359e-01  1.99106395e-01  0.00000000e+00  9.08828627e-01 -4.59626676e-01
  1.01832403e+00 -5.17403386e-01  3.26715312e-01 -1.76172171e+00  2.31448541e+00
 -2.24318232e-01 -1.73768025e-01  0.00000000e+00 -7.07375613e-02 -4.82164211e-02
  0.00000000e+00 -2.89125813e-01 -3.59070032e-01 -2.89724849e-01 -3.72717709e-01
  0.00000000e+00  0.00000000e+00  0.00000000e+00  0.00000000e+00  0.00000000e+00
  1.00023986e+00  0.00000000e+00  0.00000000e+00 -9.16809693e-01  0.00000000e+00
  0.00000000e+00  0.00000000e+00  0.00000000e+00  8.65884533e-02 -6.20336381e-01
  1.19245884e+00  7.76591284e-01  5.63912017e-01  0.00000000e+00 -1.01286916e+00
 -7.29659810e-01  0.00000000e+00 -4.16790152e-01 -2.30406802e-01 -4.30838979e-01
 -2.64302296e-01  2.60719201e-03 -1.77067321e-02  2.79576598e-02 -6.02693707e-01
  8.24313858e-01  0.00000000e+00  7.72378229e-01 -1.05489762e+00  0.00000000e+00
 -2.44649244e-01 -3.89432246e-01  2.18147814e-01  3.81725520e-01
Total SCF Density                          R   N=          91
  2.12642356e+00 -2.34560331e-01  5.85469119e-01 -3.62661048e-01  5.77871262e-01
  6.10505719e-01 -3.95344931e-02  6.86351214e-02  1.56087180e-01  3.53853140e-01
 -3.08245459e-02  5.39997912e-02  1.18001975e-01  4.14607967e-02  3.29852614e-01
  0.00000000e+00  0.00000000e+00  0.00000000e+00  0.00000000e+00  0.00000000e+00
  5.30096035e-01 -4.23393048e-02  8.92586387e-02  1.94321838e-01  4.10735836e-01
  7.46275232e-02  0.00000000e+00  4.79015436e-01 -3.25796222e-02  6.91683496e-02
  1.47043248e-01  7.42831440e-02  3.72076683e-01  0.00000000e+00  1.15915493e-01
  4.21917207e-01  0.00000000e+00  0.00000000e+00  0.00000000e+00  0.00000000e+00
  0.00000000e+00  6.72496053e-01  0.00000000e+00  0.00000000e+00  8.53149073e-01
 -4.11464563e-02  7.24392223e-02  2.71375091e-02  4.68647135e-03 -2.50564468e-01
  0.00000000e+00 -1.40049682e-02 -2.79202935e-01  0.00000000e+00  2.14516186e-01
  2.66152981e-02 -3.61336669e-02 -5.96736956e-02 -2.30252287e-03 -1.41251758e-01
  0.00000000e+00 -1.42972335e-02 -1.58180343e-01  0.00000000e+00  1.05840996e-01
  6.16491769e-02 -4.22575202e-02  7.47389975e-02  2.53679415e-02 -2.44256976e-01
  6.79860533e-02  0.00000000e+00 -2.74598494e-01  5.73255134e-02  0.00000000e+00
 -5.71820515e-02 -4.34197820e-02  2.18292961e-01  2.71940083e-02 -3.65449720e-02
 -6.13485026e-02 -1.34776814e-01  3.31603715e-02  0.00000000e+00 -1.52593265e-01
  2.63650455e-02  0.00000000e+00 -4.29720790e-02 -1.98359436e-02  1.04176432e-01
  5.92803601e-02
Total DCT Density                          R   N=          91
  2.12577369e+00 -2.35068157e-01  6.02733153e-01 -3.61916633e-01  5.50820562e-01
  6.78479017e-01 -3.67373529e-02  5.83565008e-02  1.65201351e-01  3.72488269e-01
 -2.85808825e-02  4.58305105e-02  1.25048100e-01  3.75689212e-02  3.50748672e-01
  0.00000000e+00  0.00000000e+00  0.00000000e+00  0.00000000e+00  0.00000000e+00
  5.40667197e-01 -4.07029985e-02  7.62345549e-02  2.16419122e-01  3.95086377e-01
  6.89168715e-02  0.00000000e+00  4.47969179e-01 -3.12499050e-02  5.88553310e-02
  1.64288055e-01  6.86237297e-02  3.59373785e-01  0.00000000e+00  1.10855171e-01
  3.92691983e-01  0.00000000e+00  0.00000000e+00  0.00000000e+00  0.00000000e+00
  0.00000000e+00  6.56073034e-01  0.00000000e+00  0.00000000e+00  8.56181653e-01
 -3.80146411e-02  6.78071188e-02  8.58680321e-03  2.56913723e-03 -2.46842557e-01
  0.00000000e+00 -2.02946500e-02 -2.64864469e-01  0.00000000e+00  2.39734977e-01
  2.82812502e-02 -3.52474138e-02 -7.84963562e-02 -6.24136457e-03 -1.43549333e-01
  0.00000000e+00 -2.28645592e-02 -1.60582692e-01  0.00000000e+00  1.21269331e-01
  7.72851611e-02 -3.91516497e-02  7.00473164e-02  6.95266394e-03 -2.41196476e-01
  6.50040542e-02  0.00000000e+00 -2.62373344e-01  4.75495645e-02  0.00000000e+00
 -5.59642758e-02 -4.31296420e-02  2.43130013e-01  2.87659496e-02 -3.55486686e-02
 -7.98867511e-02 -1.38261080e-01  2.99411324e-02  0.00000000e+00 -1.57617170e-01
  1.86657962e-02  0.00000000e+00 -4.27477167e-02 -2.04025736e-02  1.19413056e-01
  7.46517886e-02
Cartesian Gradient                         R   N=           9
  2.83507197e-03  1.01104211e-02  0.00000000e+00 -2.47828796e-03 -7.61726902e-03
  0.00000000e+00 -3.56784012e-04 -2.49315203e-03  0.00000000e+00
