Generated by Psi4
     FORCE                          CCSD                       PCSEG-0
Number of atoms                            I                3
Charge                                     I                0
Multiplicity                               I                1
Number of electrons                        I               10
Number of alpha electrons                  I                5
Number of beta electrons                   I                5
Number of basis functions                  I               13
Number of independent functions            I               13
Atomic numbers                             I   N=           3
           8           1           1
Nuclear charges                            R   N=           3
  8.00000000e+00  1.00000000e+00  1.00000000e+00
Current cartesian coordinates              R   N=           9
  1.02376027e-01  8.03254315e-02  0.00000000e+00  1.02376027e-01 -1.82829796e+00
  0.00000000e+00 -1.72715786e+00  5.53475066e-01  0.00000000e+00
Integer atomic weights                     I   N=           3
          16           1           1
Real atomic weights                        R   N=           3
  1.59949146e+01  1.00782503e+00  1.00782503e+00
Number of primitive shells                 I               15
Number of contracted shells                I                9
Pure/Cartesian d shells                    I                0
Pure/Cartesian f shells                    I                0
Highest angular momentum                   I                1
Largest degree of contraction              I                4
Shell types                                I   N=           9
           0           0           0           1           1           0
           0           0           0
Number of primitives per shell             I   N=           9
           4           1           1           2           1           2
           1           2           1
Shell to atom map                          I   N=           9
           1           1           1           1           1           2
           2           3           3
Primitive exponents                        R   N=          15
  8.64900000e+02  1.30531000e+02  2.92551000e+01  7.76965000e+00  8.69788000e-01
  2.69783000e-01  8.30553000e+00  1.69516000e+00  3.57951000e-01  4.34473000e+00
  6.60487000e-01  1.36687000e-01  4.34473000e+00  6.60487000e-01  1.36687000e-01
Contraction coefficients                   R   N=          15
  1.78601010e-02  1.24649764e-01  4.38570969e-01  5.55523813e-01  1.00000000e+00
  1.00000000e+00  2.27970846e-01  8.68797958e-01  1.00000000e+00  1.67654352e-01
  8.96889788e-01  1.00000000e+00  1.67654352e-01  8.96889788e-01  1.00000000e+00
Coordinates of each shell                  R   N=          27
  1.02376027e-01  8.03254315e-02  0.00000000e+00  1.02376027e-01  8.03254315e-02
  0.00000000e+00  1.02376027e-01  8.03254315e-02  0.00000000e+00  1.02376027e-01
  8.03254315e-02  0.00000000e+00  1.02376027e-01  8.03254315e-02  0.00000000e+00
  1.02376027e-01 -1.82829796e+00  0.00000000e+00  1.02376027e-01 -1.82829796e+00
  0.00000000e+00 -1.72715786e+00  5.53475066e-01  0.00000000e+00 -1.72715786e+00
  5.53475066e-01  0.00000000e+00
Total Energy                               R     -7.590539268027879e+01
Alpha Orbital Energies                     R   N=          13
 -2.05495104e+01 -1.31534232e+00 -6.74374959e-01 -5.44930434e-01 -4.93559439e-01
  1.80397380e-01  2.79887946e-01  9.22475174e-01  1.01554929e+00  1.46382903e+00
  1.76044868e+00  1.92636951e+00  1.98143173e+00
Alpha MO coefficients                      R   N=         169
  9.86369551e-01  4.53249306e-02 -2.05805745e-02 -1.93629381e-03 -1.48421577e-03
  0.00000000e+00  2.07331666e-03  1.59311549e-03  0.00000000e+00  4.22075622e-04
  3.62033949e-03  3.84523457e-04  3.71200196e-03  2.82751974e-01 -5.04853865e-01
 -4.59381337e-01  6.06076256e-02  4.47004349e-02  0.00000000e+00  6.83662378e-02
  5.19182630e-02  0.00000000e+00 -1.27808236e-01 -1.79744298e-03 -1.31538923e-01
 -1.04103206e-03  1.70768623e-03 -2.66884307e-03 -7.02440362e-03 -2.39832608e-01
  3.03053796e-01  0.00000000e+00 -2.51411193e-01  3.19896945e-01  0.00000000e+00
 -2.59617307e-01 -1.42008878e-01  2.63412700e-01  1.41321426e-01  1.01662658e-01
 -1.89197416e-01 -3.06184168e-01 -3.40190912e-01 -2.66616527e-01  0.00000000e+00
 -4.14272723e-01 -3.25463522e-01  0.00000000e+00  1.53368262e-01  1.03158758e-01
  1.49858580e-01  9.82525922e-02  0.00000000e+00  0.00000000e+00  0.00000000e+00
  0.00000000e+00  0.00000000e+00  5.14828144e-01  0.00000000e+00  0.00000000e+00
  6.53126738e-01  0.00000000e+00  0.00000000e+00  0.00000000e+00  0.00000000e+00
  9.13290367e-02 -9.33380777e-02 -9.94385805e-01  1.50099929e-01  1.22199546e-01
  0.00000000e+00  3.34464198e-01  2.70687059e-01  0.00000000e+00  7.12813794e-02
  8.67040465e-01  6.78846372e-02  8.50162303e-01  1.12536891e-03 -8.01000222e-04
 -1.97321599e-02  1.68737783e-01 -2.16317980e-01  0.00000000e+00  4.14633151e-01
 -5.30427165e-01  0.00000000e+00 -4.27526027e-02 -1.17504348e+00  4.03886592e-02
  1.20352532e+00  6.38831905e-03 -2.10147251e-02  2.07242429e-02 -1.38135726e-01
  2.00105561e-01  0.00000000e+00 -3.07822753e-01  4.17116381e-01  0.00000000e+00
  1.00350088e+00 -6.90459188e-01 -9.06722021e-01  6.26596285e-01  1.29763385e-01
 -3.99725825e-01  1.41553853e-01  2.13440732e-01  1.48122108e-01  0.00000000e+00
  3.19930256e-01  1.98142801e-01  0.00000000e+00  9.09325736e-01 -4.59308977e-01
  1.01887557e+00 -5.17065757e-01  3.25412156e-01 -1.75989220e+00  2.31689862e+00
 -2.22815634e-01 -1.72588477e-01  0.00000000e+00 -6.89250577e-02 -4.67934101e-02
  0.00000000e+00 -2.89624678e-01 -3.59583282e-01 -2.90203293e-01 -3.73210965e-01
  0.00000000e+00  0.00000000e+00  0.00000000e+00  0.00000000e+00  0.00000000e+00
  1.00060685e+00  0.00000000e+00  0.00000000e+00 -9.16344671e-01  0.00000000e+00
  0.00000000e+00  0.00000000e+00  0.00000000e+00  8.69289260e-02 -6.20946148e-01
  1.19299624e+00  7.79289096e-01  5.65912026e-01  0.00000000e+00 -1.00968017e+00
 -7.27268098e-01  0.00000000e+00 -4.18335853e-01 -2.31157843e-01 -4.32484127e-01
 -2.65076893e-01  2.62006417e-03 -1.77236791e-02  2.79550233e-02 -6.04912671e-01
  8.27396705e-01  0.00000000e+00  7.70146885e-01 -1.05172755e+00  0.00000000e+00
 -2.47271305e-01 -3.90889548e-01  2.20657976e-01  3.83096413e-01
Total SCF Density                          R   N=          91
  2.12642356e+00 -2.34560331e-01  5.85469119e-01 -3.62661048e-01  5.77871262e-01
  6.10505719e-01 -3.95344931e-02  6.86351214e-02  1.56087180e-01  3.53853140e-01
 -3.08245459e-02  5.39997912e-02  1.18001975e-01  4.14607967e-02  3.29852614e-01
  0.00000000e+00  0.00000000e+00  0.00000000e+00  0.00000000e+00  0.00000000e+00
  5.30096035e-01 -4.23393048e-02  8.92586387e-02  1.94321838e-01  4.10735836e-01
  7.46275232e-02  0.00000000e+00  4.79015436e-01 -3.25796222e-02  6.91683496e-02
  1.47043248e-01  7.42831440e-02  3.72076683e-01  0.00000000e+00  1.15915493e-01
  4.21917207e-01  0.00000000e+00  0.00000000e+00  0.00000000e+00  0.00000000e+00
  0.00000000e+00  6.72496053e-01  0.00000000e+00  0.00000000e+00  8.53149073e-01
 -4.11464563e-02  7.24392223e-02  2.71375091e-02  4.68647135e-03 -2.50564468e-01
  0.00000000e+00 -1.40049682e-02 -2.79202935e-01  0.00000000e+00  2.14516186e-01
  2.66152981e-02 -3.61336669e-02 -5.96736956e-02 -2.30252287e-03 -1.41251758e-01
  0.00000000e+00 -1.42972335e-02 -1.58180343e-01  0.00000000e+00  1.05840996e-01
  6.16491769e-02 -4.22575202e-02  7.47389975e-02  2.53679415e-02 -2.44256976e-01
  6.79860533e-02  0.00000000e+00 -2.74598494e-01  5.73255134e-02  0.00000000e+00
 -5.71820515e-02 -4.34197820e-02  2.18292961e-01  2.71940083e-02 -3.65449720e-02
 -6.13485026e-02 -1.34776814e-01  3.31603715e-02  0.00000000e+00 -1.52593265e-01
  2.63650455e-02  0.00000000e+00 -4.29720790e-02 -1.98359436e-02  1.04176432e-01
  5.92803601e-02
Total CC Density                           R   N=          91
  2.12488641e+00 -2.32210495e-01  5.95732837e-01 -3.64001763e-01  5.52076373e-01
  6.88033091e-01 -3.67729552e-02  5.80176548e-02  1.68918453e-01  3.75061136e-01
 -2.86225291e-02  4.56223991e-02  1.27871051e-01  3.65970952e-02  3.53919751e-01
  0.00000000e+00  0.00000000e+00  0.00000000e+00  0.00000000e+00  0.00000000e+00
  5.40159546e-01 -4.06268231e-02  7.54369302e-02  2.20769813e-01  3.94624487e-01
  6.86477904e-02  0.00000000e+00  4.45608540e-01 -3.11943268e-02  5.82686068e-02
  1.67607421e-01  6.83314704e-02  3.59194378e-01  0.00000000e+00  1.11322684e-01
  3.90220443e-01  0.00000000e+00  0.00000000e+00  0.00000000e+00  0.00000000e+00
  0.00000000e+00  6.55121383e-01  0.00000000e+00  0.00000000e+00  8.58218346e-01
 -3.91027974e-02  7.08968630e-02  9.91032317e-03  3.43333352e-03 -2.49054318e-01
  0.00000000e+00 -1.91674177e-02 -2.65418914e-01  0.00000000e+00  2.28074362e-01
  2.87669417e-02 -3.50173406e-02 -8.30668555e-02 -7.18926894e-03 -1.49709535e-01
  0.00000000e+00 -2.47232806e-02 -1.67548814e-01  0.00000000e+00  1.21350833e-01
  8.17790679e-02 -4.02057653e-02  7.30822568e-02  8.16564542e-03 -2.43013706e-01
  6.63932234e-02  0.00000000e+00 -2.62559737e-01  4.87430891e-02  0.00000000e+00
 -5.47734159e-02 -4.33437591e-02  2.31632868e-01  2.92803302e-02 -3.53733966e-02
 -8.46198632e-02 -1.44463288e-01  3.05343034e-02  0.00000000e+00 -1.64851146e-01
  1.85624105e-02  0.00000000e+00 -4.29284930e-02 -2.06306473e-02  1.19785870e-01
  7.92425341e-02
Cartesian Gradient                         R   N=           9
  3.56356815e-03  1.08179296e-02  0.00000000e+00 -2.21761993e-03 -8.85252941e-03
  0.00000000e+00 -1.34594823e-03 -1.96540024e-03  0.00000000e+00
