Generated by Psi4
     FORCE                        DF-MP2                       PCSEG-0
Number of atoms                            I                3
Charge                                     I                0
Multiplicity                               I                2
Number of electrons                        I               17
Number of alpha electrons                  I                9
Number of beta electrons                   I                8
Number of basis functions                  I               20
Number of independent functions            I               20
Atomic numbers                             I   N=           3
           8           8           1
Nuclear charges                            R   N=           3
  8.00000000e+00  8.00000000e+00  1.00000000e+00
Current cartesian coordinates              R   N=           9
 -5.41773217e-02  1.43574534e+00  0.00000000e+00 -5.41773217e-02 -1.32325480e+00
  0.00000000e+00  1.71966682e+00 -1.78530659e+00  0.00000000e+00
Integer atomic weights                     I   N=           3
          16          16           1
Real atomic weights                        R   N=           3
  1.59949146e+01  1.59949146e+01  1.00782503e+00
Number of primitive shells                 I               21
Number of contracted shells                I               12
Pure/Cartesian d shells                    I                0
Pure/Cartesian f shells                    I                0
Highest angular momentum                   I                1
Largest degree of contraction              I                4
Shell types                                I   N=          12
           0           0           0           1           1           0
           0           0           1           1           0           0
Number of primitives per shell             I   N=          12
           4           1           1           2           1           4
           1           1           2           1           2           1
Shell to atom map                          I   N=          12
           1           1           1           1           1           2
           2           2           2           2           3           3
Primitive exponents                        R   N=          21
  8.64900000e+02  1.30531000e+02  2.92551000e+01  7.76965000e+00  8.69788000e-01
  2.69783000e-01  8.30553000e+00  1.69516000e+00  3.57951000e-01  8.64900000e+02
  1.30531000e+02  2.92551000e+01  7.76965000e+00  8.69788000e-01  2.69783000e-01
  8.30553000e+00  1.69516000e+00  3.57951000e-01  4.34473000e+00  6.60487000e-01
  1.36687000e-01
Contraction coefficients                   R   N=          21
  1.78601010e-02  1.24649764e-01  4.38570969e-01  5.55523813e-01  1.00000000e+00
  1.00000000e+00  2.27970846e-01  8.68797958e-01  1.00000000e+00  1.78601010e-02
  1.24649764e-01  4.38570969e-01  5.55523813e-01  1.00000000e+00  1.00000000e+00
  2.27970846e-01  8.68797958e-01  1.00000000e+00  1.67654352e-01  8.96889788e-01
  1.00000000e+00
Coordinates of each shell                  R   N=          36
 -5.41773217e-02  1.43574534e+00  0.00000000e+00 -5.41773217e-02  1.43574534e+00
  0.00000000e+00 -5.41773217e-02  1.43574534e+00  0.00000000e+00 -5.41773217e-02
  1.43574534e+00  0.00000000e+00 -5.41773217e-02  1.43574534e+00  0.00000000e+00
 -5.41773217e-02 -1.32325480e+00  0.00000000e+00 -5.41773217e-02 -1.32325480e+00
  0.00000000e+00 -5.41773217e-02 -1.32325480e+00  0.00000000e+00 -5.41773217e-02
 -1.32325480e+00  0.00000000e+00 -5.41773217e-02 -1.32325480e+00  0.00000000e+00
  1.71966682e+00 -1.78530659e+00  0.00000000e+00  1.71966682e+00 -1.78530659e+00
  0.00000000e+00
Total Energy                               R     -1.499432513459466e+02
Alpha Orbital Energies                     R   N=          20
 -2.07080398e+01 -2.06562907e+01 -1.50747334e+00 -1.22526809e+00 -7.35817665e-01
 -7.27923929e-01 -6.28949989e-01 -5.43188258e-01 -5.34296399e-01  1.68796027e-01
  2.54971999e-01  9.62461325e-01  1.19380240e+00  1.40853386e+00  1.57603820e+00
  1.68191763e+00  1.76994496e+00  1.90073684e+00  1.96854482e+00  2.01777415e+00
Alpha MO coefficients                      R   N=         400
  9.86176379e-01  4.48782741e-02 -1.66821340e-02  1.52851327e-04 -1.90204989e-03
  0.00000000e+00 -1.37161634e-04  2.88310964e-03  0.00000000e+00  1.04861994e-03
 -2.14086220e-04  2.94024297e-03  7.04239856e-05  2.35134504e-04  0.00000000e+00
 -1.17509530e-04  1.92763664e-03  0.00000000e+00 -4.71040614e-04  1.09924336e-03
  1.01248862e-03  3.10572347e-04 -3.18983775e-03 -4.98773223e-05  2.84275470e-04
  0.00000000e+00  8.58985505e-05  1.84415640e-03  0.00000000e+00 -9.86539203e-01
 -4.49299896e-02  2.06426542e-02 -2.08278232e-03 -1.43874561e-03  0.00000000e+00
  2.44720577e-03  2.12246986e-03  0.00000000e+00 -4.11674126e-04 -4.65604223e-03
  2.24803076e-01 -4.24113850e-01 -3.00125825e-01 -5.30090565e-03  7.54717861e-02
  0.00000000e+00 -8.46750563e-03  6.58524378e-02  0.00000000e+00  1.91793195e-01
 -3.42774843e-01 -2.69923185e-01 -3.70185111e-02 -5.37924415e-02  0.00000000e+00
 -4.35075570e-02 -4.94181891e-02  0.00000000e+00 -7.97423360e-02  1.39384320e-02
  2.21153829e-01 -4.23137782e-01 -3.83941585e-01  4.53225886e-03 -5.47951074e-02
  0.00000000e+00 -1.23365108e-03 -2.16337670e-02  0.00000000e+00 -2.14278131e-01
  3.92070433e-01  3.84839164e-01  7.49895108e-02 -6.44400505e-02  0.00000000e+00
  7.27593322e-02 -3.08256644e-02  0.00000000e+00  1.48508090e-01  1.21039606e-03
  3.91275384e-02 -8.00931889e-02 -9.03273250e-02 -2.26699144e-01 -1.81796282e-01
  0.00000000e+00 -2.38232164e-01 -1.94907023e-01  0.00000000e+00 -5.80195025e-02
  1.05006696e-01  1.54315192e-01 -3.31982111e-01  1.03452555e-01  0.00000000e+00
 -3.44172744e-01  1.00198975e-01  0.00000000e+00 -2.39660003e-01 -1.03206616e-01
  0.00000000e+00  0.00000000e+00  0.00000000e+00  0.00000000e+00  0.00000000e+00
  4.90018739e-01  0.00000000e+00  0.00000000e+00  5.13598019e-01  0.00000000e+00
  0.00000000e+00  0.00000000e+00  0.00000000e+00  0.00000000e+00  2.30873478e-01
  0.00000000e+00  0.00000000e+00  2.57355468e-01  0.00000000e+00  0.00000000e+00
  4.11004911e-02 -8.85451063e-02 -1.03033219e-01  2.92740711e-01 -3.27245549e-01
  0.00000000e+00  3.31966762e-01 -3.65789349e-01  0.00000000e+00  5.25579573e-02
 -1.14883332e-01 -1.24538813e-01  6.78928370e-02  2.34590168e-01  0.00000000e+00
  9.25363774e-02  2.72891758e-01  0.00000000e+00 -5.11808871e-02 -1.89789858e-02
  1.51212731e-03  1.34390036e-03 -3.02585558e-02 -4.14355613e-01 -1.50288336e-01
  0.00000000e+00 -4.70173777e-01 -1.65394409e-01  0.00000000e+00  7.36710744e-02
 -1.47296988e-01 -2.10051457e-01  2.79203310e-01  1.12590352e-01  0.00000000e+00
  3.18073024e-01  1.42619100e-01  0.00000000e+00  1.65957637e-01  6.91554059e-02
  0.00000000e+00  0.00000000e+00  0.00000000e+00  0.00000000e+00  0.00000000e+00
  2.96641163e-01  0.00000000e+00  0.00000000e+00  3.28597348e-01  0.00000000e+00
  0.00000000e+00  0.00000000e+00  0.00000000e+00  0.00000000e+00 -4.87013215e-01
  0.00000000e+00  0.00000000e+00 -5.88154171e-01  0.00000000e+00  0.00000000e+00
  3.47386898e-02 -7.61327894e-02 -1.23866044e-01 -1.49065572e-03  2.16962482e-01
  0.00000000e+00  1.67827574e-02  3.79639951e-01  0.00000000e+00 -1.03520048e-01
  1.52061920e-01  8.67579253e-01  1.80697901e-01  1.80743613e-01  0.00000000e+00
  4.14635575e-01  3.16960622e-01  0.00000000e+00 -8.84871671e-02 -1.18122774e+00
  8.73012606e-02 -2.04978299e-01 -3.29871832e-01 -1.04726640e-02  3.10448147e-01
  0.00000000e+00 -2.09630263e-02  5.77222721e-01  0.00000000e+00 -2.88715741e-02
  9.11705599e-02 -1.48842147e-01 -1.12836944e-01  3.84187122e-01  0.00000000e+00
 -2.61341280e-01  7.59336584e-01  0.00000000e+00  3.91286331e-02  8.09596212e-01
  6.22572066e-02 -2.80675660e-01  2.48028504e-01 -1.11179427e-01  2.29314972e-02
  0.00000000e+00 -4.34551130e-02 -2.88561559e-02  0.00000000e+00 -7.94417346e-02
  2.39774069e-01 -9.88824477e-02  2.92253595e-01 -1.56888401e-02  0.00000000e+00
  4.63176943e-01 -1.99514945e-01  0.00000000e+00 -1.35543446e+00  7.15203629e-01
  3.10715685e-01 -1.56712331e+00  1.67735776e+00  3.20048180e-02 -2.01751158e-01
  0.00000000e+00  7.34683958e-03 -1.59428141e-02  0.00000000e+00  1.14244750e-01
 -4.85722833e-01  2.82064445e-01  1.94715211e-02 -4.96239386e-02  0.00000000e+00
 -3.48788504e-02 -2.40192964e-01  0.00000000e+00  2.11239482e-01 -4.05209600e-01
  6.71932115e-02 -4.37248620e-01  8.35723745e-01 -9.94671011e-02 -1.65979618e-01
  0.00000000e+00  6.92593433e-02 -2.47172001e-01  0.00000000e+00 -3.00348363e-01
  1.65467539e+00 -2.25019496e+00 -2.39513074e-01 -2.34119155e-01  0.00000000e+00
 -7.21215670e-02 -6.07187513e-02  0.00000000e+00  2.94303852e-01  4.00216277e-01
  0.00000000e+00  0.00000000e+00  0.00000000e+00  0.00000000e+00  0.00000000e+00
  8.17278043e-01  0.00000000e+00  0.00000000e+00 -7.42262547e-01  0.00000000e+00
  0.00000000e+00  0.00000000e+00  0.00000000e+00  0.00000000e+00  5.47748183e-01
  0.00000000e+00  0.00000000e+00 -3.91719151e-01  0.00000000e+00  0.00000000e+00
 -3.86617396e-04  2.49973677e-02 -1.20137953e-01 -9.04391273e-01  1.67096573e-02
  0.00000000e+00  8.56911075e-01  8.90041925e-02  0.00000000e+00  7.02837230e-02
 -4.21335812e-01  7.02142833e-01 -3.58906831e-01  4.33301079e-04  0.00000000e+00
  3.13425039e-01  3.87574413e-02  0.00000000e+00 -4.61757450e-02 -3.61462400e-01
  0.00000000e+00  0.00000000e+00  0.00000000e+00  0.00000000e+00  0.00000000e+00
  5.28160877e-01  0.00000000e+00  0.00000000e+00 -6.68557962e-01  0.00000000e+00
  0.00000000e+00  0.00000000e+00  0.00000000e+00  0.00000000e+00 -8.27344637e-01
  0.00000000e+00  0.00000000e+00  8.96705928e-01  0.00000000e+00  0.00000000e+00
  6.02391568e-02 -4.85342549e-01  1.16168746e+00  1.63645033e-01  6.94789285e-01
  0.00000000e+00 -2.38282125e-01 -1.34068387e+00  0.00000000e+00 -5.22982354e-03
  1.71097668e-01 -7.56812453e-01 -4.81616981e-01  4.26368219e-01  0.00000000e+00
  6.10897640e-01 -1.15077818e+00  0.00000000e+00 -8.68339574e-02 -2.55889056e-01
  3.39080421e-02 -3.10435622e-01  8.18639496e-01 -3.14463774e-01  4.37546460e-01
  0.00000000e+00  4.76663039e-01 -9.42875820e-01  0.00000000e+00 -6.56121092e-02
  5.88258718e-01 -1.49787891e+00  7.56668993e-01  1.46822909e-01  0.00000000e+00
 -1.19734827e+00 -5.63141035e-01  0.00000000e+00  6.35109543e-01  2.19383204e-01
  3.25516399e-02 -9.09789524e-02 -3.13901632e-01  4.81399674e-02  5.32793201e-01
  0.00000000e+00 -6.64087017e-02 -1.89536758e-01  0.00000000e+00  6.38650908e-02
 -3.70357915e-01  4.33671528e-01 -4.27041435e-02 -9.03509211e-01  0.00000000e+00
  8.71413406e-02  9.40807727e-01  0.00000000e+00 -7.24159474e-02  2.32657679e-02
Total SCF Density                          R   N=         210
  2.14596439e+00 -2.87608456e-01  7.03949764e-01 -3.59794414e-01  6.15494172e-01
  5.65204213e-01  3.16606558e-03 -1.14190963e-02  9.87846765e-03  6.00948993e-01
 -4.11733080e-02  7.79187354e-02  1.22971094e-01  4.28154974e-03  2.54613809e-01
  0.00000000e+00  0.00000000e+00  0.00000000e+00  0.00000000e+00  0.00000000e+00
  3.35419676e-01  1.07560069e-03 -9.74920277e-03  1.39858087e-02  6.90262060e-01
  9.18150695e-05  0.00000000e+00  7.93989150e-01 -2.87550298e-02  7.29661732e-02
  1.19230552e-01 -1.69120872e-03  2.73462237e-01  0.00000000e+00 -7.65323215e-03
  2.96354867e-01  0.00000000e+00  0.00000000e+00  0.00000000e+00  0.00000000e+00
  0.00000000e+00  3.59520522e-01  0.00000000e+00  0.00000000e+00  3.86486200e-01
 -8.35911460e-03  1.86417987e-02  4.96936879e-02 -6.31377945e-03  2.55623185e-02
  0.00000000e+00 -8.12679693e-03  6.30522609e-03  0.00000000e+00  2.13436689e+00
  1.74745754e-02 -3.97039915e-02 -7.95533622e-02  1.17878600e-02 -3.46494047e-02
  0.00000000e+00  1.46157697e-02 -4.52893756e-03  0.00000000e+00 -2.55901780e-01
  6.37877011e-01  5.39182240e-02 -9.64018879e-02 -1.23457422e-01  2.90808114e-02
 -3.24089226e-02  0.00000000e+00  3.65608596e-02 -4.87615180e-03  0.00000000e+00
 -3.65567180e-01  5.96217683e-01  5.86190061e-01 -7.09077460e-04  5.58678621e-03
 -1.59533141e-02 -4.04312834e-02 -1.35187025e-02  0.00000000e+00 -6.05586731e-02
 -6.40675389e-03  0.00000000e+00  4.16159305e-02 -7.71842240e-02 -1.48132082e-01
  4.03264903e-01 -1.75635704e-02  2.68158805e-02 -2.96580482e-02 -9.47322175e-03
 -2.20907269e-01  0.00000000e+00 -6.89552785e-03 -2.41915748e-01  0.00000000e+00
  3.35099174e-02 -6.96151780e-02 -6.93632995e-02  3.49016011e-02  2.53029257e-01
  0.00000000e+00  0.00000000e+00  0.00000000e+00  0.00000000e+00  0.00000000e+00
  1.16283792e-02  0.00000000e+00  0.00000000e+00  1.95470244e-02  0.00000000e+00
  0.00000000e+00  0.00000000e+00  0.00000000e+00  0.00000000e+00  5.43166150e-01
 -3.01755026e-03  9.14813982e-03 -1.83519122e-02 -5.18486777e-02 -3.27264622e-02
  0.00000000e+00 -7.43275976e-02 -2.70134029e-02  0.00000000e+00  3.98522251e-02
 -9.25396388e-02 -1.68320863e-01  4.36092311e-01  5.74790187e-02  0.00000000e+00
  4.73381075e-01  5.67103821e-03 -1.12922491e-02 -7.46384236e-02 -1.45966634e-02
 -2.60679892e-01  0.00000000e+00 -1.34699717e-02 -2.83143305e-01  0.00000000e+00
  2.52559047e-02 -7.04796557e-02 -7.16963612e-02  6.76164367e-02  2.92768183e-01
  0.00000000e+00  9.56038358e-02  3.43731526e-01  0.00000000e+00  0.00000000e+00
  0.00000000e+00  0.00000000e+00  0.00000000e+00  4.43998770e-03  0.00000000e+00
  0.00000000e+00  1.38811143e-02  0.00000000e+00  0.00000000e+00  0.00000000e+00
  0.00000000e+00  0.00000000e+00  6.56393604e-01  0.00000000e+00  0.00000000e+00
  7.93799234e-01  6.53904599e-03 -1.00752530e-02 -1.98850416e-02 -5.73781445e-02
  4.15934772e-02  0.00000000e+00 -7.71097461e-02  5.84646534e-02  0.00000000e+00
 -4.50499648e-02  8.15654261e-02  2.24346917e-02  2.72110523e-01 -5.31568257e-02
  0.00000000e+00  2.87898599e-01 -3.93761962e-02  0.00000000e+00  2.30669921e-01
 -3.34558717e-03  1.27709595e-02  1.70165423e-02 -1.82420892e-02  3.46195504e-02
  0.00000000e+00 -2.50375798e-02  3.78759224e-02  0.00000000e+00  3.47069125e-02
 -4.64748034e-02 -6.39567584e-02  1.00155354e-01 -2.62803589e-02  0.00000000e+00
  1.05868504e-01 -2.50223532e-02  0.00000000e+00  7.18511971e-02  3.24309896e-02
Total MP2 Density                          R   N=         210
  2.14322156e+00 -2.82578006e-01  7.04517238e-01 -3.54909415e-01  5.87184201e-01
  5.88676255e-01  3.09640712e-03 -1.05011087e-02  8.27901878e-03  6.11881296e-01
 -4.68889405e-02  8.90456790e-02  1.49134876e-01  8.93851359e-03  2.33831433e-01
  1.03238206e-15 -1.50835280e-15 -1.03474309e-15  4.99140186e-15 -1.91648014e-16
  3.50147640e-01  1.51548821e-03 -9.77403711e-03  1.08431162e-02  6.74987241e-01
  7.19433072e-03  7.37787282e-15  7.93681511e-01 -3.54874075e-02  8.48929864e-02
  1.52416492e-01  5.75815779e-03  2.23380873e-01 -6.22658252e-16  3.38190899e-03
  2.25335727e-01  1.57939552e-16 -8.06101025e-16 -2.87030127e-16  8.22111140e-15
 -2.20985642e-16  3.74178704e-01  1.11857027e-14 -7.51333866e-16  4.23378262e-01
 -7.51350274e-03  1.71944759e-02  4.41055166e-02 -7.35971039e-03  3.39022932e-02
 -3.01781631e-16 -9.19883341e-03  1.83147495e-02 -3.92765849e-16  2.13101337e+00
  1.64063908e-02 -3.75911858e-02 -6.79177226e-02  1.36073708e-02 -5.30371402e-02
  5.88072558e-16  1.64562894e-02 -3.23349490e-02  6.99739783e-16 -2.50595696e-01
  6.42507716e-01  4.86712300e-02 -8.51561300e-02 -1.07762840e-01  3.45445589e-02
 -6.21595706e-02  8.58750992e-16  4.32030175e-02 -4.32663295e-02  1.07264385e-15
 -3.56104930e-01  5.53250285e-01  6.10139679e-01  1.60429635e-04  3.80167056e-03
 -1.93330955e-02 -4.30401822e-02 -1.45662261e-02 -9.76391542e-16 -6.11836712e-02
 -7.58426888e-03 -1.45219804e-15  3.85824949e-02 -6.68681129e-02 -1.56192688e-01
  4.28510004e-01 -1.89109535e-02  3.11300199e-02 -3.05038123e-02 -1.09759981e-02
 -2.69783331e-01 -6.19850978e-17 -7.52548614e-03 -2.91217609e-01 -1.03547480e-17
  3.91380898e-02 -8.09925561e-02 -9.12785064e-02  4.05119530e-02  2.84153951e-01
 -2.73391043e-16  5.75203576e-16  5.80852989e-16 -1.92495013e-15 -5.21590330e-16
  4.76701462e-02 -2.52728682e-15 -8.21466451e-16  6.70667452e-02  8.81894570e-16
 -3.03482232e-15 -5.11195334e-16  2.25959249e-15  1.06259285e-16  5.24787845e-01
 -2.02174760e-03  7.05841531e-03 -2.29348626e-02 -4.70736972e-02 -3.64665235e-02
 -1.17205001e-15 -6.26295082e-02 -3.11012194e-02 -1.76023346e-15  3.76726426e-02
 -7.95909712e-02 -1.85272947e-01  4.21994142e-01  6.70198919e-02  8.94136020e-17
  4.44750837e-01  1.54336445e-03  3.84486981e-04 -6.93680144e-02 -1.72571910e-02
 -3.15619289e-01 -8.89507086e-17 -1.44867632e-02 -3.40320128e-01 -1.35728862e-16
  3.44379865e-02 -8.71074788e-02 -1.11260124e-01  7.69551886e-02  2.99807793e-01
 -6.22434633e-16  1.12086570e-01  3.38359814e-01 -2.43619973e-16  5.51389852e-16
  6.00902858e-16 -2.25065519e-15 -4.71184484e-16  5.70147648e-02 -2.95453288e-15
 -7.61523208e-16  8.47025276e-02  3.68364801e-16 -1.36780761e-15  1.85232471e-15
  5.52856352e-16 -4.83310004e-16  6.02584938e-01 -2.29610704e-15 -1.55975865e-15
  7.49976621e-01  7.36534719e-03 -1.21260723e-02 -2.15805242e-02 -6.27440334e-02
  4.52381047e-02 -9.18477933e-16 -8.38199389e-02  5.99543731e-02 -1.42060756e-15
 -4.36902275e-02  8.17911244e-02  6.65832959e-03  2.71261651e-01 -5.19742439e-02
  2.13873700e-15  2.75653299e-01 -3.17254355e-02  1.59717547e-15  2.45617148e-01
 -3.55036535e-03  1.30127733e-02  1.54777816e-02 -1.83645781e-02  4.35843751e-02
 -4.91395271e-16 -2.40784564e-02  4.79442165e-02 -6.88374381e-16  3.39759253e-02
 -4.09772491e-02 -7.42482959e-02  1.08036232e-01 -2.28533122e-02 -3.48142299e-16
  1.16930205e-01 -1.61676826e-02 -9.98493983e-16  8.46587366e-02  4.31026101e-02
Beta Orbital Energies                      R   N=          20
 -2.06613719e+01 -2.06590419e+01 -1.45692419e+00 -1.11460426e+00 -7.14530302e-01
 -6.07460355e-01 -5.71168887e-01 -5.06554334e-01  1.24368827e-01  1.79073473e-01
  2.80448301e-01  9.62018458e-01  1.24390067e+00  1.40849075e+00  1.69028251e+00
  1.70793706e+00  1.88915653e+00  1.91347856e+00  1.96514735e+00  2.03729440e+00
Beta MO coefficients                       R   N=         400
  4.01605568e-02  1.34144766e-03  2.73937850e-03  4.94109529e-05 -3.27217274e-04
  0.00000000e+00 -9.30237079e-05 -1.90300750e-03  0.00000000e+00  9.85548921e-01
  4.54441076e-02 -2.08100294e-02  2.10382759e-03  1.49867914e-03  0.00000000e+00
 -2.45210780e-03 -2.18181476e-03  0.00000000e+00  3.77638877e-04  4.73463153e-03
  9.86570412e-01  4.12856482e-02 -1.59749797e-02  1.56919928e-04 -1.83549688e-03
  0.00000000e+00 -1.30398566e-04  2.90153951e-03  0.00000000e+00 -4.00912698e-02
 -2.10592064e-03  3.78413528e-03 -3.14141878e-05  1.52228612e-04  0.00000000e+00
  5.42664212e-06  2.01697176e-03  0.00000000e+00 -4.81715780e-04  8.33684964e-04
  1.36454434e-01 -2.44595794e-01 -1.74641411e-01 -7.56403692e-03  6.66133084e-02
  0.00000000e+00 -8.28557310e-03  5.31512840e-02  0.00000000e+00  2.53239147e-01
 -4.57141586e-01 -3.85502465e-01 -5.91985763e-02 -5.65353550e-02  0.00000000e+00
 -6.46147538e-02 -6.05458565e-02  0.00000000e+00 -1.11545381e-01  1.57961819e-02
  2.60639684e-01 -4.80568337e-01 -4.54696515e-01 -2.09163574e-04 -1.65633790e-02
  0.00000000e+00 -6.47071479e-03 -1.71878314e-03  0.00000000e+00 -1.42755426e-01
  2.68321632e-01  2.63383612e-01  7.24427353e-02 -1.21957924e-01  0.00000000e+00
  6.70564061e-02 -1.05775987e-01  0.00000000e+00  1.33230114e-01  8.07477370e-03
  5.02636506e-02 -9.94395690e-02 -1.12480805e-01 -1.87544265e-01 -9.68688980e-02
  0.00000000e+00 -2.06072376e-01 -1.09518022e-01  0.00000000e+00 -8.18825060e-02
  1.53297869e-01  2.18873177e-01 -3.71614967e-01  7.40964240e-02  0.00000000e+00
 -3.91320522e-01  6.99314455e-02  0.00000000e+00 -2.48409213e-01 -1.12214308e-01
  8.18810876e-02 -1.62310812e-01 -2.34545476e-01  1.68559342e-01 -2.58353306e-01
  0.00000000e+00  2.00102690e-01 -2.75513120e-01  0.00000000e+00  2.88849642e-02
 -6.82634972e-02 -4.03623488e-02  8.88851961e-02  3.61288887e-01  0.00000000e+00
  1.17477206e-01  4.37921594e-01  0.00000000e+00 -4.96840697e-02 -3.67969163e-02
  0.00000000e+00  0.00000000e+00  0.00000000e+00  0.00000000e+00  0.00000000e+00
  8.54712334e-02  0.00000000e+00  0.00000000e+00  1.21355086e-01  0.00000000e+00
  0.00000000e+00  0.00000000e+00  0.00000000e+00  0.00000000e+00  5.02674562e-01
  0.00000000e+00  0.00000000e+00  6.17771858e-01  0.00000000e+00  0.00000000e+00
  5.80684719e-03 -6.93876368e-03 -5.06348009e-02 -4.77993450e-01 -4.83769151e-02
  0.00000000e+00 -5.68575914e-01 -4.06319321e-02  0.00000000e+00  4.34530766e-02
 -8.67109189e-02 -1.15697183e-01  2.20761422e-01  1.16091469e-01  0.00000000e+00
  2.49779202e-01  1.54764512e-01  0.00000000e+00  1.42439620e-01  4.61972169e-02
  0.00000000e+00  0.00000000e+00  0.00000000e+00  0.00000000e+00  0.00000000e+00
  4.29570165e-01  0.00000000e+00  0.00000000e+00  7.23766143e-01  0.00000000e+00
  0.00000000e+00  0.00000000e+00  0.00000000e+00  0.00000000e+00 -1.66159572e-01
  0.00000000e+00  0.00000000e+00 -2.15019623e-01  0.00000000e+00  0.00000000e+00
  1.51719880e-02 -3.01510684e-02 -4.04481219e-02  8.03568208e-03  1.76457278e-01
  0.00000000e+00  3.24502454e-02  3.09828839e-01  0.00000000e+00 -9.94249215e-02
  1.45454237e-01  8.80080544e-01  1.89603307e-01  6.93853954e-02  0.00000000e+00
  4.37778454e-01  1.04938864e-01  0.00000000e+00 -9.26826979e-02 -1.31344617e+00
  9.09091374e-02 -1.98003895e-01 -3.51854923e-01  3.79901805e-03  3.93550084e-01
  0.00000000e+00  3.54437082e-03  7.54440546e-01  0.00000000e+00 -5.76642890e-02
  1.47688309e-01  4.41805543e-02 -9.30813226e-02  3.58956239e-01  0.00000000e+00
 -2.12942744e-01  6.97615329e-01  0.00000000e+00  3.61167929e-02  5.63772287e-01
  5.31267967e-02 -2.29431653e-01  1.86287438e-01 -1.08779820e-01  3.00515979e-02
  0.00000000e+00 -5.10619109e-02 -2.09778636e-02  0.00000000e+00 -8.19300649e-02
  2.52833926e-01 -1.08906914e-01  2.93159386e-01 -8.23970136e-03  0.00000000e+00
  4.58679633e-01 -1.93734386e-01  0.00000000e+00 -1.36235801e+00  7.34531353e-01
  3.12235057e-01 -1.54581212e+00  1.58453104e+00  3.23592017e-02 -1.85599930e-01
  0.00000000e+00  4.97145770e-03  4.45970490e-03  0.00000000e+00  1.37888266e-01
 -6.25633271e-01  4.85112394e-01  4.69379851e-02 -3.22768020e-02  0.00000000e+00
 -9.80728225e-03 -2.19789785e-01  0.00000000e+00  1.37947824e-01 -4.11761968e-01
  9.66275909e-02 -5.80607036e-01  9.70173352e-01 -8.64796646e-02 -1.69063842e-01
  0.00000000e+00  5.47422969e-02 -2.64629334e-01  0.00000000e+00 -2.88060065e-01
  1.59925372e+00 -2.21606296e+00 -2.33440287e-01 -2.59561584e-01  0.00000000e+00
 -6.99316656e-02 -5.02278794e-02  0.00000000e+00  2.99911195e-01  3.76022637e-01
  0.00000000e+00  0.00000000e+00  0.00000000e+00  0.00000000e+00  0.00000000e+00
  4.77838991e-01  0.00000000e+00  0.00000000e+00 -2.58737038e-01  0.00000000e+00
  0.00000000e+00  0.00000000e+00  0.00000000e+00  0.00000000e+00  8.89425341e-01
  0.00000000e+00  0.00000000e+00 -7.89428198e-01  0.00000000e+00  0.00000000e+00
  1.90763342e-04  2.26557005e-02 -1.22140621e-01 -8.94055334e-01  3.11514119e-02
  0.00000000e+00  8.19352979e-01  7.76977946e-02  0.00000000e+00  6.93053734e-02
 -4.23337507e-01  7.18707871e-01 -4.04331197e-01 -1.04057277e-02  0.00000000e+00
  3.84970416e-01  4.57415944e-02  0.00000000e+00 -8.07655994e-02 -3.65957387e-01
  0.00000000e+00  0.00000000e+00  0.00000000e+00  0.00000000e+00  0.00000000e+00
  9.24578659e-01  0.00000000e+00  0.00000000e+00 -8.74170029e-01  0.00000000e+00
  0.00000000e+00  0.00000000e+00  0.00000000e+00  0.00000000e+00 -4.51268766e-01
  0.00000000e+00  0.00000000e+00  5.64455662e-01  0.00000000e+00  0.00000000e+00
  4.11889694e-02 -3.91381492e-01  1.12796524e+00  1.87107664e-01  3.93765312e-01
  0.00000000e+00 -2.58587380e-01 -1.06306162e+00  0.00000000e+00 -2.55909735e-02
  2.61807355e-01 -7.49955446e-01 -4.94236418e-01  7.13675602e-01  0.00000000e+00
  6.33617093e-01 -1.37452235e+00  0.00000000e+00 -1.07020869e-01 -2.56588632e-01
  9.85142932e-03 -1.94290656e-01  7.76266231e-01 -3.60763194e-01  6.51570115e-02
  0.00000000e+00  5.12753326e-01 -6.18458016e-01  0.00000000e+00 -8.53124275e-02
  6.70357506e-01 -1.45019258e+00  7.10448178e-01  4.90834469e-01  0.00000000e+00
 -1.14316004e+00 -8.34090311e-01  0.00000000e+00  6.07388818e-01  1.92879560e-01
  6.42227975e-02 -3.87397248e-01  5.27345419e-01 -3.27948795e-02  9.21184155e-01
  0.00000000e+00  6.73280855e-02 -1.06163390e+00  0.00000000e+00  2.20845557e-02
  1.36144924e-02 -5.76087812e-01  1.42205316e-01 -4.72069213e-01  0.00000000e+00
 -2.49731458e-01  7.67953439e-02  0.00000000e+00  1.88805804e-01  2.46207612e-02
Spin SCF Density                           R   N=         210
  4.46124363e-03 -1.52585327e-02  4.64287499e-02  6.49666858e-03 -4.86401208e-03
 -5.02730717e-02  1.82674130e-03 -4.54748543e-03 -4.47579333e-03  1.67087403e-02
  5.53775628e-03 -9.06545286e-03 -1.67635863e-02  9.79657709e-03  8.82428201e-02
  0.00000000e+00  0.00000000e+00  0.00000000e+00  0.00000000e+00  0.00000000e+00
  3.20809013e-01  1.52453865e-03 -3.92692402e-03 -4.86774764e-03  1.82919286e-03
  9.43925796e-03  0.00000000e+00 -1.78029049e-02  8.66325112e-03 -1.47013669e-02
 -2.16573787e-02  1.20694980e-02  9.88250135e-02  0.00000000e+00  1.21255836e-02
  1.11569499e-01  0.00000000e+00  0.00000000e+00  0.00000000e+00  0.00000000e+00
  0.00000000e+00  3.38775785e-01  0.00000000e+00  0.00000000e+00  3.57032086e-01
 -1.13019019e-04 -3.21969468e-04  1.17421550e-03 -1.53756703e-03 -9.14153102e-03
  0.00000000e+00 -1.49950790e-03 -1.56094921e-02  0.00000000e+00  6.66055984e-04
 -3.57413731e-04  1.73652484e-03 -1.84833864e-03  2.59927485e-03  2.12024348e-02
  0.00000000e+00  2.41763181e-03  3.40902584e-02  0.00000000e+00 -9.20274071e-04
  4.30101071e-04  1.98444356e-03 -3.27420545e-03  2.35168623e-04  8.45867997e-03
  3.80299534e-02  0.00000000e+00  8.37371484e-03  5.32063873e-02  0.00000000e+00
 -5.56734781e-03  1.16429980e-02  2.34883014e-02 -2.18560041e-03  4.26287489e-03
  9.68859007e-03  3.94917672e-04 -7.93960509e-03  0.00000000e+00  1.70599668e-03
 -1.43356479e-02  0.00000000e+00  2.95459572e-03 -6.02009230e-03 -1.09158594e-02
 -3.71652846e-03 -6.94358343e-03  1.55539173e-02  3.75868255e-02  6.59770107e-03
 -5.14585754e-03  0.00000000e+00  8.55194745e-03 -1.15768261e-02  0.00000000e+00
  5.55540527e-03 -9.25134049e-03 -2.50552681e-02 -1.45412113e-02 -8.21095820e-02
  0.00000000e+00  0.00000000e+00  0.00000000e+00  0.00000000e+00  0.00000000e+00
 -7.43000505e-02  0.00000000e+00  0.00000000e+00 -1.02457205e-01  0.00000000e+00
  0.00000000e+00  0.00000000e+00  0.00000000e+00  0.00000000e+00  3.78027193e-02
 -2.95326952e-03  5.77211861e-03  1.24439409e-02 -3.95838161e-04 -1.28435124e-02
  0.00000000e+00  1.21017972e-03 -2.06057948e-02  0.00000000e+00  3.97869710e-03
 -8.04511653e-03 -1.49844284e-02 -3.27139251e-03 -1.83535336e-02  0.00000000e+00
 -2.61879771e-03 -7.01354453e-03  1.54778303e-02  4.49282879e-02  1.09945053e-02
 -1.31220460e-03  0.00000000e+00  1.37119897e-02 -7.89018615e-03  0.00000000e+00
  2.88680739e-03 -3.67796408e-03 -2.22137750e-02 -1.84237270e-02 -1.02601723e-01
  0.00000000e+00 -2.35195865e-02 -1.27230419e-01  0.00000000e+00  0.00000000e+00
  0.00000000e+00  0.00000000e+00  0.00000000e+00 -1.01163458e-01  0.00000000e+00
  0.00000000e+00 -1.36058399e-01  0.00000000e+00  0.00000000e+00  0.00000000e+00
  0.00000000e+00  0.00000000e+00  3.53172081e-02  0.00000000e+00  0.00000000e+00
  3.05150982e-02 -9.51500345e-05 -1.06428250e-04 -2.46893052e-03  7.34628405e-04
  8.49489549e-04  0.00000000e+00  2.24470440e-03  5.71830359e-04  0.00000000e+00
 -1.48836720e-03  2.12809571e-03  3.95997938e-03  9.15988122e-04  6.36763355e-03
  0.00000000e+00  1.71897313e-03  9.47475535e-03  0.00000000e+00  1.35452305e-03
  2.87903726e-03 -5.44331741e-03 -7.94892152e-03 -3.52191275e-03 -3.49487639e-03
  0.00000000e+00 -3.65918618e-03 -4.86319281e-03  0.00000000e+00 -5.19494997e-04
  5.99558543e-04  1.00015551e-03  3.57903291e-03  9.95263283e-03  0.00000000e+00
  4.59398365e-03  1.22395315e-02  0.00000000e+00  6.53595822e-04 -4.05170174e-04
Spin MP2 Density                           R   N=         210
  4.63228905e-03 -1.06402733e-02  2.44356096e-02 -1.50664516e-02  3.42298218e-02
  4.00027201e-02 -2.47717268e-03  5.92003530e-03  6.34266010e-03  5.32265347e-03
 -3.45470472e-03  6.95975445e-03  1.38729972e-02 -1.26024921e-02 -1.23981799e-01
 -5.03976849e-16  8.40654068e-16  8.15777939e-16 -7.71063066e-15  6.85436941e-16
  3.01455692e-01 -2.24934580e-03  5.81192525e-03  6.36041655e-03  1.09533860e-03
 -1.21667035e-02 -7.57640533e-15 -5.80021325e-03  5.65627221e-03 -1.09849730e-02
 -2.74862977e-03 -1.54956634e-02 -1.53984608e-01  5.41459361e-16 -1.46627635e-02
 -1.84717307e-01 -5.62081788e-16  9.57773901e-16  8.37669489e-16 -8.35919581e-15
  7.14879084e-16  3.10008163e-01 -8.32753634e-15  5.73528397e-16  3.35142127e-01
 -6.24579983e-04  2.29250871e-03 -5.05287947e-04  2.24612345e-03  1.26398460e-02
  2.15872022e-16  2.68870318e-03  1.92755952e-02  3.12969215e-16  1.52977404e-03
 -2.92390486e-03  3.62445081e-03  9.30062949e-03 -3.76980267e-03 -2.95973985e-02
 -2.73161679e-16 -4.32156759e-03 -4.35812844e-02 -4.18898954e-16 -5.43161235e-03
  1.74835785e-02  1.54681838e-02 -3.29217927e-02 -2.72901557e-02 -1.22794659e-02
 -5.45163222e-02 -1.04097492e-15 -1.43986355e-02 -6.97231076e-02 -1.39230283e-15
  5.85523236e-03 -1.18078112e-02 -2.95981354e-02  3.08210039e-03 -6.09468183e-03
 -1.35543731e-02 -1.01123933e-03  1.03690597e-02  9.39197733e-16 -7.95089149e-04
  1.97910647e-02  1.31949336e-15 -4.99675942e-03  9.13576165e-03  2.01599332e-02
  1.44902693e-02  1.47375434e-02 -3.21681710e-02 -6.05169912e-02 -7.62478821e-03
 -5.29540154e-03  3.83734913e-17 -9.77137674e-03  4.73628524e-03  1.93602216e-16
 -7.50994853e-03  1.07907854e-02  3.52913786e-02  2.05317834e-02  1.16226467e-01
  1.20674486e-16 -1.81087406e-16 -1.76682631e-16  1.88718676e-15 -1.82968891e-16
 -1.13982706e-01  2.34481033e-15 -1.75145697e-16 -1.50435747e-01 -1.06396708e-16
  2.04146913e-16  2.61638602e-16 -5.09284765e-16 -1.88332710e-16  8.27373434e-02