    -----------------------------------------------------------------------
          PSI4: An Open-Source Ab Initio Electronic Structure Package
                              PSI 4.0.0-beta1 Driver

    J. M. Turney, A. C. Simmonett, R. M. Parrish, E. G. Hohenstein,
    F. Evangelista, J. T. Fermann, B. J. Mintz, L. A. Burns, J. J. Wilke,
    M. L. Abrams, N. J. Russ, M. L. Leininger, C. L. Janssen, E. T. Seidl,
    W. D. Allen, H. F. Schaefer, R. A. King, E. F. Valeev, C. D. Sherrill,
    and T. D. Crawford, WIREs Comput. Mol. Sci., (2011) (doi: 10.1002/wcms.93)

                         Additional Contributions by
    A. E. DePrince, M. Saitow, U. Bozkaya, A. Yu. Sokolov
    -----------------------------------------------------------------------


    Using LocalCommunicator (Number of processes = 1)

    Memory level set to 256.000 MB

  ==> Input File <==

--------------------------------------------------------------------------
#! RHF-CC2-LR/cc-pVDZ static polarizabilities of HOF molecule.

memory 250 mb

molecule hof {
  0 1
  O
  H 1 0.97
  F 1 0.97 2 103.0
}

set {
  basis "cc-pVDZ"
}

response('cc2')
--------------------------------------------------------------------------

  Memory set to 250.000 MiB by Python script.

*** tstart() called on QuickSilver.local
*** at Mon Jan 23 15:10:47 2012


         ---------------------------------------------------------
                                   SCF
            by Justin Turney, Rob Parrish, and Andy Simmonett
                              RHF Reference
                        1 Threads,    250 MiB Core
         ---------------------------------------------------------

  ==> Geometry <==

    Molecular point group: cs

    Geometry (in Angstrom), charge = 0, multiplicity = 1:

       Center              X                  Y                   Z       
    ------------   -----------------  -----------------  -----------------
           O          0.498765585882    -0.087994685081     0.000000000000
           H          0.498765585882    -1.057994685081     0.000000000000
           F         -0.446373376960     0.130207837633     0.000000000000

    Number of unique atoms: 3

    Atoms equivalency:
       unique atom 0: 0 
       unique atom 1: 1 
       unique atom 2: 2 

  Running in cs symmetry.

  Nuclear repulsion =   46.780358486018564

  Charge       = 0
  Multiplicity = 1
  Electrons    = 18
  Nalpha       = 9
  Nbeta        = 9

  ==> Algorithm <==

  SCF Algorithm Type is PK.
  DIIS enabled.
  MOM disabled.
  Fractional occupation disabled.
  Guess Type is CORE.
  Energy threshold   = 1.00e-08
  Density threshold  = 1.00e-08
  Integral threshold = 0.00e+00

  ==> Primary Basis: CC-PVDZ <==

  Basis Set
    Number of shells: 15
    Number of basis function: 33
    Number of Cartesian functions: 35
    Spherical Harmonics?: true
    Max angular momentum: 2

  ==> Pre-Iterations <==

  Minimum eigenvalue in the overlap matrix is 1.1480370680E-02.
  Using Symmetric Orthogonalization.
  SCF Guess: Core (One-Electron) Hamiltonian.

  Initial RHF energy:  -133.10619681275364

   -------------------------------------------------------
    Irrep   Nso     Nmo     Nalpha   Nbeta   Ndocc  Nsocc
   -------------------------------------------------------
     A'        24      24       7       7       7       0
     A"         9       9       2       2       2       0
   -------------------------------------------------------
    Total      33      33       9       9       9       0
   -------------------------------------------------------

  ==> Integral Setup <==

 MINTS: Wrapper to libmints.
   by Justin Turney

   Calculation information:
      Number of atoms:                   3
      Number of AO shells:              15
      Number of SO shells:              15
      Number of primitives:             49
      Number of atomic orbitals:        35
      Number of basis functions:        33

      Number of irreps:                  2
      Number of functions per irrep: [  24    9 ]

      Overlap, kinetic, potential, dipole, and quadrupole integrals
        stored in file 35.

      Computing two-electron integrals...done
      Computed 75607 non-zero two-electron integrals.
        Stored in file 33.

  ==> Iterations <==

                        Total Energy        Delta E     Density RMS

   @RHF iter   1:  -159.89904023157956   -2.67928e+01   0.00000e+00 
	Occupation by irrep:
	         A'    A" 
	DOCC [     8,    1 ]
   @RHF iter   2:  -161.87005148329536   -1.97101e+00   2.86011e-01 DIIS
	Occupation by irrep:
	         A'    A" 
	DOCC [     7,    2 ]
   @RHF iter   3:  -174.13894840667530   -1.22689e+01   2.46076e-01 DIIS
   @RHF iter   4:  -174.39661973446033   -2.57671e-01   1.68208e-02 DIIS
   @RHF iter   5:  -174.41501903222013   -1.83993e-02   4.76869e-03 DIIS
   @RHF iter   6:  -174.41784395430042   -2.82492e-03   2.13078e-03 DIIS
   @RHF iter   7:  -174.41837758415406   -5.33630e-04   1.13021e-03 DIIS
   @RHF iter   8:  -174.41843172807339   -5.41439e-05   4.74213e-04 DIIS
   @RHF iter   9:  -174.41843311021327   -1.38214e-06   7.43395e-05 DIIS
   @RHF iter  10:  -174.41843319061226   -8.03990e-08   2.07694e-05 DIIS
   @RHF iter  11:  -174.41843319159250   -9.80236e-10   1.80913e-06 DIIS
   @RHF iter  12:  -174.41843319163800   -4.55032e-11   2.54363e-07 DIIS
   @RHF iter  13:  -174.41843319163974   -1.73372e-12   8.65685e-08 DIIS
   @RHF iter  14:  -174.41843319163996   -2.27374e-13   1.45291e-08 DIIS

  ==> Post-Iterations <==

	Orbital Energies (a.u.)
	-----------------------

	Doubly Occupied:                                                      

	   1A'   -26.330356     2A'   -20.627725     3A'    -2.082395  
	   4A'    -1.191294     5A'    -0.971697     1A"    -0.924953  
	   6A'    -0.850984     7A'    -0.460395     2A"    -0.380150  

	Virtual:                                                              

	   8A'     0.192183     9A'     0.648601    10A'     0.823611  
	   3A"     1.119958    11A'     1.143363    12A'     1.228844  
	  13A'     1.367722    14A'     1.461132     4A"     1.471205  
	   5A"     1.535571    15A'     1.667967    16A'     1.769476  
	  17A'     2.310638    18A'     2.700605     6A"     2.776264  
	  19A'     3.034541     7A"     3.108650    20A'     3.654401  
	  21A'     3.975079     8A"     4.008294    22A'     4.151682  
	   9A"     4.827587    23A'     4.882339    24A'     5.266360  

	Final Occupation by Irrep:
	         A'    A" 
	DOCC [     7,    2 ]

  Energy converged.

  @RHF Final Energy:  -174.41843319163996

  ==> Properties <==
  Nuclear Dipole Moment: (a.u.)
     X:     0.8911      Y:    -1.1151      Z:     0.0000

  Electronic Dipole Moment: (a.u.)
     X:    -1.0103      Y:     0.5113      Z:     0.0000

  Dipole Moment: (a.u.)
     X:    -0.1192      Y:    -0.6037      Z:     0.0000     Total:     0.6154

  Dipole Moment: (Debye)
     X:    -0.3030      Y:    -1.5346      Z:     0.0000     Total:     1.5642


  Saving occupied orbitals to File 180.

*** tstop() called on QuickSilver.local at Mon Jan 23 15:10:47 2012
Module time:
	user time   =       0.26 seconds =       0.00 minutes
	system time =       0.02 seconds =       0.00 minutes
	total time  =          0 seconds =       0.00 minutes
Total time:
	user time   =       0.26 seconds =       0.00 minutes
	system time =       0.02 seconds =       0.00 minutes
	total time  =          0 seconds =       0.00 minutes

*** tstart() called on QuickSilver.local
*** at Mon Jan 23 15:10:47 2012


	**************************************************
	* TRANSQT2: Program to transform integrals from  *
	*           the SO basis to the MO basis.        *
	*                                                *
	*            Daniel, David, & Justin             *
	**************************************************


	Input parameters:
	-----------------
	Wave function   =	CC2
	Backtransform   =	No
	Print Level     =	1
	Print TEIs      =	No
	Reference wfn   =	RHF
	Derivative      =	Response
	Delete TEI File =	Yes
	Memory (Mbytes) =	250.0
	Cache Level     =	2
	Cache Type      =	LRU
	Chkpt Parameters:
	--------------------
	Number of irreps     = 2
	Number of SOs        = 33
	Number of MOs        = 33
	Number of active MOs = 33

	Label	# SOs	# FZDC	# DOCC	# SOCC	# VIRT	# FZVR
	-----	-----	------	------	------	------	------
	 A'	   24	    0	    7	    0	    17	    0
	 A"	   9	    0	    2	    0	    7	    0

	Nuclear Rep. energy (chkpt) =     46.78035848601856
	SCF energy          (chkpt) =   -174.41843319163996

	Presorting SO-basis two-electron integrals.
	Sorting File: SO Ints (pq,rs) nbuckets = 1
	Frozen-core energy =    0.000000000000000
	Starting first half-transformation.
	Sorting half-transformed integrals.
	Starting second half-transformation.
	Two-electron integral transformation complete.

*** tstop() called on QuickSilver.local at Mon Jan 23 15:10:47 2012
Module time:
	user time   =       0.06 seconds =       0.00 minutes
	system time =       0.03 seconds =       0.00 minutes
	total time  =          0 seconds =       0.00 minutes
Total time:
	user time   =       0.32 seconds =       0.01 minutes
	system time =       0.05 seconds =       0.00 minutes
	total time  =          0 seconds =       0.00 minutes

*** tstart() called on QuickSilver.local
*** at Mon Jan 23 15:10:47 2012


			**************************
			*                        *
			*         CCSORT         *
			*                        *
			**************************


	Input parameters:
	-----------------
	Wave function   =	CC2
	Reference wfn   =	RHF
	Derivative      =	Response
	Memory (Mbytes) =	250.0
	AO Basis        =	NONE
	Make (ab|cd)    =	True
	Make unpacked (ab|cd) =	False
	Cache Level     =	2
	Cache Type      =	LRU
	Local CC        =     No


	Chkpt Parameters:
	--------------------
	Number of irreps     = 2
	Number of MOs        = 33
	Number of active MOs = 33

	Label	# MOs	# FZDC	# DOCC	# SOCC	# VIRT	# FZVR
	-----	-----	------	------	------	------	------
	 A'	   24	    0	    7	    0	    17	    0
	 A"	   9	    0	    2	    0	    7	    0

	Nuclear Rep. energy (chkpt) =     46.78035848601856
	SCF energy          (chkpt) =   -174.41843319163996

	Size of irrep 0 of <ab|cd> integrals:      0.114 (MW) /      0.914 (MB)
	Size of irrep 1 of <ab|cd> integrals:      0.057 (MW) /      0.453 (MB)
	Total:                                     0.171 (MW) /      1.367 (MB)

	Size of irrep 0 of <ia|bc> integrals:      0.045 (MW) /      0.360 (MB)
	Size of irrep 1 of <ia|bc> integrals:      0.020 (MW) /      0.158 (MB)
	Total:                                     0.065 (MW) /      0.518 (MB)

	Size of irrep 0 of tijab amplitudes:       0.018 (MW) /      0.143 (MB)
	Size of irrep 1 of tijab amplitudes:       0.007 (MW) /      0.053 (MB)
	Total:                                     0.025 (MW) /      0.197 (MB)


	Sorting File: A <ij|kl> nbuckets = 1
	Sorting File: B(+) <ab|cd> nbuckets = 1
	Sorting File: C <ia|jb> nbuckets = 1
	Sorting File: D <ij|ab> nbuckets = 1
	Sorting File: E <ai|jk> nbuckets = 1
	Sorting File: F <ia|bc> nbuckets = 1
	Sorting File: F <ai|bc> nbuckets = 1
	One-electron energy          =   -334.75768597719991
	Two-electron (AA) energy     =     47.26858837600990
	Two-electron (BB) energy     =     47.26858837600990
	Two-electron (AB) energy     =     66.29030592353168
	Two-electron energy          =    113.55889429954158
	Frozen-core energy (transqt) =      0.00000000000000
	Reference energy             =   -174.41843319163976

*** tstop() called on QuickSilver.local at Mon Jan 23 15:10:48 2012
Module time:
	user time   =       0.04 seconds =       0.00 minutes
	system time =       0.06 seconds =       0.00 minutes
	total time  =          1 seconds =       0.02 minutes
Total time:
	user time   =       0.36 seconds =       0.01 minutes
	system time =       0.11 seconds =       0.00 minutes
	total time  =          1 seconds =       0.02 minutes

*** tstart() called on QuickSilver.local
*** at Mon Jan 23 15:10:48 2012

			**************************
			*                        *
			*        CCENERGY        *
			*                        *
			**************************

	Nuclear Rep. energy (chkpt)   =   46.780358486018564
	SCF energy          (chkpt)   = -174.418433191639963
	Reference energy    (file100) = -174.418433191639764

	Input parameters:
	-----------------
	Wave function   =      CC2
	Reference wfn   =     RHF
	Memory (Mbytes) =     250.0
	Maxiter         =     50
	Convergence     =     1.0e-07
	Restart         =     No
	DIIS            =     Yes
	AO Basis        =     NONE
	ABCD            =     NEW
	Cache Level     =     2
	Cache Type      =     LOW
	Print Level     =     1
	Num. of threads =     1
	# Amps to Print =     10
	Print MP2 Amps? =     No
	Analyze T2 Amps =     No
	Print Pair Ener =     No
	Local CC        =     No
	SCS-MP2         =     False
	SCSN-MP2        =     False
	SCS-CCSD        =     False

	            Solving CC Amplitude Equations
	            ------------------------------
  Iter             Energy              RMS        T1Diag      D1Diag    New D1Diag
  ----     ---------------------    ---------   ----------  ----------  ----------
     0        -0.356636248421017    0.000e+00    0.000000    0.000000    0.000000
     1        -0.356563800718955    1.814e-02    0.004275    0.011894    0.011894
     2        -0.357908445072345    4.538e-03    0.004855    0.013947    0.013947
     3        -0.358105639625821    2.649e-03    0.005471    0.016723    0.016723
     4        -0.358083336231092    1.020e-03    0.005718    0.018168    0.018168
     5        -0.358082694523694    4.248e-04    0.005833    0.018902    0.018902
     6        -0.358084027903163    6.450e-05    0.005837    0.018941    0.018941
     7        -0.358084024411100    1.720e-05    0.005838    0.018948    0.018948
     8        -0.358084006297721    4.378e-06    0.005838    0.018944    0.018944
     9        -0.358083999080994    1.096e-06    0.005838    0.018945    0.018945
    10        -0.358083997965113    2.215e-07    0.005838    0.018944    0.018944
    11        -0.358084000457476    5.827e-08    0.005838    0.018944    0.018944

	Iterations converged.


	Largest TIA Amplitudes:
	          6   0         0.0155237603
	          5   0        -0.0060930433
	          7  17        -0.0058282757
	          6   2        -0.0058186646
	          8  17        -0.0047941803
	          6   9         0.0047203699
	          3   1         0.0041618306
	          7  18         0.0040716184
	          4   9        -0.0040084255
	          6   1        -0.0039274594

	Largest TIjAb Amplitudes:
	  8   8  17  17        -0.0309775827
	  6   6   2   2        -0.0284448773
	  8   8  18  18        -0.0206998061
	  7   7  18  18        -0.0200891521
	  7   8  17  17        -0.0186945254
	  8   7  17  17        -0.0186945254
	  6   6   0   0        -0.0184867584
	  7   8  18  18         0.0177215752
	  8   7  18  18         0.0177215752
	  4   4   6   6        -0.0167721245

	SCF energy       (chkpt)              = -174.418433191639963
	Reference energy (file100)            = -174.418433191639764

	Opposite-spin MP2 correlation energy  =   -0.260477911116398
	Same-spin MP2 correlation energy      =   -0.096158337304618
	MP2 correlation energy                =   -0.356636248421017
      * MP2 total energy                      = -174.775069440060776
	CC2 correlation energy     =   -0.358084000457476
      * CC2 total energy           = -174.776517192097231


*** tstop() called on QuickSilver.local at Mon Jan 23 15:10:52 2012
Module time:
	user time   =       0.51 seconds =       0.01 minutes
	system time =       0.40 seconds =       0.01 minutes
	total time  =          4 seconds =       0.07 minutes
Total time:
	user time   =       0.88 seconds =       0.01 minutes
	system time =       0.51 seconds =       0.01 minutes
	total time  =          5 seconds =       0.08 minutes

*** tstart() called on QuickSilver.local
*** at Mon Jan 23 15:10:52 2012


			**************************
			*                        *
			*         CCHBAR         *
			*                        *
			**************************


*** tstop() called on QuickSilver.local at Mon Jan 23 15:10:52 2012
Module time:
	user time   =       0.06 seconds =       0.00 minutes
	system time =       0.05 seconds =       0.00 minutes
	total time  =          0 seconds =       0.00 minutes
Total time:
	user time   =       0.94 seconds =       0.02 minutes
	system time =       0.56 seconds =       0.01 minutes
	total time  =          5 seconds =       0.08 minutes

*** tstart() called on QuickSilver.local
*** at Mon Jan 23 15:10:52 2012


			**************************
			*        CCLAMBDA        *
			**************************


	Nuclear Rep. energy (chkpt)   =   46.780358486018564
	Reference           (chkpt)   = 0
	SCF energy          (chkpt)   = -174.418433191639963
	Reference energy    (CC_INFO) = -174.418433191639764
	CC2 energy          (CC_INFO) =   -0.358084000457476
	Total CC2 energy    (CC_INFO) = -174.776517192097231

	Input parameters:
	-----------------
	Maxiter       =      50
	Convergence   = 1.0e-07
	Restart       =     No
	Cache Level   =     2
	Model III     =     No
	DIIS          =     Yes
	AO Basis      =     No
	ABCD            =     NEW
	Local CC        =     No
	Paramaters for left-handed eigenvectors:
	    Irr   Root  Ground-State?    EOM energy        R0
	  1   0     0        Yes       0.0000000000   1.0000000000
	Labels for eigenvector 1:
	LIA 0 -1, Lia 0 -1, LIJAB 0 -1, Lijab 0 -1, LIjAb 0 -1, 2LIjAb - LIjbA 0 -1
	Deleting old CC_LAMBDA data.
	Symmetry of left-hand state: A'
	Symmetry of left-hand eigenvector: A'

	          Solving Lambda Equations
	          ------------------------
	Iter     PseudoEnergy or Norm         RMS  
	----     ---------------------     --------
	   0        -0.358163771384758    0.000e+00
	   1        -0.358109760065632    5.948e-03
	   2        -0.357964647905750    8.374e-04
	   3        -0.357946760743865    5.893e-04
	   4        -0.357944455222974    2.526e-04
	   5        -0.357944756041057    8.987e-05
	   6        -0.357944319798431    1.995e-05
	   7        -0.357944217558405    3.708e-06
	   8        -0.357944210321006    8.806e-07
	   9        -0.357944215019592    2.164e-07
	  10        -0.357944215988970    7.381e-08

	Largest LIA Amplitudes:
	          6   0         0.0126078818
	          5   0        -0.0052208620
	          7  17        -0.0051024711
	          6   9         0.0050287298
	          4   2        -0.0044232983
	          4   9        -0.0042061553
	          8  17        -0.0041847793
	          6   2        -0.0040979154
	          3   1         0.0037476746
	          6   1        -0.0031129473

	Largest LIjAb Amplitudes:
	  8   8  17  17        -0.0309537191
	  6   6   2   2        -0.0282735635
	  8   8  18  18        -0.0206652692
	  7   7  18  18        -0.0200413461
	  7   8  17  17        -0.0186782375
	  8   7  17  17        -0.0186782375
	  6   6   0   0        -0.0182203119
	  7   8  18  18         0.0176903716
	  8   7  18  18         0.0176903716
	  4   4   6   6        -0.0167575206

	Iterations converged.

	Overlap <L|e^T> =        0.92825717822

*** tstop() called on QuickSilver.local at Mon Jan 23 15:10:53 2012
Module time:
	user time   =       0.16 seconds =       0.00 minutes
	system time =       0.10 seconds =       0.00 minutes
	total time  =          1 seconds =       0.02 minutes
Total time:
	user time   =       1.10 seconds =       0.02 minutes
	system time =       0.66 seconds =       0.01 minutes
	total time  =          6 seconds =       0.10 minutes

*** tstart() called on QuickSilver.local
*** at Mon Jan 23 15:10:53 2012

			**************************
			*                        *
			*       ccresponse       *
			*                        *
			**************************

	Input parameters:
	-----------------
	Property         =    POLARIZABILITY
	Reference wfn    =      RHF
	Memory (Mbytes)  =  250.0
	Cache Level      =    0
	Print Level      =    1
	Maxiter          =     50
	Convergence      = 1.0e-07
	Restart          =     Allowed
	DIIS             =     Yes
	Model III        =     No
	Linear Model     =     No
	ABCD             =     NEW
	Irrep X          =     A'
	Irrep Y          =     A'
	Irrep Z          =     A"
	Irrep RX         =     A"
	Irrep RY         =     A"
	Irrep RZ         =     A'
	Gauge            =    LENGTH
	Applied field  0 =  0.000
	Analyze X2 Amps  =    No
	Local CC         =    No

    Molecular point group: cs

    Geometry (in Angstrom), charge = 0, multiplicity = 1:

       Center              X                  Y                   Z       
    ------------   -----------------  -----------------  -----------------
           O          0.498765585882    -0.087994685081     0.000000000000
           H          0.498765585882    -1.057994685081     0.000000000000
           F         -0.446373376960     0.130207837633     0.000000000000

    Number of unique atoms: 3

    Atoms equivalency:
       unique atom 0: 0 
       unique atom 1: 1 
       unique atom 2: 2 

  -AO BASIS SET INFORMATION:
    Total number of shells = 15
    Number of primitives   = 49
    Number of AO           = 35
    Number of SO           = 33
    Maximum AM             = 2
    Spherical Harmonics    = TRUE

  -Contraction Scheme:
    Atom   Type   All Primitives // Shells:
   ------ ------ --------------------------
       1     O     17s 4p 1d // 3s 2p 1d 
       2     H     4s 1p // 2s 1p 
       3     F     17s 4p 1d // 3s 2p 1d 

  -Basis set on unique center 1: O
     S (      11720.00000000           0.56970172)
       (       1759.00000000           1.05835210)
       (        400.80000000           1.77628106)
       (        113.70000000           2.59941189)
       (         37.03000000           3.02684600)
       (         13.27000000           2.22239433)
       (          5.02500000           0.64779543)
       (          1.01300000           0.01111870)
     S (      11720.00000000          -0.25243426)
       (       1759.00000000          -0.48049109)
       (        400.80000000          -0.78629966)
       (        113.70000000          -1.25416990)
       (         37.03000000          -1.49121792)
       (         13.27000000          -1.61083178)
       (          5.02500000          -0.54979838)
       (          1.01300000           0.78828221)
     S (          0.30230000           0.29056192)
     P (         17.70000000           3.24361935)
       (          3.85400000           2.56727965)
       (          1.04600000           1.11766932)
     P (          0.27530000           0.28424828)
     D (          1.18500000           2.21521850)

  -Basis set on unique center 2: H
     S (         13.01000000           0.16354842)
       (          1.96200000           0.27741754)
       (          0.44460000           0.31574931)
     S (          0.12200000           0.14712279)
     P (          0.72700000           0.95688138)

  -Basis set on unique center 3: F
     S (      14710.00000000           0.68605396)
       (       2207.00000000           1.27377561)
       (        502.80000000           2.13815742)
       (        142.60000000           3.12913526)
       (         46.47000000           3.63658177)
       (         16.70000000           2.64027899)
       (          6.35600000           0.75501475)
       (          1.31600000           0.01342093)
     S (      14710.00000000          -0.30576437)
       (       2207.00000000          -0.58432291)
       (        502.80000000          -0.95679530)
       (        142.60000000          -1.52808641)
       (         46.47000000          -1.81962328)
       (         16.70000000          -1.95730098)
       (          6.35600000          -0.62382891)
       (          1.31600000           0.95940115)
     S (          0.38970000           0.35152636)
     P (         22.67000000           4.57148657)
       (          4.97700000           3.60837656)
       (          1.34700000           1.51959530)
     P (          0.34710000           0.37975924)
     D (          1.64000000           3.91188600)


	Computing Mu_X-Perturbed Wave Function (0.000 E_h).
	Iter   Pseudopolarizability       RMS 
	----   --------------------   -----------
	   0         3.677408979859
	   1         4.426377436402    1.991e-01
	   2         4.907315549717    9.844e-02
	   3         4.954086840297    2.716e-02
	   4         4.962096893762    1.668e-02
	   5         4.964422449534    3.058e-03
	   6         4.964369389171    1.310e-03
	   7         4.964292282571    1.899e-04
	   8         4.964311196445    6.011e-05
	   9         4.964309378670    9.685e-06
	  10         4.964310523380    2.468e-06
	  11         4.964310725545    3.677e-07
	  12         4.964310838407    1.084e-07
	-----------------------------------------
	Converged Mu_X-Perturbed Wfn to 3.156e-08

	Computing Mu_Y-Perturbed Wave Function (0.000 E_h).
	Iter   Pseudopolarizability       RMS 
	----   --------------------   -----------
	   0         5.198806489093
	   1         6.461675149816    3.901e-01
	   2         7.825099701788    2.523e-01
	   3         8.027960086249    6.744e-02
	   4         8.081321417761    3.142e-02
	   5         8.085012094695    3.129e-03
	   6         8.085968651828    1.134e-03
	   7         8.085820676198    1.255e-04
	   8         8.085847381568    3.995e-05
	   9         8.085844625654    7.495e-06
	  10         8.085846323640    1.878e-06
	  11         8.085846312709    5.010e-07
	  12         8.085846377047    1.244e-07
	-----------------------------------------
	Converged Mu_Y-Perturbed Wfn to 3.650e-08

	Computing Mu_Z-Perturbed Wave Function (0.000 E_h).
	Iter   Pseudopolarizability       RMS 
	----   --------------------   -----------
	   0         2.479889941121
	   1         2.892986901226    1.719e-01
	   2         3.179551235128    1.097e-01
	   3         3.227327083307    5.000e-02
	   4         3.254438425941    2.873e-02
	   5         3.255064288331    4.754e-03
	   6         3.256671395657    2.117e-03
	   7         3.256666799961    2.505e-04
	   8         3.256680240080    7.992e-05
	   9         3.256683732118    1.616e-05
	  10         3.256684382462    6.243e-06
	  11         3.256685049524    1.406e-06
	  12         3.256685458266    3.646e-07
	  13         3.256685582425    1.195e-07
	-----------------------------------------
	Converged Mu_Z-Perturbed Wfn to 3.126e-08

	Computing <<Mu;Mu>_(0.000) tensor.

                 CC2 Dipole Polarizability [(e^2 a0^2)/E_h]:
  -------------------------------------------------------------------------
   Evaluated at omega = 0.000000 E_h (Inf nm, 0.000 eV,     0.00 cm-1)
  -------------------------------------------------------------------------

                0                  1                  2        

    0   4.827201918777763 -1.312098238476979  0.000000000000000
    1  -1.312098238476979  7.705535220580339  0.000000000000000
    2   0.000000000000000  0.000000000000000  3.190144053041428

	alpha_(0.000) =      15.722881192400 a.u.

*** tstop() called on QuickSilver.local at Mon Jan 23 15:10:55 2012
Module time:
	user time   =       0.79 seconds =       0.01 minutes
	system time =       0.57 seconds =       0.01 minutes
	total time  =          2 seconds =       0.03 minutes
Total time:
	user time   =       1.89 seconds =       0.03 minutes
	system time =       1.23 seconds =       0.02 minutes
	total time  =          8 seconds =       0.13 minutes

*** PSI4 exiting successfully. Buy a developer a beer!
