
    -----------------------------------------------------------------------
          Psi4: An Open-Source Ab Initio Electronic Structure Package
                               Psi4 1.2a1.dev704 

                         Git: Rev {devel} a7fc050 dirty


    R. M. Parrish, L. A. Burns, D. G. A. Smith, A. C. Simmonett,
    A. E. DePrince III, E. G. Hohenstein, U. Bozkaya, A. Yu. Sokolov,
    R. Di Remigio, R. M. Richard, J. F. Gonthier, A. M. James,
    H. R. McAlexander, A. Kumar, M. Saitow, X. Wang, B. P. Pritchard,
    P. Verma, H. F. Schaefer III, K. Patkowski, R. A. King, E. F. Valeev,
    F. A. Evangelista, J. M. Turney, T. D. Crawford, and C. D. Sherrill,
    J. Chem. Theory Comput. 13(7) pp 3185--3197 (2017).
    (doi: 10.1021/acs.jctc.7b00174)

    -----------------------------------------------------------------------


    Psi4 started on: Friday, 26 January 2018 10:46PM

    Process ID: 140257
    PSIDATADIR: /home/akumar1/newriver/installed/psi4/latest_psi4/share/psi4
    Memory:     500.0 MiB
    Threads:    1
    
  ==> Input File <==

--------------------------------------------------------------------------
#! RHF-CC2-LR/cc-pVDZ static polarizabilities of HOF molecule.

molecule hof {
  0 1
  O
  H 1 0.97
  F 1 0.97 2 103.0
}

set {
  basis "cc-pVDZ"
}

properties('cc2',properties=['polarizability'])
ref_static_polar = 5.240960398531
compare_values(ref_static_polar,   get_variable("CC2 DIPOLE POLARIZABILITY @ INF NM"),  3, "CC2 polarizability @ Inf nm") #TEST
--------------------------------------------------------------------------

*** tstart() called on nrlogin1
*** at Fri Jan 26 22:46:34 2018

   => Loading Basis Set <=

    Name: CC-PVDZ
    Role: ORBITAL
    Keyword: BASIS
    atoms 1 entry O          line   198 file /home/akumar1/newriver/installed/psi4/latest_psi4/share/psi4/basis/cc-pvdz.gbs 
    atoms 2 entry H          line    22 file /home/akumar1/newriver/installed/psi4/latest_psi4/share/psi4/basis/cc-pvdz.gbs 
    atoms 3 entry F          line   228 file /home/akumar1/newriver/installed/psi4/latest_psi4/share/psi4/basis/cc-pvdz.gbs 


         ---------------------------------------------------------
                                   SCF
            by Justin Turney, Rob Parrish, Andy Simmonett
                             and Daniel Smith
                              RHF Reference
                        1 Threads,    500 MiB Core
         ---------------------------------------------------------

  ==> Geometry <==

    Molecular point group: cs
    Full point group: Cs

    Geometry (in Angstrom), charge = 0, multiplicity = 1:

       Center              X                  Y                   Z               Mass       
    ------------   -----------------  -----------------  -----------------  -----------------
           O          0.498765585882    -0.087994685081     0.000000000000    15.994914619560
           H          0.498765585882    -1.057994685081     0.000000000000     1.007825032070
           F         -0.446373376960     0.130207837633     0.000000000000    18.998403224000

  Running in cs symmetry.

  Rotational constants: A =     20.68749  B =      1.92124  C =      1.75798 [cm^-1]
  Rotational constants: A = 620195.30933  B =  57597.44674  C =  52702.93313 [MHz]
  Nuclear repulsion =   46.780358486018564

  Charge       = 0
  Multiplicity = 1
  Electrons    = 18
  Nalpha       = 9
  Nbeta        = 9

  ==> Algorithm <==

  SCF Algorithm Type is PK.
  DIIS enabled.
  MOM disabled.
  Fractional occupation disabled.
  Guess Type is SAD.
  Energy threshold   = 1.00e-10
  Density threshold  = 1.00e-10
  Integral threshold = 0.00e+00

  ==> Primary Basis <==

  Basis Set: CC-PVDZ
    Blend: CC-PVDZ
    Number of shells: 15
    Number of basis function: 33
    Number of Cartesian functions: 35
    Spherical Harmonics?: true
    Max angular momentum: 2

  ==> Pre-Iterations <==

   -------------------------------------------------------
    Irrep   Nso     Nmo     Nalpha   Nbeta   Ndocc  Nsocc
   -------------------------------------------------------
     A'        24      24       0       0       0       0
     A"         9       9       0       0       0       0
   -------------------------------------------------------
    Total      33      33       9       9       9       0
   -------------------------------------------------------

  ==> Integral Setup <==

  Using in-core PK algorithm.
   Calculation information:
      Number of atoms:                   3
      Number of AO shells:              15
      Number of primitives:             49
      Number of atomic orbitals:        35
      Number of basis functions:        33

      Integral cutoff                 1.00e-12
      Number of threads:                 1

  Performing in-core PK
  Using 315282 doubles for integral storage.
  We computed 7260 shell quartets total.
  Whereas there are 7260 unique shell quartets.
  ==> DiskJK: Disk-Based J/K Matrices <==

    J tasked:                  Yes
    K tasked:                  Yes
    wK tasked:                  No
    Memory (MB):               375
    Schwarz Cutoff:          1E-12

    OpenMP threads:              1
  Minimum eigenvalue in the overlap matrix is 1.1480370680E-02.
  Using Symmetric Orthogonalization.

  SCF Guess: Superposition of Atomic Densities via on-the-fly atomic UHF.

  ==> Iterations <==

                        Total Energy        Delta E     RMS |[F,P]|

   @RHF iter   0:  -176.95001813401194   -1.76950e+02   1.78565e-01 
   @RHF iter   1:  -174.36974602757726    2.58027e+00   1.47997e-02 
   @RHF iter   2:  -174.41374761189820   -4.40016e-02   4.65847e-03 DIIS
   @RHF iter   3:  -174.41798045294277   -4.23284e-03   1.20236e-03 DIIS
   @RHF iter   4:  -174.41840508780970   -4.24635e-04   2.85193e-04 DIIS
   @RHF iter   5:  -174.41843255026640   -2.74625e-05   3.49520e-05 DIIS
   @RHF iter   6:  -174.41843314828560   -5.98019e-07   1.11197e-05 DIIS
   @RHF iter   7:  -174.41843318839449   -4.01089e-08   2.69125e-06 DIIS
   @RHF iter   8:  -174.41843319147063   -3.07614e-09   5.12162e-07 DIIS
   @RHF iter   9:  -174.41843319163047   -1.59844e-10   1.04984e-07 DIIS
   @RHF iter  10:  -174.41843319163891   -8.44125e-12   2.07599e-08 DIIS
   @RHF iter  11:  -174.41843319163934   -4.26326e-13   5.21292e-09 DIIS
   @RHF iter  12:  -174.41843319163931    2.84217e-14   9.20356e-10 DIIS
   @RHF iter  13:  -174.41843319163934   -2.84217e-14   1.01518e-10 DIIS
   @RHF iter  14:  -174.41843319163937   -2.84217e-14   1.55868e-11 DIIS

  ==> Post-Iterations <==

    Orbital Energies (a.u.)
    -----------------------

    Doubly Occupied:                                                      

       1Ap   -26.330356     2Ap   -20.627725     3Ap    -2.082395  
       4Ap    -1.191294     5Ap    -0.971697     1App   -0.924953  
       6Ap    -0.850984     7Ap    -0.460395     2App   -0.380150  

    Virtual:                                                              

       8Ap     0.192183     9Ap     0.648601    10Ap     0.823611  
       3App    1.119958    11Ap     1.143363    12Ap     1.228844  
      13Ap     1.367722    14Ap     1.461132     4App    1.471205  
       5App    1.535571    15Ap     1.667967    16Ap     1.769476  
      17Ap     2.310638    18Ap     2.700605     6App    2.776264  
      19Ap     3.034541     7App    3.108650    20Ap     3.654401  
      21Ap     3.975079     8App    4.008294    22Ap     4.151682  
       9App    4.827587    23Ap     4.882339    24Ap     5.266360  

    Final Occupation by Irrep:
             Ap   App 
    DOCC [     7,    2 ]

  Energy converged.

  @RHF Final Energy:  -174.41843319163937

   => Energetics <=

    Nuclear Repulsion Energy =             46.7803584860185637
    One-Electron Energy =                -334.7576859756829890
    Two-Electron Energy =                 113.5588942980250806
    Total Energy =                       -174.4184331916393660



Properties will be evaluated at   0.000000,   0.000000,   0.000000 Bohr

Properties computed using the SCF density matrix

  Nuclear Dipole Moment: (a.u.)
     X:     0.8911      Y:    -1.1151      Z:     0.0000

  Electronic Dipole Moment: (a.u.)
     X:    -1.0103      Y:     0.5113      Z:     0.0000

  Dipole Moment: (a.u.)
     X:    -0.1192      Y:    -0.6037      Z:     0.0000     Total:     0.6154

  Dipole Moment: (Debye)
     X:    -0.3030      Y:    -1.5346      Z:     0.0000     Total:     1.5642


*** tstop() called on nrlogin1 at Fri Jan 26 22:46:35 2018
Module time:
	user time   =       0.68 seconds =       0.01 minutes
	system time =       0.02 seconds =       0.00 minutes
	total time  =          1 seconds =       0.02 minutes
Total time:
	user time   =       0.68 seconds =       0.01 minutes
	system time =       0.02 seconds =       0.00 minutes
	total time  =          1 seconds =       0.02 minutes
 MINTS: Wrapper to libmints.
   by Justin Turney

   Calculation information:
      Number of threads:                 1
      Number of atoms:                   3
      Number of AO shells:              15
      Number of SO shells:              15
      Number of primitives:             49
      Number of atomic orbitals:        35
      Number of basis functions:        33

      Number of irreps:                  2
      Integral cutoff                 0.00e+00
      Number of functions per irrep: [  24    9 ]

 OEINTS: Overlap, kinetic, potential, dipole, and quadrupole integrals
         stored in file 35.

      Computing two-electron integrals...done
      Computed 79663 non-zero two-electron integrals.
        Stored in file 33.


*** tstart() called on nrlogin1
*** at Fri Jan 26 22:46:36 2018


	Wfn Parameters:
	--------------------
	Wavefunction         = CC2
	Number of irreps     = 2
	Number of MOs        = 33
	Number of active MOs = 33
	AO-Basis             = NONE
	Semicanonical        = false
	Reference            = RHF
	Print Level          = 1

	IRREP	# MOs	# FZDC	# DOCC	# SOCC	# VIRT	# FZVR
	-----	-----	------	------	------	------	------
	 Ap	   24	    0	    7	    0	    17	    0
	 App	   9	    0	    2	    0	    7	    0
	Transforming integrals...
	IWL integrals will be deleted.
	(OO|OO)...
	Presorting SO-basis two-electron integrals.
	Sorting File: SO Ints (nn|nn) nbuckets = 1
	Transforming the one-electron integrals and constructing Fock matrices
	Starting first half-transformation.
	Sorting half-transformed integrals.
	First half integral transformation complete.
	Starting second half-transformation.
	Two-electron integral transformation complete.
	(OO|OV)...
	Starting second half-transformation.
	Two-electron integral transformation complete.
	(OO|VV)...
	Starting second half-transformation.
	Two-electron integral transformation complete.
	(OV|OO)...
	Starting first half-transformation.
	Sorting half-transformed integrals.
	First half integral transformation complete.
	Starting second half-transformation.
	Two-electron integral transformation complete.
	(OV|OV)...
	Starting second half-transformation.
	Two-electron integral transformation complete.
	(OV|VV)...
	Starting second half-transformation.
	Two-electron integral transformation complete.
	(VV|OO)...
	Starting first half-transformation.
	Sorting half-transformed integrals.
	First half integral transformation complete.
	Starting second half-transformation.
	Two-electron integral transformation complete.
	(VV|OV)...
	Starting second half-transformation.
	Two-electron integral transformation complete.
	(VV|VV)...
	Starting second half-transformation.
	Two-electron integral transformation complete.
	Frozen core energy     =      0.00000000000000

	Size of irrep 0 of <ab|cd> integrals:      0.114 (MW) /      0.914 (MB)
	Size of irrep 1 of <ab|cd> integrals:      0.057 (MW) /      0.453 (MB)
	Total:                                     0.171 (MW) /      1.367 (MB)

	Size of irrep 0 of <ia|bc> integrals:      0.045 (MW) /      0.360 (MB)
	Size of irrep 1 of <ia|bc> integrals:      0.020 (MW) /      0.158 (MB)
	Total:                                     0.065 (MW) /      0.518 (MB)

	Size of irrep 0 of tijab amplitudes:       0.018 (MW) /      0.143 (MB)
	Size of irrep 1 of tijab amplitudes:       0.007 (MW) /      0.053 (MB)
	Total:                                     0.025 (MW) /      0.197 (MB)

	Nuclear Rep. energy          =     46.78035848601856
	SCF energy                   =   -174.41843319163937
	One-electron energy          =   -334.75768597550905
	Two-electron energy          =    113.55889429785128
	Reference energy             =   -174.41843319163920

*** tstop() called on nrlogin1 at Fri Jan 26 22:46:36 2018
Module time:
	user time   =       0.11 seconds =       0.00 minutes
	system time =       0.04 seconds =       0.00 minutes
	total time  =          0 seconds =       0.00 minutes
Total time:
	user time   =       1.01 seconds =       0.02 minutes
	system time =       0.06 seconds =       0.00 minutes
	total time  =          2 seconds =       0.03 minutes

*** tstart() called on nrlogin1
*** at Fri Jan 26 22:46:36 2018

            **************************
            *                        *
            *        CCENERGY        *
            *                        *
            **************************

    Nuclear Rep. energy (wfn)     =   46.780358486018564
    SCF energy          (wfn)     = -174.418433191639366
    Reference energy    (file100) = -174.418433191639195

    Input parameters:
    -----------------
    Wave function   =     CC2
    Reference wfn   =     RHF
    Brueckner       =     No
    Memory (Mbytes) =     524.3
    Maxiter         =     50
    R_Convergence   =     1.0e-07
    E_Convergence   =     1.0e-08
    Restart         =     Yes
    DIIS            =     Yes
    AO Basis        =     NONE
    ABCD            =     NEW
    Cache Level     =     2
    Cache Type      =     LOW
    Print Level     =     1
    Num. of threads =     1
    # Amps to Print =     10
    Print MP2 Amps? =     No
    Analyze T2 Amps =     No
    Print Pair Ener =     No
    Local CC        =     No
    SCS-MP2         =     False
    SCSN-MP2        =     False
    SCS-CCSD        =     False

MP2 correlation energy -0.3566362484104744
                Solving CC Amplitude Equations
                ------------------------------
  Iter             Energy              RMS        T1Diag      D1Diag    New D1Diag    D2Diag
  ----     ---------------------    ---------   ----------  ----------  ----------   --------
     0        -0.356636248410474    0.000e+00    0.000000    0.000000    0.000000    0.109615
     1        -0.356563800704931    1.814e-02    0.004275    0.011894    0.011894    0.109615
     2        -0.357908445074345    4.538e-03    0.004855    0.013947    0.013947    0.110755
     3        -0.358105639619603    2.649e-03    0.005471    0.016723    0.016723    0.111000
     4        -0.358083336230055    1.020e-03    0.005718    0.018168    0.018168    0.111065
     5        -0.358082694522487    4.248e-04    0.005833    0.018902    0.018902    0.111088
     6        -0.358084027902268    6.450e-05    0.005837    0.018941    0.018941    0.111090
     7        -0.358084024410248    1.720e-05    0.005838    0.018948    0.018948    0.111091
     8        -0.358084006296878    4.378e-06    0.005838    0.018944    0.018944    0.111092
     9        -0.358083999080151    1.096e-06    0.005838    0.018945    0.018945    0.111092
    10        -0.358083997964270    2.215e-07    0.005838    0.018944    0.018944    0.111092
    11        -0.358084000456632    5.827e-08    0.005838    0.018944    0.018944    0.111092

    Iterations converged.


    Largest TIA Amplitudes:
              6   0         0.0155237583
              5   0        -0.0060930425
              7  17        -0.0058282760
              6   2        -0.0058186638
              8  17        -0.0047941812
              6   9         0.0047203698
              3   1         0.0041618307
              7  18         0.0040716182
              4   9        -0.0040084257
              6   1        -0.0039274627

    Largest TIjAb Amplitudes:
      8   8  17  17        -0.0309775827
      6   6   2   2        -0.0284448774
      8   8  18  18        -0.0206998062
      7   7  18  18        -0.0200891520
      7   8  17  17        -0.0186945255
      8   7  17  17        -0.0186945255
      6   6   0   0        -0.0184867584
      7   8  18  18         0.0177215753
      8   7  18  18         0.0177215753
      4   4   6   6        -0.0167721245

    SCF energy       (wfn)                    = -174.418433191639366
    Reference energy (file100)                = -174.418433191639195

    Opposite-spin MP2 correlation energy      =   -0.260477911109696
    Same-spin MP2 correlation energy          =   -0.096158337300778
    MP2 correlation energy                    =   -0.356636248410474
      * MP2 total energy                      = -174.775069440049663
    CC2 correlation energy                    =   -0.358084000456632
      * CC2 total energy                      = -174.776517192095838


*** tstop() called on nrlogin1 at Fri Jan 26 22:46:40 2018
Module time:
	user time   =       0.41 seconds =       0.01 minutes
	system time =       0.16 seconds =       0.00 minutes
	total time  =          4 seconds =       0.07 minutes
Total time:
	user time   =       1.42 seconds =       0.02 minutes
	system time =       0.22 seconds =       0.00 minutes
	total time  =          6 seconds =       0.10 minutes

*** tstart() called on nrlogin1
*** at Fri Jan 26 22:46:40 2018


			**************************
			*                        *
			*         CCHBAR         *
			*                        *
			**************************


*** tstop() called on nrlogin1 at Fri Jan 26 22:46:40 2018
Module time:
	user time   =       0.03 seconds =       0.00 minutes
	system time =       0.03 seconds =       0.00 minutes
	total time  =          0 seconds =       0.00 minutes
Total time:
	user time   =       1.45 seconds =       0.02 minutes
	system time =       0.25 seconds =       0.00 minutes
	total time  =          6 seconds =       0.10 minutes

*** tstart() called on nrlogin1
*** at Fri Jan 26 22:46:40 2018


			**************************
			*        CCLAMBDA        *
			**************************


	Nuclear Rep. energy (wfn)     =   46.780358486018564
	Reference           (wfn)     =                    0
	SCF energy          (wfn)     = -174.418433191639366
	Reference energy    (CC_INFO) = -174.418433191639195
	CC2 energy          (CC_INFO) =   -0.358084000456632
	Total CC2 energy    (CC_INFO) = -174.776517192095838

	Input parameters:
	-----------------
	Maxiter           =     50
	Convergence       = 1.0e-07
	Restart           =     No
	Cache Level       =     2
	Model III         =     No
	DIIS              =     Yes
	AO Basis          =     No
	ABCD              =     NEW
	Local CC          =     No
	Paramaters for left-handed eigenvectors:
	    Irr   Root  Ground-State?    EOM energy        R0
	  1   0     0        Yes       0.0000000000   1.0000000000
	Labels for eigenvector 1:
	LIA 0 -1, Lia 0 -1, LIJAB 0 -1, Lijab 0 -1, LIjAb 0 -1, 2LIjAb - LIjbA 0 -1
	Deleting old CC_LAMBDA data.
	Symmetry of left-hand state: Ap
	Symmetry of left-hand eigenvector: Ap

	          Solving Lambda Equations
	          ------------------------
	Iter     PseudoEnergy or Norm         RMS  
	----     ---------------------     --------
	   0        -0.358163771374666    0.000e+00
	   1        -0.358109760061956    5.948e-03
	   2        -0.357964647904130    8.374e-04
	   3        -0.357946760742561    5.893e-04
	   4        -0.357944455221283    2.526e-04
	   5        -0.357944756039315    8.987e-05
	   6        -0.357944319796704    1.995e-05
	   7        -0.357944217556679    3.708e-06
	   8        -0.357944210319279    8.806e-07
	   9        -0.357944215017866    2.164e-07
	  10        -0.357944215987243    7.381e-08

	Largest LIA Amplitudes:
	          6   0         0.0126078799
	          5   0        -0.0052208612
	          7  17        -0.0051024714
	          6   9         0.0050287298
	          4   2        -0.0044232986
	          4   9        -0.0042061555
	          8  17        -0.0041847803
	          6   2        -0.0040979146
	          3   1         0.0037476747
	          6   1        -0.0031129506

	Largest LIjAb Amplitudes:
	  8   8  17  17        -0.0309537191
	  6   6   2   2        -0.0282735636
	  8   8  18  18        -0.0206652693
	  7   7  18  18        -0.0200413461
	  7   8  17  17        -0.0186782376
	  8   7  17  17        -0.0186782376
	  6   6   0   0        -0.0182203119
	  7   8  18  18         0.0176903716
	  8   7  18  18         0.0176903716
	  4   4   6   6        -0.0167575206

	Iterations converged.

	Overlap <L|e^T> =        0.92825717827

*** tstop() called on nrlogin1 at Fri Jan 26 22:46:40 2018
Module time:
	user time   =       0.12 seconds =       0.00 minutes
	system time =       0.03 seconds =       0.00 minutes
	total time  =          0 seconds =       0.00 minutes
Total time:
	user time   =       1.57 seconds =       0.03 minutes
	system time =       0.28 seconds =       0.00 minutes
	total time  =          6 seconds =       0.10 minutes

*** tstart() called on nrlogin1
*** at Fri Jan 26 22:46:40 2018

			**************************
			*                        *
			*       ccresponse       *
			*                        *
			**************************

	Input parameters:
	-----------------
	Property         =    POLARIZABILITY
	Reference wfn    =    RHF
	Memory (Mbytes)  =    524.3
	Cache Level      =    0
	Print Level      =    1
	Maxiter          =    50
	Convergence      =    1.0e-07
	Restart          =    Allowed
	DIIS             =    Yes
	Model III        =    No
	Linear Model     =    No
	ABCD             =    NEW
	Irrep X          =    Ap
	Irrep Y          =    Ap
	Irrep Z          =    App
	Irrep RX         =    App
	Irrep RY         =    App
	Irrep RZ         =    Ap
	Gauge            =    LENGTH
	Applied field  0 =  0.000
	Analyze X2 Amps  =    No
	Local CC         =    No


	Computing Mu_X-Perturbed Wave Function (0.000 E_h).
	Iter   Pseudopolarizability       RMS 
	----   --------------------   -----------
	   0         3.677408979646
	   1         4.426377435930    1.991e-01
	   2         4.907315549014    9.844e-02
	   3         4.954086839631    2.716e-02
	   4         4.962096893099    1.668e-02
	   5         4.964422448876    3.058e-03
	   6         4.964369388518    1.310e-03
	   7         4.964292281918    1.899e-04
	   8         4.964311195792    6.011e-05
	   9         4.964309378017    9.685e-06
	  10         4.964310522727    2.468e-06
	  11         4.964310724892    3.677e-07
	  12         4.964310837754    1.084e-07
	-----------------------------------------
	Converged Mu_X-Perturbed Wfn to 3.156e-08

	Computing Mu_Y-Perturbed Wave Function (0.000 E_h).
	Iter   Pseudopolarizability       RMS 
	----   --------------------   -----------
	   0         5.198806488739
	   1         6.461675147179    3.901e-01
	   2         7.825099695499    2.523e-01
	   3         8.027960079845    6.744e-02
	   4         8.081321411425    3.142e-02
	   5         8.085012088398    3.129e-03
	   6         8.085968645531    1.134e-03
	   7         8.085820669900    1.255e-04
	   8         8.085847375270    3.995e-05
	   9         8.085844619356    7.495e-06
	  10         8.085846317342    1.878e-06
	  11         8.085846306411    5.010e-07
	  12         8.085846370749    1.244e-07
	-----------------------------------------
	Converged Mu_Y-Perturbed Wfn to 3.650e-08

	Computing Mu_Z-Perturbed Wave Function (0.000 E_h).
	Iter   Pseudopolarizability       RMS 
	----   --------------------   -----------
	   0         2.479889940783
	   1         2.892986901051    1.719e-01
	   2         3.179551235264    1.097e-01
	   3         3.227327083456    5.000e-02
	   4         3.254438426142    2.873e-02
	   5         3.255064288516    4.754e-03
	   6         3.256671395840    2.117e-03
	   7         3.256666800145    2.505e-04
	   8         3.256680240263    7.992e-05
	   9         3.256683732302    1.616e-05
	  10         3.256684382646    6.243e-06
	  11         3.256685049708    1.406e-06
	  12         3.256685458450    3.646e-07
	  13         3.256685582609    1.195e-07
	-----------------------------------------
	Converged Mu_Z-Perturbed Wfn to 3.126e-08

	Computing <<Mu;Mu>_(0.000) tensor.

                 CC2 Dipole Polarizability (Length Gauge) [(e^2 a0^2)/E_h]:
  -------------------------------------------------------------------------
   Evaluated at omega = 0.000000 E_h (Inf nm, 0.000 eV,     0.00 cm-1)
  -------------------------------------------------------------------------

                   0                     1                     2        

    0      4.827201918774967    -1.312098238117489     0.000000000000000
    1     -1.312098238117489     7.705535217891512     0.000000000000000
    2      0.000000000000000     0.000000000000000     3.190144053260425

	alpha_(0.000) =       5.240960396642 a.u.

*** tstop() called on nrlogin1 at Fri Jan 26 22:46:42 2018
Module time:
	user time   =       0.49 seconds =       0.01 minutes
	system time =       0.21 seconds =       0.00 minutes
	total time  =          2 seconds =       0.03 minutes
Total time:
	user time   =       2.06 seconds =       0.03 minutes
	system time =       0.49 seconds =       0.01 minutes
	total time  =          8 seconds =       0.13 minutes
	CC2 polarizability @ Inf nm.......................................PASSED

*** Psi4 exiting successfully. Buy a developer a beer!
