
    -----------------------------------------------------------------------
          Psi4: An Open-Source Ab Initio Electronic Structure Package
                               Psi4 1.1rc3.dev5 

                         Git: Rev {master} 3fbd859 


    R. M. Parrish, L. A. Burns, D. G. A. Smith, A. C. Simmonett,
    A. E. DePrince III, E. G. Hohenstein, U. Bozkaya, A. Yu. Sokolov,
    R. Di Remigio, R. M. Richard, J. F. Gonthier, A. M. James,
    H. R. McAlexander, A. Kumar, M. Saitow, X. Wang, B. P. Pritchard,
    P. Verma, H. F. Schaefer III, K. Patkowski, R. A. King, E. F. Valeev,
    F. A. Evangelista, J. M. Turney, T. D. Crawford, and C. D. Sherrill,
    J. Chem. Theory Comput. in press (2017).
    (doi: 10.1021/acs.jctc.7b00174)

    -----------------------------------------------------------------------


    Psi4 started on: Monday, 15 May 2017 03:34PM

    Process ID:  12804
    PSIDATADIR: /home/psilocaluser/gits/hrw-direct/objdir4/stage/usr/local/psi4/share/psi4
    Memory:     500.0 MiB
    Threads:    1
    
  ==> Input File <==

--------------------------------------------------------------------------
#! RHF-CC2-LR/cc-pVDZ static polarizabilities of HOF molecule.

molecule hof {
  0 1
  O
  H 1 0.97
  F 1 0.97 2 103.0
}

set {
  basis "cc-pVDZ"
}

property('cc2',properties=['polarizability'])
--------------------------------------------------------------------------

*** tstart() called on psinet
*** at Mon May 15 15:34:38 2017

   => Loading Basis Set <=

    Name: CC-PVDZ
    Role: ORBITAL
    Keyword: BASIS
    atoms 1 entry O          line   190 file /home/psilocaluser/gits/hrw-direct/objdir4/stage/usr/local/psi4/share/psi4/basis/cc-pvdz.gbs 
    atoms 2 entry H          line    20 file /home/psilocaluser/gits/hrw-direct/objdir4/stage/usr/local/psi4/share/psi4/basis/cc-pvdz.gbs 
    atoms 3 entry F          line   220 file /home/psilocaluser/gits/hrw-direct/objdir4/stage/usr/local/psi4/share/psi4/basis/cc-pvdz.gbs 


         ---------------------------------------------------------
                                   SCF
            by Justin Turney, Rob Parrish, and Andy Simmonett
                              RHF Reference
                        1 Threads,    500 MiB Core
         ---------------------------------------------------------

  ==> Geometry <==

    Molecular point group: cs
    Full point group: Cs

    Geometry (in Angstrom), charge = 0, multiplicity = 1:

       Center              X                  Y                   Z               Mass       
    ------------   -----------------  -----------------  -----------------  -----------------
           O          0.498765585882    -0.087994685081     0.000000000000    15.994914619560
           H          0.498765585882    -1.057994685081     0.000000000000     1.007825032070
           F         -0.446373376960     0.130207837633     0.000000000000    18.998403224000

  Running in cs symmetry.

  Rotational constants: A =     20.68749  B =      1.92124  C =      1.75798 [cm^-1]
  Rotational constants: A = 620195.30933  B =  57597.44674  C =  52702.93313 [MHz]
  Nuclear repulsion =   46.780358486018564

  Charge       = 0
  Multiplicity = 1
  Electrons    = 18
  Nalpha       = 9
  Nbeta        = 9

  ==> Algorithm <==

  SCF Algorithm Type is PK.
  DIIS enabled.
  MOM disabled.
  Fractional occupation disabled.
  Guess Type is SAD.
  Energy threshold   = 1.00e-10
  Density threshold  = 1.00e-10
  Integral threshold = 0.00e+00

  ==> Primary Basis <==

  Basis Set: CC-PVDZ
    Blend: CC-PVDZ
    Number of shells: 15
    Number of basis function: 33
    Number of Cartesian functions: 35
    Spherical Harmonics?: true
    Max angular momentum: 2

  ==> Pre-Iterations <==

   -------------------------------------------------------
    Irrep   Nso     Nmo     Nalpha   Nbeta   Ndocc  Nsocc
   -------------------------------------------------------
     A'        24      24       0       0       0       0
     A"         9       9       0       0       0       0
   -------------------------------------------------------
    Total      33      33       9       9       9       0
   -------------------------------------------------------

  ==> Integral Setup <==

  Using in-core PK algorithm.
   Calculation information:
      Number of atoms:                   3
      Number of AO shells:              15
      Number of primitives:             49
      Number of atomic orbitals:        35
      Number of basis functions:        33

      Integral cutoff                 1.00e-12
      Number of threads:                 1

  Performing in-core PK
  Using 315282 doubles for integral storage.
  We computed 7260 shell quartets total.
  Whereas there are 7260 unique shell quartets.
  ==> DiskJK: Disk-Based J/K Matrices <==

    J tasked:                  Yes
    K tasked:                  Yes
    wK tasked:                  No
    Memory (MB):               375
    Schwarz Cutoff:          1E-12

    OpenMP threads:              1
  Minimum eigenvalue in the overlap matrix is 1.1480370680E-02.
  Using Symmetric Orthogonalization.

  SCF Guess: Superposition of Atomic Densities via on-the-fly atomic UHF.

  ==> Iterations <==

                        Total Energy        Delta E     RMS |[F,P]|

   @RHF iter   0:  -176.20369536169272   -1.76204e+02   1.37970e-01 
   @RHF iter   1:  -174.36330327122280    1.84039e+00   1.36048e-02 
   @RHF iter   2:  -174.41411260527570   -5.08093e-02   3.62100e-03 DIIS
   @RHF iter   3:  -174.41767574161344   -3.56314e-03   1.21364e-03 DIIS
   @RHF iter   4:  -174.41831654931912   -6.40808e-04   4.56902e-04 DIIS
   @RHF iter   5:  -174.41842265007631   -1.06101e-04   9.40604e-05 DIIS
   @RHF iter   6:  -174.41843266859053   -1.00185e-05   2.11829e-05 DIIS
   @RHF iter   7:  -174.41843317553395   -5.06943e-07   4.36037e-06 DIIS
   @RHF iter   8:  -174.41843319125030   -1.57164e-08   9.91439e-07 DIIS
   @RHF iter   9:  -174.41843319160674   -3.56437e-10   2.89429e-07 DIIS
   @RHF iter  10:  -174.41843319163883   -3.20881e-11   4.61659e-08 DIIS
   @RHF iter  11:  -174.41843319163979   -9.66338e-13   7.60876e-09 DIIS
   @RHF iter  12:  -174.41843319163991   -1.13687e-13   1.40384e-09 DIIS
   @RHF iter  13:  -174.41843319163976    1.42109e-13   1.68192e-10 DIIS
   @RHF iter  14:  -174.41843319163985   -8.52651e-14   2.87407e-11 DIIS

  ==> Post-Iterations <==

    Orbital Energies (a.u.)
    -----------------------

    Doubly Occupied:                                                      

       1Ap   -26.330356     2Ap   -20.627725     3Ap    -2.082395  
       4Ap    -1.191294     5Ap    -0.971697     1App   -0.924953  
       6Ap    -0.850984     7Ap    -0.460395     2App   -0.380150  

    Virtual:                                                              

       8Ap     0.192183     9Ap     0.648601    10Ap     0.823611  
       3App    1.119958    11Ap     1.143363    12Ap     1.228844  
      13Ap     1.367722    14Ap     1.461132     4App    1.471205  
       5App    1.535571    15Ap     1.667967    16Ap     1.769476  
      17Ap     2.310638    18Ap     2.700605     6App    2.776264  
      19Ap     3.034541     7App    3.108650    20Ap     3.654401  
      21Ap     3.975079     8App    4.008294    22Ap     4.151682  
       9App    4.827587    23Ap     4.882339    24Ap     5.266360  

    Final Occupation by Irrep:
             Ap   App 
    DOCC [     7,    2 ]

  Energy converged.

  @RHF Final Energy:  -174.41843319163985

   => Energetics <=

    Nuclear Repulsion Energy =             46.7803584860185637
    One-Electron Energy =                -334.7576859773432147
    Two-Electron Energy =                 113.5588942996848232
    DFT Exchange-Correlation Energy =       0.0000000000000000
    Empirical Dispersion Energy =           0.0000000000000000
    PCM Polarization Energy =               0.0000000000000000
    EFP Energy =                            0.0000000000000000
    Total Energy =                       -174.4184331916398492



Properties will be evaluated at   0.000000,   0.000000,   0.000000 Bohr

Properties computed using the SCF density matrix

  Nuclear Dipole Moment: (a.u.)
     X:     0.8911      Y:    -1.1151      Z:     0.0000

  Electronic Dipole Moment: (a.u.)
     X:    -1.0103      Y:     0.5113      Z:     0.0000

  Dipole Moment: (a.u.)
     X:    -0.1192      Y:    -0.6037      Z:     0.0000     Total:     0.6154

  Dipole Moment: (Debye)
     X:    -0.3030      Y:    -1.5346      Z:     0.0000     Total:     1.5642


*** tstop() called on psinet at Mon May 15 15:34:39 2017
Module time:
	user time   =       0.54 seconds =       0.01 minutes
	system time =       0.01 seconds =       0.00 minutes
	total time  =          1 seconds =       0.02 minutes
Total time:
	user time   =       0.54 seconds =       0.01 minutes
	system time =       0.01 seconds =       0.00 minutes
	total time  =          1 seconds =       0.02 minutes
 MINTS: Wrapper to libmints.
   by Justin Turney

   Calculation information:
      Number of threads:                 1
      Number of atoms:                   3
      Number of AO shells:              15
      Number of SO shells:              15
      Number of primitives:             49
      Number of atomic orbitals:        35
      Number of basis functions:        33

      Number of irreps:                  2
      Integral cutoff                 0.00e+00
      Number of functions per irrep: [  24    9 ]

 OEINTS: Overlap, kinetic, potential, dipole, and quadrupole integrals
         stored in file 35.

      Computing two-electron integrals...done
      Computed 79788 non-zero two-electron integrals.
        Stored in file 33.


*** tstart() called on psinet
*** at Mon May 15 15:34:39 2017


	Wfn Parameters:
	--------------------
	Wavefunction         = CC2
	Number of irreps     = 2
	Number of MOs        = 33
	Number of active MOs = 33
	AO-Basis             = NONE
	Semicanonical        = false
	Reference            = RHF
	Print Level          = 1

	IRREP	# MOs	# FZDC	# DOCC	# SOCC	# VIRT	# FZVR
	-----	-----	------	------	------	------	------
	 Ap	   24	    0	    7	    0	    17	    0
	 App	   9	    0	    2	    0	    7	    0
	Transforming integrals...
	IWL integrals will be deleted.
	(OO|OO)...
	Presorting SO-basis two-electron integrals.
	Sorting File: SO Ints (nn|nn) nbuckets = 1
	Transforming the one-electron integrals and constructing Fock matrices
	Starting first half-transformation.
	Sorting half-transformed integrals.
	First half integral transformation complete.
	Starting second half-transformation.
	Two-electron integral transformation complete.
	(OO|OV)...
	Starting second half-transformation.
	Two-electron integral transformation complete.
	(OO|VV)...
	Starting second half-transformation.
	Two-electron integral transformation complete.
	(OV|OO)...
	Starting first half-transformation.
	Sorting half-transformed integrals.
	First half integral transformation complete.
	Starting second half-transformation.
	Two-electron integral transformation complete.
	(OV|OV)...
	Starting second half-transformation.
	Two-electron integral transformation complete.
	(OV|VV)...
	Starting second half-transformation.
	Two-electron integral transformation complete.
	(VV|OO)...
	Starting first half-transformation.
	Sorting half-transformed integrals.
	First half integral transformation complete.
	Starting second half-transformation.
	Two-electron integral transformation complete.
	(VV|OV)...
	Starting second half-transformation.
	Two-electron integral transformation complete.
	(VV|VV)...
	Starting second half-transformation.
	Two-electron integral transformation complete.
	Frozen core energy     =      0.00000000000000

	Size of irrep 0 of <ab|cd> integrals:      0.114 (MW) /      0.914 (MB)
	Size of irrep 1 of <ab|cd> integrals:      0.057 (MW) /      0.453 (MB)
	Total:                                     0.171 (MW) /      1.367 (MB)

	Size of irrep 0 of <ia|bc> integrals:      0.045 (MW) /      0.360 (MB)
	Size of irrep 1 of <ia|bc> integrals:      0.020 (MW) /      0.158 (MB)
	Total:                                     0.065 (MW) /      0.518 (MB)

	Size of irrep 0 of tijab amplitudes:       0.018 (MW) /      0.143 (MB)
	Size of irrep 1 of tijab amplitudes:       0.007 (MW) /      0.053 (MB)
	Total:                                     0.025 (MW) /      0.197 (MB)

	Nuclear Rep. energy          =     46.78035848601856
	SCF energy                   =   -174.41843319163985
	One-electron energy          =   -334.75768597477634
	Two-electron energy          =    113.55889429711797
	Reference energy             =   -174.41843319163979

*** tstop() called on psinet at Mon May 15 15:34:39 2017
Module time:
	user time   =       0.05 seconds =       0.00 minutes
	system time =       0.05 seconds =       0.00 minutes
	total time  =          0 seconds =       0.00 minutes
Total time:
	user time   =       0.70 seconds =       0.01 minutes
	system time =       0.07 seconds =       0.00 minutes
	total time  =          1 seconds =       0.02 minutes

*** tstart() called on psinet
*** at Mon May 15 15:34:39 2017

            **************************
            *                        *
            *        CCENERGY        *
            *                        *
            **************************

    Nuclear Rep. energy (wfn)     =   46.780358486018564
    SCF energy          (wfn)     = -174.418433191639849
    Reference energy    (file100) = -174.418433191639792

    Input parameters:
    -----------------
    Wave function   =     CC2
    Reference wfn   =     RHF
    Brueckner       =     No
    Memory (Mbytes) =     524.3
    Maxiter         =     50
    R_Convergence   =     1.0e-07
    E_Convergence   =     1.0e-08
    Restart         =     Yes
    DIIS            =     Yes
    AO Basis        =     NONE
    ABCD            =     NEW
    Cache Level     =     2
    Cache Type      =     LOW
    Print Level     =     1
    Num. of threads =     1
    # Amps to Print =     10
    Print MP2 Amps? =     No
    Analyze T2 Amps =     No
    Print Pair Ener =     No
    Local CC        =     No
    SCS-MP2         =     False
    SCSN-MP2        =     False
    SCS-CCSD        =     False

MP2 correlation energy -0.3566362484103599
                Solving CC Amplitude Equations
                ------------------------------
  Iter             Energy              RMS        T1Diag      D1Diag    New D1Diag    D2Diag
  ----     ---------------------    ---------   ----------  ----------  ----------   --------
     0        -0.356636248410360    0.000e+00    0.000000    0.000000    0.000000    0.109615
     1        -0.356563800706681    1.814e-02    0.004275    0.011894    0.011894    0.109615
     2        -0.357908445078587    4.538e-03    0.004855    0.013947    0.013947    0.110755
     3        -0.358105639625115    2.649e-03    0.005471    0.016723    0.016723    0.111000
     4        -0.358083336235103    1.020e-03    0.005718    0.018168    0.018168    0.111065
     5        -0.358082694527539    4.248e-04    0.005833    0.018902    0.018902    0.111088
     6        -0.358084027907309    6.450e-05    0.005837    0.018941    0.018941    0.111090
     7        -0.358084024415283    1.720e-05    0.005838    0.018948    0.018948    0.111091
     8        -0.358084006301912    4.378e-06    0.005838    0.018944    0.018944    0.111092
     9        -0.358083999085184    1.096e-06    0.005838    0.018945    0.018945    0.111092
    10        -0.358083997969303    2.215e-07    0.005838    0.018944    0.018944    0.111092
    11        -0.358084000461666    5.827e-08    0.005838    0.018944    0.018944    0.111092

    Iterations converged.


    Largest TIA Amplitudes:
              6   0         0.0155237585
              5   0        -0.0060930423
              7  17        -0.0058282760
              6   2        -0.0058186639
              8  17        -0.0047941812
              6   9         0.0047203698
              3   1         0.0041618307
              7  18         0.0040716182
              4   9        -0.0040084257
              6   1        -0.0039274627

    Largest TIjAb Amplitudes:
      8   8  17  17        -0.0309775827
      6   6   2   2        -0.0284448774
      8   8  18  18        -0.0206998062
      7   7  18  18        -0.0200891520
      7   8  17  17        -0.0186945255
      8   7  17  17        -0.0186945255
      6   6   0   0        -0.0184867584
      7   8  18  18         0.0177215753
      8   7  18  18         0.0177215753
      4   4   6   6        -0.0167721245

    SCF energy       (wfn)                    = -174.418433191639849
    Reference energy (file100)                = -174.418433191639792

    Opposite-spin MP2 correlation energy      =   -0.260477911109896
    Same-spin MP2 correlation energy          =   -0.096158337300464
    MP2 correlation energy                    =   -0.356636248410360
      * MP2 total energy                      = -174.775069440050146
    CC2 correlation energy                    =   -0.358084000461666
      * CC2 total energy                      = -174.776517192101466


*** tstop() called on psinet at Mon May 15 15:34:39 2017
Module time:
	user time   =       0.16 seconds =       0.00 minutes
	system time =       0.21 seconds =       0.00 minutes
	total time  =          0 seconds =       0.00 minutes
Total time:
	user time   =       0.86 seconds =       0.01 minutes
	system time =       0.28 seconds =       0.00 minutes
	total time  =          1 seconds =       0.02 minutes

*** tstart() called on psinet
*** at Mon May 15 15:34:39 2017


			**************************
			*                        *
			*         CCHBAR         *
			*                        *
			**************************


*** tstop() called on psinet at Mon May 15 15:34:39 2017
Module time:
	user time   =       0.02 seconds =       0.00 minutes
	system time =       0.02 seconds =       0.00 minutes
	total time  =          0 seconds =       0.00 minutes
Total time:
	user time   =       0.88 seconds =       0.01 minutes
	system time =       0.30 seconds =       0.01 minutes
	total time  =          1 seconds =       0.02 minutes

*** tstart() called on psinet
*** at Mon May 15 15:34:39 2017


			**************************
			*        CCLAMBDA        *
			**************************


	Nuclear Rep. energy (wfn)     =   46.780358486018564
	Reference           (wfn)     =                    0
	SCF energy          (wfn)     = -174.418433191639849
	Reference energy    (CC_INFO) = -174.418433191639792
	CC2 energy          (CC_INFO) =   -0.358084000461666
	Total CC2 energy    (CC_INFO) = -174.776517192101466

	Input parameters:
	-----------------
	Maxiter           =     50
	Convergence       = 1.0e-07
	Restart           =     No
	Cache Level       =     2
	Model III         =     No
	DIIS              =     Yes
	AO Basis          =     No
	ABCD              =     NEW
	Local CC          =     No
	Paramaters for left-handed eigenvectors:
	    Irr   Root  Ground-State?    EOM energy        R0
	  1   0     0        Yes       0.0000000000   1.0000000000
	Labels for eigenvector 1:
	LIA 0 -1, Lia 0 -1, LIJAB 0 -1, Lijab 0 -1, LIjAb 0 -1, 2LIjAb - LIjbA 0 -1
	Deleting old CC_LAMBDA data.
	Symmetry of left-hand state: Ap
	Symmetry of left-hand eigenvector: Ap

	          Solving Lambda Equations
	          ------------------------
	Iter     PseudoEnergy or Norm         RMS  
	----     ---------------------     --------
	   0        -0.358163771377472    0.000e+00
	   1        -0.358109760063809    5.948e-03
	   2        -0.357964647905799    8.374e-04
	   3        -0.357946760744217    5.893e-04
	   4        -0.357944455222972    2.526e-04
	   5        -0.357944756041011    8.987e-05
	   6        -0.357944319798399    1.995e-05
	   7        -0.357944217558373    3.708e-06
	   8        -0.357944210320975    8.806e-07
	   9        -0.357944215019560    2.164e-07
	  10        -0.357944215988939    7.381e-08

	Largest LIA Amplitudes:
	          6   0         0.0126078801
	          5   0        -0.0052208610
	          7  17        -0.0051024714
	          6   9         0.0050287297
	          4   2        -0.0044232986
	          4   9        -0.0042061555
	          8  17        -0.0041847803
	          6   2        -0.0040979147
	          3   1         0.0037476747
	          6   1        -0.0031129506

	Largest LIjAb Amplitudes:
	  8   8  17  17        -0.0309537191
	  6   6   2   2        -0.0282735636
	  8   8  18  18        -0.0206652693
	  7   7  18  18        -0.0200413461
	  7   8  17  17        -0.0186782376
	  8   7  17  17        -0.0186782376
	  6   6   0   0        -0.0182203119
	  7   8  18  18         0.0176903716
	  8   7  18  18         0.0176903716
	  4   4   6   6        -0.0167575206

	Iterations converged.

	Overlap <L|e^T> =        0.92825717826

*** tstop() called on psinet at Mon May 15 15:34:39 2017
Module time:
	user time   =       0.05 seconds =       0.00 minutes
	system time =       0.05 seconds =       0.00 minutes
	total time  =          0 seconds =       0.00 minutes
Total time:
	user time   =       0.93 seconds =       0.02 minutes
	system time =       0.35 seconds =       0.01 minutes
	total time  =          1 seconds =       0.02 minutes

*** tstart() called on psinet
*** at Mon May 15 15:34:39 2017

			**************************
			*                        *
			*       ccresponse       *
			*                        *
			**************************

	Input parameters:
	-----------------
	Property         =    POLARIZABILITY
	Reference wfn    =    RHF
	Memory (Mbytes)  =    524.3
	Cache Level      =    0
	Print Level      =    1
	Maxiter          =    50
	Convergence      =    1.0e-07
	Restart          =    Allowed
	DIIS             =    Yes
	Model III        =    No
	Linear Model     =    No
	ABCD             =    NEW
	Irrep X          =    Ap
	Irrep Y          =    Ap
	Irrep Z          =    App
	Irrep RX         =    App
	Irrep RY         =    App
	Irrep RZ         =    Ap
	Gauge            =    LENGTH
	Applied field  0 =  0.000
	Analyze X2 Amps  =    No
	Local CC         =    No


	DPD File2: Mu_X_IA
	DPD Parameters:
	------------------
	pnum = 0   qnum = 1   irrep = 0 
	Irreps = 2

	   Row and column dimensions for DPD Block:
	   ----------------------------------------
	   Irrep: 0 row =     7	col =    17
	   Irrep: 1 row =     2	col =     7

	File 101 DPD File2: Mu_X_IA
	Matrix for Irrep 0
	----------------------------------------

                         0                  1                  2                  3                  4                  5                  6                  7                  8     
                      (  0)              (  1)              (  2)              (  3)              (  4)              (  5)              (  6)              (  7)              (  8)    

    0  (  0) -0.003721802293178 -0.013244293832517 -0.001100708481492 -0.008031693231284  0.001799501963322  0.016512435293827  0.051884377622056  0.001896846703969 -0.005975928128996
    1  (  1)  0.002912301756491 -0.009548561769125  0.007433231788721 -0.014292183751468  0.055209552197990  0.022694231978077  0.022217287688942 -0.010803403368072 -0.016316650584674
    2  (  2) -0.016134513606048 -0.087708971546767  0.024459095891875 -0.021708314576875  0.123764336298614  0.080006011502529  0.173761249241169  0.016186120889853 -0.046400403844339
    3  (  3)  0.065069547213443 -0.115478614413800 -0.044950970537355 -0.084429224971528 -0.363624263596664  0.018719058808116  0.102999598593829 -0.037678567011543  0.038303001614891
    4  (  4) -0.124147662993084  0.341742973918461  0.015909645574480  0.040345589374450 -0.157578680214334 -0.192236552851559  0.057798860369615 -0.029694408603829 -0.027278269511778
    5  (  5)  0.169452528831134  0.606720656739010 -0.174291870857235 -0.133426266273914 -0.253026634449725 -0.139079150438591 -0.177119612867540 -0.075270369345634 -0.062031587216531
    6  (  6) -0.120742284328369  0.109155424342398  0.124091981763987 -0.180976706460730 -0.057549185270188  0.223133142806881 -0.087528585780237 -0.316890166593588  0.378970493593037

                         9                 10                 11                 12                 13                 14                 15                 16     
                      (  9)              ( 10)              ( 11)              ( 12)              ( 13)              ( 14)              ( 15)              ( 16)    

    0  (  0)  0.001997628334916  0.000393870906255  0.002379305038659 -0.015078577792282 -0.020033463162664  0.014681434877341 -0.000496740554600  0.017623115243539
    1  (  1)  0.002259654116297 -0.002618451286958  0.000957392062271 -0.008563230009776 -0.006140820575756  0.002261025023220 -0.002172324562286  0.036378993385643
    2  (  2) -0.001744208924274  0.015856913158666  0.027482342417370 -0.032621553680617 -0.034017140192059  0.018339659467459 -0.004362303233744  0.040557545986365
    3  (  3) -0.020619371658434  0.024811815920749 -0.018483096922358  0.014476466955057  0.033863507017999 -0.021051846548171  0.000980665557897  0.039392843027979
    4  (  4)  0.037609424986365 -0.031548241821268 -0.062802799257052  0.046047876662080 -0.042238313692764  0.006983397605215  0.118714819265373  0.037742734204069
    5  (  5) -0.012572248239439 -0.001663105790825 -0.020847298444201 -0.057563912193137 -0.021295984733501  0.036412057666934 -0.054148381922345  0.108274587343693
    6  (  6)  0.104422757051753 -0.054992785335584 -0.341653817457857  0.047907716927087 -0.083084188208095  0.013380481444782  0.091834291216650  0.016134440576509

	File 101 DPD File2: Mu_X_IA
	Matrix for Irrep 1
	----------------------------------------

                         0                  1                  2                  3                  4                  5                  6     
                      ( 17)              ( 18)              ( 19)              ( 20)              ( 21)              ( 22)              ( 23)    

    0  (  7) -0.009766061655501  0.116742689046710  0.090213327340960  0.042599617723618 -0.065456323249746  0.051573490495798  0.142004848002103
    1  (  8)  0.172606455527528  0.022753261120871  0.023724731424225 -0.597598706038190  0.014804479192003 -0.069452966691156 -0.076236943817145

	DPD File2: Mu_XBAR_MI
	DPD Parameters:
	------------------
	pnum = 0   qnum = 0   irrep = 0 
	Irreps = 2

	   Row and column dimensions for DPD Block:
	   ----------------------------------------
	   Irrep: 0 row =     7	col =     7
	   Irrep: 1 row =     2	col =     2

	File 101 DPD File2: Mu_XBAR_MI
	Matrix for Irrep 0
	----------------------------------------

                         0                  1                  2                  3                  4                  5                  6     
                      (  0)              (  1)              (  2)              (  3)              (  4)              (  5)              (  6)    

    0  (  0)  0.843220797880188 -0.000305364539461  0.018619680575869 -0.019120199548917 -0.027869949302821 -0.026981189823090 -0.011491953624437
    1  (  1) -0.000317407670680 -0.942051138705040 -0.024272509323800 -0.005353381485087  0.006227697180204  0.040915232418005  0.019551383971812
    2  (  2)  0.018560493486276 -0.024147766009517  0.137407133988023  0.553463673689358  0.231143118419053 -0.045674054396057 -0.011551778778572
    3  (  3) -0.019199116818478 -0.005437064902451  0.553243346874906  0.035124539314167  0.500910168670456  1.049633408770360  0.106496754225171
    4  (  4) -0.027955970239506  0.006019809773277  0.231602240484073  0.502469949598808  0.210687098142313  0.044516282117287  0.784527986465674
    5  (  5) -0.026931217487186  0.040822415528616 -0.044585493721532  1.051258117569506  0.044752432760086 -0.314673372343501 -0.519397727847073
    6  (  6) -0.011419489826802  0.019551227471612 -0.011157209597066  0.105588420071294  0.784986602430307 -0.519597115548449 -0.345765712115676

	File 101 DPD File2: Mu_XBAR_MI
	Matrix for Irrep 1
	----------------------------------------

                         0                  1     
                      (  7)              (  8)    

    0  (  7)  0.210975111197557 -0.875030661352617
    1  (  8) -0.874405017239999 -0.346375704597625

	DPD File2: Mu_XBAR_AE
	DPD Parameters:
	------------------
	pnum = 1   qnum = 1   irrep = 0 
	Irreps = 2

	   Row and column dimensions for DPD Block:
	   ----------------------------------------
	   Irrep: 0 row =    17	col =    17
	   Irrep: 1 row =     7	col =     7

	File 101 DPD File2: Mu_XBAR_AE
	Matrix for Irrep 0
	----------------------------------------

                         0                  1                  2                  3                  4                  5                  6                  7                  8     
                      (  0)              (  1)              (  2)              (  3)              (  4)              (  5)              (  6)              (  7)              (  8)    

    0  (  0) -0.904724981306247 -0.481390607100112  0.057910640187744  0.177089196398031 -0.349445137800315  0.028374950226394 -0.358001038224659  0.050511155182051 -0.063506314226009
    1  (  1) -0.483251697709559 -1.078493879861881 -0.386760079891728 -0.092187190271798 -0.952747240808787 -0.180412610657244  0.486444556120467  0.526829302326019 -0.031667361421750
    2  (  2)  0.059839309680707 -0.384421747175804 -0.670657236753999  0.179061943177016  0.417571205985094 -0.211856065047411 -0.359876723753933 -0.030548655310966 -0.164515290927979
    3  (  3)  0.174884955284656 -0.092757567596577  0.180459328664737 -1.193059715168761  0.503221778837979  0.251829368096558 -0.596811124566188 -0.089989823239090 -0.023988775088622
    4  (  4) -0.347964079641911 -0.953302435449929  0.418176649153738  0.503624071861768  0.182507649234997 -0.463451148864598 -0.543505045492068  0.228576601990799  0.457713852130966
    5  (  5)  0.031247401307651 -0.181277282637125 -0.211425143072720  0.251569806007912 -0.463157868399610  0.156629148522114 -0.003988042729060  0.564554952832288 -0.635175790238143
    6  (  6) -0.358353266337681  0.487292208559929 -0.359527935056919 -0.597333300997077 -0.542535699854030 -0.003695001420412  0.794183415416846 -0.068455833331327  0.230040386435204
    7  (  7)  0.046166118869196  0.528965315412445 -0.028765736562807 -0.089259695189122  0.228833186074950  0.564425541371678 -0.068673355651945 -0.831252340065403 -0.312557714890286
    8  (  8) -0.057567872719442 -0.033050312425518 -0.166330129515003 -0.024619126450335  0.457655629484989 -0.636255158591421  0.229997622152164 -0.311969024162366 -0.470811645017100
    9  (  9)  0.036959672986231  0.291210220574430 -0.021564368820245  0.054492752903700  0.108344921562038  0.181760251795159  0.199422129329823  0.132827658328976 -0.011475642157333
   10  ( 10) -0.082198429132083 -0.353724259727460  0.114267360394666 -0.045819010664497 -0.189073169759209 -0.104244106100628 -0.300568728873307 -0.204667827292667 -0.288423571910105
   11  ( 11)  0.177333918698529 -0.193693842548644 -0.328842069455097  0.063010050803702  0.068782783237695 -0.199319850849354  0.038780535654577  0.143656643168739 -0.034088204532783
   12  ( 12) -0.132009881597958  0.087702968446145 -0.027051099748809  0.126527781910721 -0.025526588809235 -0.187899667469727 -0.211399030850677 -0.085438071631380  0.009081815586055
   13  ( 13) -0.112765676908131  0.110727989393893 -0.046684457960795  0.022133743435692 -0.069205033366027 -0.208924312157338 -0.373293890039784  0.071933319845501  0.159424815751298
   14  ( 14)  0.097508958503566 -0.051461340960201  0.002541653324131 -0.073087669692666  0.059086627614289  0.259965540894520  0.245821152835840 -0.059004401524469  0.003221818726126
   15  ( 15)  0.037599189706181  0.006763749004770  0.022146851466992  0.122722878418959 -0.084659367905157  0.046218687225805 -0.088473281330335 -0.135501295003592  0.165309210305225
   16  ( 16)  0.144638745472075  0.052624306389944  0.022122791398530 -0.024682533032049 -0.159989083040749 -0.176551003181928 -0.152004914917415 -0.066735213646529 -0.019402329968618

                         9                 10                 11                 12                 13                 14                 15                 16     
                      (  9)              ( 10)              ( 11)              ( 12)              ( 13)              ( 14)              ( 15)              ( 16)    

    0  (  0)  0.035139289476536 -0.081290484156816  0.182375413337479 -0.132965608229533 -0.111412524574345  0.097369479031701  0.035827570552798  0.145296391108191
    1  (  1)  0.290319418596974 -0.355101697243993 -0.195483687939421  0.089253975540509  0.111906577644935 -0.052468291087419  0.007063880829643  0.053524883780447
    2  (  2) -0.020251648464922  0.114018177637314 -0.330948076236142 -0.026969664874079 -0.047680635754043  0.002954574311987  0.023036168655034  0.022269252087147
    3  (  3)  0.053575003693343 -0.046275685333331  0.062570805427452  0.126634248673759  0.021823570058536 -0.073041147581318  0.123122060101447 -0.024982765106686
    4  (  4)  0.108250391463408 -0.189582306239984  0.068833080026210 -0.026149103717770 -0.069884900353198  0.059777814714757 -0.085035002785317 -0.160657509855655
    5  (  5)  0.184081665211580 -0.103758544776334 -0.200154318832858 -0.187922946419726 -0.209511444558654  0.260300978314765  0.046744000145526 -0.177120023781387
    6  (  6)  0.199017269347583 -0.300363592766398  0.039032864251958 -0.211934308639142 -0.373746128599161  0.246173446578454 -0.088804492492538 -0.152330861903035
    7  (  7)  0.131382623579814 -0.205155573655425  0.144074343787406 -0.085663127206712  0.071555382882943 -0.058776061968498 -0.135416778888418 -0.066898800708955
    8  (  8) -0.009463974654932 -0.287704256041610 -0.034118476608642  0.009088561884140  0.159563309997690  0.003194809417955  0.165339329811047 -0.019467037122088
    9  (  9) -0.752595085405491 -0.407599814697927 -0.013335204082489  0.104970388574950 -0.099414464692922 -0.164701513787591  0.119365782637557 -0.060642149815396
   10  ( 10) -0.407764812897049  0.103074070124113 -0.026715524330875  0.028474921555427 -0.166187435670610  0.165181146636805  0.000537274634884  0.089463592314076
   11  ( 11) -0.014699939718634 -0.027191632790998 -0.536758464228758 -0.060198605814610 -0.003752747080952 -0.140137237487245 -0.793676753432208 -0.023818620985232
   12  ( 12)  0.105031289209644  0.028629762470490 -0.060012002091051 -0.502055665303994 -0.569908767277424 -0.460787650890697  0.137174702689170  0.177714007345444
   13  ( 13) -0.099662007732321 -0.166075071459487 -0.003377773882288 -0.569971034308846  0.011268687989740  0.544506498304967 -0.058187024925529  0.387722136139945
   14  ( 14) -0.164685775113998  0.165061640211850 -0.140335737016327 -0.460713450937291  0.544540435245966 -0.384665084881614  0.175449475943619 -0.367986974624159
   15  ( 15)  0.119393286070700  0.000564762087898 -0.793718249729384  0.137179285345462 -0.058176599332447  0.175419521217415  0.279671793709468  0.036807074517079
   16  ( 16) -0.060714155763456  0.089462498984899 -0.023762234374710  0.177900542504257  0.387948733184796 -0.368155579588635  0.036764546159334  0.654065521029393

	File 101 DPD File2: Mu_XBAR_AE
	Matrix for Irrep 1
	----------------------------------------

                         0                  1                  2                  3                  4                  5                  6     
                      ( 17)              ( 18)              ( 19)              ( 20)              ( 21)              ( 22)              ( 23)    

    0  ( 17) -0.967120657469496 -0.602391294936073 -0.152652640435470 -0.058361927492549 -0.024740591867085 -0.015106272055334  0.059878127114197
    1  ( 18) -0.602793304572991  0.826263324796555  0.141094030213576  0.069860583274010 -0.000289579047725 -0.002295119132791 -0.089827124320985
    2  ( 19) -0.153721165959091  0.141256485178194 -0.968082177872213  0.078653057753441 -0.044774527375755  0.099819762285358  0.063587790662740
    3  ( 20) -0.055677111448308  0.071551578650690  0.077420980084543 -0.485138804836702 -0.007559288151013 -0.046059722809095  0.824278813468377
    4  ( 21) -0.024476444321644 -0.000632410783097 -0.044830459574672 -0.007240763340353 -0.736599004289161 -0.572808638756535 -0.062115377444348
    5  ( 22) -0.015082615500694 -0.001942148954971  0.099689790094714 -0.046124777620832 -0.572814057078789  0.630375866157440 -0.003606497591710
    6  ( 23)  0.059363042564655 -0.089084246596523  0.063522322067345  0.824138058268881 -0.062103193632065 -0.003586674805191  0.362065934638489

	DPD File2: Mu_XBAR_IA
	DPD Parameters:
	------------------
	pnum = 0   qnum = 1   irrep = 0 
	Irreps = 2

	   Row and column dimensions for DPD Block:
	   ----------------------------------------
	   Irrep: 0 row =     7	col =    17
	   Irrep: 1 row =     2	col =     7

	File 101 DPD File2: Mu_XBAR_IA
	Matrix for Irrep 0
	----------------------------------------

                         0                  1                  2                  3                  4                  5                  6                  7                  8     
                      (  0)              (  1)              (  2)              (  3)              (  4)              (  5)              (  6)              (  7)              (  8)    

    0  (  0) -0.003668395164058 -0.012812340529331 -0.001337111706218 -0.007920718801672  0.001761778294859  0.016365712004282  0.051054042616882  0.001979900361938 -0.005860452804904
    1  (  1)  0.002904129735836 -0.009114525306036  0.007345990173883 -0.014300508582524  0.054397307730563  0.022338037821887  0.021941001325418 -0.010908324600338 -0.016298727678667
    2  (  2) -0.014305442204268 -0.079536039926759  0.019756610824839 -0.027454019809238  0.114064822802049  0.079229808680130  0.174948039174333  0.013424645237584 -0.045328208577120
    3  (  3)  0.052007604863681 -0.106629324681467 -0.044958117086257 -0.078294246915124 -0.367479755158759  0.020072586717342  0.115781134493633 -0.020891673410525  0.036246597792514
    4  (  4) -0.124961544987990  0.326212153150558  0.010766017795695  0.041212943876338 -0.155070909727312 -0.189023940301904  0.076874871550819 -0.032453161982137 -0.013380509709666
    5  (  5)  0.180095294151155  0.579062307145904 -0.172539300504741 -0.139292422077842 -0.231709007833138 -0.115497363144039 -0.158804526490888 -0.075761749266197 -0.071037125205308
    6  (  6) -0.123377316293159  0.104939753760447  0.122524580866589 -0.181961394181473 -0.054074068058314  0.207140461592540 -0.084213325022611 -0.308103328480785  0.359693069165516

                         9                 10                 11                 12                 13                 14                 15                 16     
                      (  9)              ( 10)              ( 11)              ( 12)              ( 13)              ( 14)              ( 15)              ( 16)    

    0  (  0)  0.002085156106207  0.000059291662296  0.002287748098955 -0.014766853417408 -0.019569389367845  0.014342971444616 -0.000483536236549  0.017314841764265
    1  (  1)  0.002112774960787 -0.002647316784145  0.000937736014674 -0.008420614209928 -0.006064673394157  0.002238507419161 -0.002123009629869  0.035847671785285
    2  (  2)  0.001215967931756  0.008462110518165  0.023566212884378 -0.031604697081242 -0.031684186166538  0.016612052540389 -0.003564663973459  0.039403384020571
    3  (  3) -0.012699188161486  0.016172635085492 -0.016008852147588  0.010399511675366  0.028198959593680 -0.017589083160643  0.000699359498154  0.036282167278254
    4  (  4)  0.034830369958218 -0.036073917353677 -0.059002275292754  0.042425158516822 -0.040569487902817  0.008074879953062  0.109302644974286  0.035368213774817
    5  (  5) -0.008109915619822 -0.007340519158094 -0.020961938445197 -0.053371259418816 -0.020323352504359  0.034316814447718 -0.051450674614955  0.100364893652762
    6  (  6)  0.097005930977390 -0.056761829111402 -0.310471226792312  0.042900360171043 -0.078182441016813  0.012660572296485  0.087433359785526  0.018433272732327

	File 101 DPD File2: Mu_XBAR_IA
	Matrix for Irrep 1
	----------------------------------------

                         0                  1                  2                  3                  4                  5                  6     
                      ( 17)              ( 18)              ( 19)              ( 20)              ( 21)              ( 22)              ( 23)    

    0  (  7) -0.002903418561654  0.138880540119230  0.090302463919193  0.043098424525047 -0.060371299724687  0.047706346061173  0.131067706490916
    1  (  8)  0.178959020112772  0.013391618501741  0.023852805982268 -0.559515229352336  0.013655867412104 -0.064438423280156 -0.071734784096736

	Computing Mu_X-Perturbed Wave Function (0.000 E_h).
	Iter   Pseudopolarizability       RMS 
	----   --------------------   -----------
	   0         3.677408979555
	   1         4.426377435798    1.991e-01
	   2         4.907315548851    9.844e-02
	   3         4.954086839494    2.716e-02
	   4         4.962096892964    1.668e-02
	   5         4.964422448741    3.058e-03
	   6         4.964369388383    1.310e-03
	   7         4.964292281782    1.899e-04
	   8         4.964311195657    6.011e-05
	   9         4.964309377882    9.685e-06
	  10         4.964310522592    2.468e-06
	  11         4.964310724757    3.677e-07
	  12         4.964310837619    1.084e-07
	-----------------------------------------
	Converged Mu_X-Perturbed Wfn to 3.156e-08

	DPD File2: Mu_Y_IA
	DPD Parameters:
	------------------
	pnum = 0   qnum = 1   irrep = 0 
	Irreps = 2

	   Row and column dimensions for DPD Block:
	   ----------------------------------------
	   Irrep: 0 row =     7	col =    17
	   Irrep: 1 row =     2	col =     7

	File 101 DPD File2: Mu_Y_IA
	Matrix for Irrep 0
	----------------------------------------

                         0                  1                  2                  3                  4                  5                  6                  7                  8     
                      (  0)              (  1)              (  2)              (  3)              (  4)              (  5)              (  6)              (  7)              (  8)    

    0  (  0)  0.004641409835110  0.002169957593285 -0.005425736388964 -0.005885847436671  0.008519213051393 -0.043695060804681  0.013986430560168 -0.008632758121711  0.020056351945755
    1  (  1) -0.021814856087309  0.012109645879785  0.035192875338045 -0.036720070270015 -0.008738945183420 -0.009720970570662 -0.011254305670923  0.010206282181263 -0.001417226795733
    2  (  2)  0.006617659340557  0.022175519171115  0.004767482947550 -0.059492557049746  0.004692768550847 -0.127468056353564  0.011616781567283  0.035658013861294  0.000066578122197
    3  (  3)  0.052091876298203 -0.023149070981058 -0.124515382142322  0.065527861779385  0.079961854689446 -0.122934269882485  0.062415394678575 -0.090698245526577  0.098667392366591
    4  (  4) -0.416125636839174  0.206175883547423  0.266379275585448  0.203289574605719  0.145099770685305  0.020639941021579  0.123656765826455  0.007144563127203  0.054345345126847
    5  (  5) -0.140369823737204 -0.236326913724498  0.185455411258754 -0.277531975469164 -0.000121997818525  0.016704876296765  0.009124745168408 -0.179399326528807  0.200762342855783
    6  (  6)  0.537697771322410 -0.183930919246069 -0.504512505823226 -0.219342181613716  0.165939784386297  0.066472872377421  0.083092257421637  0.137342759954558 -0.017850263914884

                         9                 10                 11                 12                 13                 14                 15                 16     
                      (  9)              ( 10)              ( 11)              ( 12)              ( 13)              ( 14)              ( 15)              ( 16)    

    0  (  0) -0.006971702799345 -0.002448299515161  0.014441222334199  0.003457588576405  0.004310628734255 -0.004382597207893  0.004323695627699 -0.003752748867194
    1  (  1)  0.036489004660460  0.015387325459314  0.010564228214494 -0.015922221835764  0.004644008911092 -0.014388600593819 -0.004066504708869 -0.010180222568402
    2  (  2)  0.006606799200173  0.001911145239852  0.124674121331494 -0.021022899754566  0.009863026825906 -0.032784247073080 -0.017571623063429 -0.011034666487809
    3  (  3) -0.086232317603331 -0.022086584537915 -0.040369803214776  0.009024133435462  0.009337969526306  0.037259188252857  0.078723060000887 -0.000119950319295
    4  (  4)  0.208897518132132 -0.083030053097589 -0.053087294535594  0.166418697649863 -0.162859526582352 -0.029750632097934  0.021098088601722 -0.056352445391464
    5  (  5) -0.038098502881485  0.077606295245895 -0.254044037293726 -0.062717945766243  0.104491403855741  0.047147175236483  0.079977041140460  0.006305313152849
    6  (  6)  0.135670948891363 -0.157149459007692 -0.041432839726220  0.084089993699935 -0.151673722641601 -0.236324150581996 -0.013958028582536 -0.091532396636597

	File 101 DPD File2: Mu_Y_IA
	Matrix for Irrep 1
	----------------------------------------

                         0                  1                  2                  3                  4                  5                  6     
                      ( 17)              ( 18)              ( 19)              ( 20)              ( 21)              ( 22)              ( 23)    

    0  (  7) -0.021779879964347 -0.053715134894325  0.258086034389571 -0.053597038903376 -0.277488617125166  0.212619779342419 -0.033032717196199
    1  (  8) -0.078829838905683 -0.043123210458977  0.367217446503724  0.103096648490323 -0.113208754045826 -0.304079832558143  0.017701454430380

	DPD File2: Mu_YBAR_MI
	DPD Parameters:
	------------------
	pnum = 0   qnum = 0   irrep = 0 
	Irreps = 2

	   Row and column dimensions for DPD Block:
	   ----------------------------------------
	   Irrep: 0 row =     7	col =     7
	   Irrep: 1 row =     2	col =     2

	File 101 DPD File2: Mu_YBAR_MI
	Matrix for Irrep 0
	----------------------------------------

                         0                  1                  2                  3                  4                  5                  6     
                      (  0)              (  1)              (  2)              (  3)              (  4)              (  5)              (  6)    

    0  (  0) -0.245979114433293  0.000069270114400 -0.004985975625800  0.009796700331278 -0.029476428145112  0.028032397671947 -0.036143720059111
    1  (  1)  0.000072630393670  0.166371827112233  0.003669790827270  0.012915808926508 -0.036426403189362  0.001353278440332  0.033907503687709
    2  (  2) -0.004964578776480  0.003670031297777 -0.041872656595772 -0.270101766040807  0.449921168542986 -0.191291789735926  0.020269460473362
    3  (  3)  0.009850667770804  0.012610817809531 -0.270334152355329  0.144888153268827 -0.280048358335308 -0.427636237491919  0.645517736236056
    4  (  4) -0.029674593672732 -0.036015351201604  0.450629561227742 -0.280223544414978  0.202952425720307  0.257492194849852 -0.280001664515095
    5  (  5)  0.028153818924688  0.001441109654008 -0.191436794845972 -0.427368765588008  0.254531198190402 -0.110435444839064 -0.120218053048149
    6  (  6) -0.036247458882310  0.034151303086285  0.019018531449400  0.643013279378403 -0.268989721042664 -0.120963647462986  0.184552064452789

	File 101 DPD File2: Mu_YBAR_MI
	Matrix for Irrep 1
	----------------------------------------

                         0                  1     
                      (  7)              (  8)    

    0  (  7) -0.088410269912612  0.218913167861291
    1  (  8)  0.218396992182717  0.056681220517234

	DPD File2: Mu_YBAR_AE
	DPD Parameters:
	------------------
	pnum = 1   qnum = 1   irrep = 0 
	Irreps = 2

	   Row and column dimensions for DPD Block:
	   ----------------------------------------
	   Irrep: 0 row =    17	col =    17
	   Irrep: 1 row =     7	col =     7

	File 101 DPD File2: Mu_YBAR_AE
	Matrix for Irrep 0
	----------------------------------------

                         0                  1                  2                  3                  4                  5                  6                  7                  8     
                      (  0)              (  1)              (  2)              (  3)              (  4)              (  5)              (  6)              (  7)              (  8)    

    0  (  0)  2.444349188131306  0.256612975235947  0.389334368263444  0.474604601330924 -0.068577500975825  0.039824297915278  0.205159074839842  0.414778026710335  0.422505864804231
    1  (  1)  0.256589318465639  0.308539013249871  0.432782264805767 -0.037138519294440  0.327369806862237 -0.542241170504582  0.257436496502666  0.084269513051996 -0.179248928665461
    2  (  2)  0.382019410820508  0.433200492215345  1.672522316657578  0.104441581737512 -0.318359316006780  0.379622661650551  0.229523453038141  0.415805732774888  0.023170261283899
    3  (  3)  0.474142844256079 -0.035314029716723  0.103778064702078 -0.645979280959550 -0.053612244074771 -0.234477329883798 -0.044597031753595 -0.113664418635501 -0.447622878670064
    4  (  4) -0.064942647469331  0.326149672530188 -0.320515254098103 -0.055118524409823  0.033887006850385 -0.132134242545014  0.209690946141899  0.214400782853805 -0.399221648073484
    5  (  5)  0.041506830219223 -0.542374461862375  0.378449298371438 -0.233389685818530 -0.131388908972280 -0.046254779547186 -0.152118285949275 -0.575230041202066  0.659389591877137
    6  (  6)  0.208008191384564  0.256445648721680  0.227516851769473 -0.045830399764791  0.209467042981628 -0.152250255468969  0.056005942640032  0.066130413582220 -0.021154297060571
    7  (  7)  0.417144156004191  0.084064069333657  0.415988861002799 -0.113888578214758  0.214361358727885 -0.576008073539649  0.065945398749835  0.744097756219559 -0.078122281742067
    8  (  8)  0.420181754346901 -0.178720235211011  0.023351652715464 -0.446784034245051 -0.399136425281259  0.660101216049321 -0.020729793138155 -0.078044822477477  0.863466571244095
    9  (  9)  0.286193803238083 -0.212406542472155 -0.582577747203066  0.240315443819407  0.121801172228042 -0.313751948691042  0.100663864768522 -0.148753912764114  0.283461629779558
   10  ( 10)  0.081553755901154  0.001684851756978 -0.334251153403436 -0.048142106883629  0.127009054232049  0.155289058322811 -0.172136796924484  0.238411911541890 -0.212190996480912
   11  ( 11) -0.057830673704693 -0.100322636724826  0.001170561133603 -0.041875335942531 -0.156586753037204  0.286683683089103 -0.138920383641252 -0.189667911229782  0.497294751509643
   12  ( 12)  0.085140072977120 -0.080043133786469  0.021103419269191 -0.137116500576055 -0.012493707467956  0.043303857655704  0.069212957205816  0.159092383881142  0.058224817911968
   13  ( 13)  0.046513205458690 -0.018359578297575  0.004206804773280 -0.100105062664387  0.076314964540729 -0.109475411203763  0.136565868948596  0.054875138445465 -0.101019211995646
   14  ( 14)  0.045425099116953 -0.044036259960925 -0.184069463981766  0.137807966621253 -0.025355258729858  0.036810161413612 -0.129037733760652  0.086577978433541 -0.055020463239796
   15  ( 15) -0.018415300063099  0.061342954447867 -0.019984439242324  0.061336100111052 -0.163593076225739 -0.149970527577065 -0.208228540649290 -0.041914558635121  0.098242833281693
   16  ( 16)  0.016905079164894 -0.036354695845104 -0.027253036374051 -0.024530094912664  0.038960057719434 -0.015861611514305  0.080915106290951  0.015832508794509  0.070262380831282

                         9                 10                 11                 12                 13                 14                 15                 16     
                      (  9)              ( 10)              ( 11)              ( 12)              ( 13)              ( 14)              ( 15)              ( 16)    

    0  (  0)  0.288009539010240  0.085996111705128 -0.058926572795980  0.082823676110059  0.049358629997539  0.049855729524747 -0.017945598047384  0.018022938281480
    1  (  1) -0.213133590539332  0.000945617929527 -0.100923409669592 -0.080094750374409 -0.019272199383771 -0.044711829202617  0.061352867182099 -0.036829110742233
    2  (  2) -0.584670517817604 -0.336925136366974  0.000802676622604  0.022726818184646  0.003023452295895 -0.185958946959703 -0.019705776276317 -0.027790216670533
    3  (  3)  0.238816805312954 -0.048832133242938 -0.041168723727836 -0.137153409869398 -0.101125582345984  0.137642211699153  0.061536931600709 -0.024765487178350
    4  (  4)  0.121562771242669  0.127536868096962 -0.156543618244367 -0.012926949347730  0.077029496824519 -0.025476498024984 -0.163624071818052  0.039257556391360
    5  (  5) -0.312669767218035  0.154311510641801  0.287282209678666  0.044273467675226 -0.110346961400891  0.035915016612486 -0.150331718593264 -0.016216885265250
    6  (  6)  0.100086330198875 -0.171785025988511 -0.138810838985270  0.068757086311842  0.137187841363088 -0.129202769006334 -0.208383134962611  0.081217322156952
    7  (  7) -0.148081660388635  0.238715604676557 -0.189813389534127  0.158801161078890  0.054695977185371  0.087068332830174 -0.041988749988043  0.015645443518327
    8  (  8)  0.283499904082474 -0.212357060329753  0.497375662778841  0.058869030050472 -0.100903668858127 -0.055360831091747  0.098219285143427  0.070523432040625
    9  (  9)  1.217652398611198  0.745945221491915  0.168075321285281 -0.502857179487436  0.121817548226611 -0.283990354197197  0.107407066986824 -0.012324283581751
   10  ( 10)  0.745680700960004  0.285557928738832 -0.123734236660417 -0.229542193331159  0.095623897628322 -0.145938201136068  0.072713744789507 -0.037594105268165
   11  ( 11)  0.168100234293706 -0.123560534747630  0.284409103283872  0.007590078929836  0.031718452754209 -0.061257469722726  0.235858736464978  0.082957972947483
   12  ( 12) -0.503226378759113 -0.229619613029718  0.008264970592059  0.292095539846023  0.096721047545450  0.213569178274742 -0.102809596296847 -0.040553713780220
   13  ( 13)  0.121537658028272  0.095534635948062  0.032248811115745  0.096703571161054 -0.045385623827921 -0.132364109360370 -0.006950885065066 -0.091182281779956
   14  ( 14) -0.284847825286115 -0.146187563402494 -0.061743263672876  0.213681271790018 -0.132443608024980  0.067409779761506 -0.027840326773007  0.072398174679045
   15  ( 15)  0.107344712671263  0.072742298885819  0.235844002196820 -0.102685663296487 -0.006815336853838 -0.028098945982090 -0.120052699116433  0.029826063225526
   16  ( 16) -0.012579955267014 -0.037656901046771  0.083330813728236 -0.040665372483814 -0.091244579760019  0.072383970705000  0.029689149723814 -0.203433020475406

	File 101 DPD File2: Mu_YBAR_AE
	Matrix for Irrep 1
	----------------------------------------

                         0                  1                  2                  3                  4                  5                  6     
                      ( 17)              ( 18)              ( 19)              ( 20)              ( 21)              ( 22)              ( 23)    

    0  ( 17)  0.247010635186843  0.200621107624599 -0.516473236104802  0.028425244843618 -0.213581287431987 -0.066791462685184 -0.006108008429681
    1  ( 18)  0.201070790083509 -0.206237119489756 -0.285817575680497 -0.013030660795349 -0.145540632195200 -0.009889333561199  0.021324193062793
    2  ( 19) -0.519519669744667 -0.285351513314221  1.520565742266010 -0.053011071046064  0.608063170345293  0.124887572272219  0.013538781710402
    3  ( 20)  0.028144517760483 -0.013618556647961 -0.051930735227436  0.059309473572253 -0.028545103327073  0.022308821481342 -0.192490354479617
    4  ( 21) -0.211391106985996 -0.146411600690673  0.607345968429878 -0.027778918554083  0.344956510312580  0.179805601290539  0.008895350285655
    5  ( 22) -0.066569807052643 -0.008410879654661  0.124289623990803  0.021917408684812  0.179786337560268 -0.188496778302937 -0.019043826826785
    6  ( 23) -0.005980193864402  0.021158657019694  0.013485611036520 -0.192453586076112  0.008880365522182 -0.018918588524137 -0.135968381078113

	DPD File2: Mu_YBAR_IA
	DPD Parameters:
	------------------
	pnum = 0   qnum = 1   irrep = 0 
	Irreps = 2

	   Row and column dimensions for DPD Block:
	   ----------------------------------------
	   Irrep: 0 row =     7	col =    17
	   Irrep: 1 row =     2	col =     7

	File 101 DPD File2: Mu_YBAR_IA
	Matrix for Irrep 0
	----------------------------------------

                         0                  1                  2                  3                  4                  5                  6                  7                  8     
                      (  0)              (  1)              (  2)              (  3)              (  4)              (  5)              (  6)              (  7)              (  8)    

    0  (  0)  0.005238127939355  0.001976883222601 -0.005514607800531 -0.005781158785317  0.008380852698110 -0.042800683768622  0.013444908866245 -0.008431333871668  0.019480355149001
    1  (  1) -0.021395899333170  0.012025480910340  0.034214409880866 -0.035837483326021 -0.008511671751061 -0.009617190821488 -0.011071171106446  0.009527278541193 -0.001551911111137
    2  (  2) -0.001444952130970  0.020878480692038  0.009789702561667 -0.069102639208920  0.000336527955305 -0.132186954617237  0.008426186030907  0.026652526051500  0.004220620316387
    3  (  3)  0.046205148767108 -0.027330850246342 -0.110089684196493  0.081494231111388  0.085678229131114 -0.128125291219470  0.066100619483172 -0.089543398065103  0.104217597734974
    4  (  4) -0.391239378960087  0.190774582762445  0.228837321413065  0.192776746354400  0.136982035898933  0.023947294610651  0.113448481484656  0.015599827900234  0.045040439200351
    5  (  5) -0.147366692451606 -0.226661950268858  0.174786755767862 -0.279821439818125  0.021066489078112  0.007222991332984  0.001531162368358 -0.178521308365665  0.182574166263636
    6  (  6)  0.535801884752992 -0.148334477272605 -0.461778350079733 -0.205192181612716  0.151480920310001  0.064955339683643  0.072788816917260  0.131866811620767 -0.019674904396119

                         9                 10                 11                 12                 13                 14                 15                 16     
                      (  9)              ( 10)              ( 11)              ( 12)              ( 13)              ( 14)              ( 15)              ( 16)    

    0  (  0) -0.006788983886016 -0.002256743154291  0.014045575100497  0.003408231412886  0.004239328193302 -0.004292338654270  0.004220294112597 -0.003732351208244
    1  (  1)  0.035318238979225  0.014718471696500  0.010254145738558 -0.015455942338531  0.004453263703467 -0.013870055798999 -0.004037871777040 -0.010007127089789
    2  (  2)  0.006047727856882  0.003826887753930  0.111388376681305 -0.018576319244728  0.010253634586396 -0.031311769291325 -0.014687049676102 -0.011932574684795
    3  (  3) -0.081160042757341 -0.013423195853836 -0.037007409566759  0.009205644264298  0.009897187661797  0.034268736670664  0.073599722778844  0.000022517555798
    4  (  4)  0.183152765295161 -0.081954484428905 -0.045243869825695  0.153681914334516 -0.148165709904054 -0.029724699323461  0.017380345091033 -0.050786736145649
    5  (  5) -0.040278934979759  0.073321008241757 -0.227199179538119 -0.058463827452595  0.092103788900754  0.046941846026136  0.073427012233707  0.006155797977519
    6  (  6)  0.155303588147714 -0.148031701026177 -0.035242952554131  0.075442033583206 -0.135720393506524 -0.220349071644330 -0.013200156556303 -0.084556171870895

	File 101 DPD File2: Mu_YBAR_IA
	Matrix for Irrep 1
	----------------------------------------

                         0                  1                  2                  3                  4                  5                  6     
                      ( 17)              ( 18)              ( 19)              ( 20)              ( 21)              ( 22)              ( 23)    

    0  (  7) -0.003710145248289 -0.060914893306254  0.238962937814393 -0.052917718111091 -0.250924340298295  0.197252099359620 -0.030446413512905
    1  (  8) -0.052681813534426 -0.025500356354849  0.343343674554674  0.098984179843934 -0.097145228052783 -0.278373901377179  0.018471591307044

	Computing Mu_Y-Perturbed Wave Function (0.000 E_h).
	Iter   Pseudopolarizability       RMS 
	----   --------------------   -----------
	   0         5.198806491369
	   1         6.461675150928    3.901e-01
	   2         7.825099701079    2.523e-01
	   3         8.027960085905    6.744e-02
	   4         8.081321417567    3.142e-02
	   5         8.085012094546    3.129e-03
	   6         8.085968651680    1.134e-03
	   7         8.085820676050    1.255e-04
	   8         8.085847381419    3.995e-05
	   9         8.085844625505    7.495e-06
	  10         8.085846323491    1.878e-06
	  11         8.085846312561    5.010e-07
	  12         8.085846376898    1.244e-07
	-----------------------------------------
	Converged Mu_Y-Perturbed Wfn to 3.650e-08

	DPD File2: Mu_Z_IA
	DPD Parameters:
	------------------
	pnum = 0   qnum = 1   irrep = 1 
	Irreps = 2

	   Row and column dimensions for DPD Block:
	   ----------------------------------------
	   Irrep: 0 row =     7	col =     7
	   Irrep: 1 row =     2	col =    17

	File 101 DPD File2: Mu_Z_IA
	Matrix for Irrep 0
	----------------------------------------

                         0                  1                  2                  3                  4                  5                  6     
                      ( 17)              ( 18)              ( 19)              ( 20)              ( 21)              ( 22)              ( 23)    

    0  (  0) -0.010786264228415  0.051029121704462  0.002996774149433 -0.011801499651870  0.001272030346886  0.000196386795434  0.002982913344694
    1  (  1) -0.058609642121960 -0.012417796139005 -0.003971629071465 -0.009080237002261 -0.000121216581463 -0.000228819086477 -0.009373422044960
    2  (  2) -0.085132606748589  0.091652844255007  0.007546785428978 -0.142423347448775  0.006996614505584  0.002101811168650 -0.029373123871517
    3  (  3)  0.122069294830413  0.223131794757976 -0.087332576315279  0.050632809109526  0.042739585263731 -0.018430037199569  0.086614055537288
    4  (  4) -0.105541257237668  0.048893483939876  0.328998948954411  0.105191600674335 -0.242811437390242  0.170260520841802  0.054325773981785
    5  (  5) -0.265882703347053  0.058275008239644 -0.023416330950550  0.339635925104171  0.103800330057683 -0.114058298154268  0.058690866528259
    6  (  6)  0.007633905092243  0.022854129185245 -0.377212344992877  0.102347668346376  0.009619099480025  0.297095103069292 -0.012497510084534

	File 101 DPD File2: Mu_Z_IA
	Matrix for Irrep 1
	----------------------------------------

                         0                  1                  2                  3                  4                  5                  6                  7                  8     
                      (  0)              (  1)              (  2)              (  3)              (  4)              (  5)              (  6)              (  7)              (  8)    

    0  (  7) -0.147346254637968  0.175457599251867 -0.221105863739480 -0.029899668787401  0.165686765531289  0.115361651221699 -0.008355477139619  0.328221772363112  0.292080699285008
    1  (  8) -0.122245384883846  0.024589764276980 -0.167118540075027 -0.015807331066187 -0.058301204005782 -0.105293424698191 -0.203866359903468  0.286393937520542  0.189278216302505

                         9                 10                 11                 12                 13                 14                 15                 16     
                      (  9)              ( 10)              ( 11)              ( 12)              ( 13)              ( 14)              ( 15)              ( 16)    

    0  (  7) -0.087279669307525 -0.126770969458253 -0.036329398090361 -0.242965083670571  0.132308978770399  0.116935105193756  0.002357402889868 -0.057494508064383
    1  (  8) -0.205975414883200  0.286653661281893 -0.077914698011481 -0.007558733849685 -0.292258580883697 -0.145533640541139  0.007846000757778  0.090356337534089

	DPD File2: Mu_ZBAR_MI
	DPD Parameters:
	------------------
	pnum = 0   qnum = 0   irrep = 1 
	Irreps = 2

	   Row and column dimensions for DPD Block:
	   ----------------------------------------
	   Irrep: 0 row =     7	col =     2
	   Irrep: 1 row =     2	col =     7

	File 101 DPD File2: Mu_ZBAR_MI
	Matrix for Irrep 0
	----------------------------------------

                         0                  1     
                      (  7)              (  8)    

    0  (  0) -0.043806358682915  0.036060474291347
    1  (  1) -0.036237477781576 -0.050380116242469
    2  (  2)  0.528556746770748  0.015312702124499
    3  (  3)  0.017543923678871 -0.564770701806776
    4  (  4)  0.085770632436962 -0.070352835343140
    5  (  5)  0.252251823087045  0.175908232151895
    6  (  6)  0.061057351910791  0.095121683153407

	File 101 DPD File2: Mu_ZBAR_MI
	Matrix for Irrep 1
	----------------------------------------

                         0                  1                  2                  3                  4                  5                  6     
                      (  0)              (  1)              (  2)              (  3)              (  4)              (  5)              (  6)    

    0  (  7) -0.044054911303691 -0.036479597188149  0.528364323021021  0.018654847207863  0.085504386016306  0.251918005496421  0.059561000066055
    1  (  8)  0.036061436666651 -0.050608041334673  0.015493437447693 -0.562766195904203 -0.071550710843467  0.175112950179455  0.095210468861446

	DPD File2: Mu_ZBAR_AE
	DPD Parameters:
	------------------
	pnum = 1   qnum = 1   irrep = 1 
	Irreps = 2

	   Row and column dimensions for DPD Block:
	   ----------------------------------------
	   Irrep: 0 row =    17	col =     7
	   Irrep: 1 row =     7	col =    17

	File 101 DPD File2: Mu_ZBAR_AE
	Matrix for Irrep 0
	----------------------------------------

                         0                  1                  2                  3                  4                  5                  6     
                      ( 17)              ( 18)              ( 19)              ( 20)              ( 21)              ( 22)              ( 23)    

    0  (  0)  0.599492926068435  0.016944838892726 -0.049525458947440  0.100972101646858 -0.178580201317912 -0.094326226790726 -0.045747752473046
    1  (  1) -0.102945612454372  0.497784743168105  0.079284969103503 -0.089541103425925  0.095748352779534  0.042949245888686  0.100250345293623
    2  (  2)  0.313657864282650 -0.236278327193548  0.290961506691062  0.013419795139013  0.277336739028162  0.128348816527597 -0.035327401682053
    3  (  3) -0.120325246932751 -0.088559168096561 -0.285391167036954 -0.049891283647940 -0.018561032493176 -0.010548603734597  0.045552591895576
    4  (  4) -0.090292582314765  0.031988950580388 -0.030554195284678 -0.062944039614911 -0.035699351372250 -0.017818519853036 -0.131974121258876
    5  (  5) -0.142723810302820  0.223843815575282  0.027118601805148  0.024319772507485  0.028473030325118  0.007320473128221 -0.162219590507168
    6  (  6) -0.066985417428652  0.243676295820087  0.020129412595255  0.114008117757553 -0.012475078846432  0.011235954138597 -0.233936714026432
    7  (  7) -0.672868941014685 -0.001853137913302 -0.095220928753024 -0.058128752951573 -0.061065016378153 -0.043290454975611  0.019403773763324
    8  (  8) -0.435271824292276  0.058549264636188 -0.132116126673554 -0.111201788443028 -0.084825374255376  0.018801919983999  0.051091062194768
    9  (  9)  0.039944076142899  0.175340048204601  0.139163298391214 -0.022173411262322  0.000365321888095 -0.012754391850699 -0.034548335031159
   10  ( 10) -0.303177384152415 -0.514088637801317 -0.056516981068186  0.034937349197020 -0.040321181711978 -0.017926771824833  0.053777709444729
   11  ( 11) -0.027215380476729  0.034831442978994  0.033366345417394 -0.018102489789324  0.017132946322019  0.004201375461760 -0.011999983019341
   12  ( 12) -0.308716830423553 -0.002817364559360 -0.037714334357990 -0.077607923453180 -0.025822473977855  0.002911149294168 -0.007333798880284
   13  ( 13) -0.122329491946631  0.113531951746796  0.014740539498818 -0.054034515594089  0.003705871300308 -0.002998998703392 -0.047916671590859
   14  ( 14) -0.097844812767377 -0.119315440427005  0.001431443364104  0.047036484965711 -0.015021374997423  0.001323142327005  0.021961897630371
   15  ( 15) -0.003242762704109  0.016430756973337  0.055811805977367 -0.009331793122040 -0.005823288038053 -0.019372662648516 -0.008188850747308
   16  ( 16) -0.036691573449848  0.103766648922252 -0.016680284523602 -0.061374143637529 -0.002170258576494  0.001091298232744  0.026462767426761

	File 101 DPD File2: Mu_ZBAR_AE
	Matrix for Irrep 1
	----------------------------------------

                         0                  1                  2                  3                  4                  5                  6                  7                  8     
                      (  0)              (  1)              (  2)              (  3)              (  4)              (  5)              (  6)              (  7)              (  8)    

    0  ( 17)  0.599673206543176 -0.100755441192757  0.312340768255681 -0.121534518275400 -0.089528060437864 -0.143020413139032 -0.068277166714063 -0.669216938408675 -0.432785404938978
    1  ( 18)  0.016811442400007  0.497999273160604 -0.236022158446880 -0.088934910860592  0.031152603625827  0.223517733387456  0.243792834746997 -0.002285874876718  0.057750160684800
    2  ( 19) -0.054551068563237  0.080127677031026  0.292433095703005 -0.284599762594785 -0.029521373761566  0.026960516165886  0.021943088460674 -0.096896288924773 -0.133502460318128
    3  ( 20)  0.100205439115406 -0.090570563700846  0.011641370563020 -0.049740047665382 -0.062533218432459  0.025256562784929  0.114039395783458 -0.057387983610274 -0.110139453501665
    4  ( 21) -0.179145836126787  0.095663211513444  0.278285576057703 -0.018385903862339 -0.036516237786085  0.029494908791213 -0.013231879855483 -0.061109904360347 -0.084500890845215
    5  ( 22) -0.088930020057714  0.041950389692584  0.126039600513847 -0.011275186120817 -0.017324541743031  0.005886837587159  0.011661955654605 -0.043052363762371  0.018534681787943
    6  ( 23) -0.046367109802360  0.100427766605750 -0.035408452333282  0.045412115032696 -0.131822569133552 -0.161975812725227 -0.233618389327876  0.019374625686664  0.051049671651553

                         9                 10                 11                 12                 13                 14                 15                 16     
                      (  9)              ( 10)              ( 11)              ( 12)              ( 13)              ( 14)              ( 15)              ( 16)    

    0  ( 17)  0.039213229385830 -0.301887571866627 -0.027587798967893 -0.310782234624000 -0.123514043038414 -0.097495949993217 -0.003206132237592 -0.036784223386155
    1  ( 18)  0.175508318396265 -0.512538772152929  0.034872974324102 -0.001854331475903  0.112460124761869 -0.120158561923760  0.016429219182536  0.104420815518826
    2  ( 19)  0.136546324988665 -0.058283433080560  0.033934775672107 -0.037272898076789  0.015312440224667  0.001543094727248  0.056028804958696 -0.016763238451771
    3  ( 20) -0.022587878346392  0.034658264035231 -0.018470259443721 -0.077507240375756 -0.052906329790867  0.046550007700115 -0.009331013244773 -0.060946526943983
    4  ( 21)  0.001480603013206 -0.040040927747326  0.016923073986655 -0.025750253055708  0.003770488485745 -0.014971027631637 -0.005882015048680 -0.002209269916142
    5  ( 22) -0.011991899861046 -0.017653193736255  0.004311841191711  0.002852948800123 -0.002882273323938  0.001318147382386 -0.019472990322265  0.001097397339678
    6  ( 23) -0.034687652231312  0.053755752203859 -0.011957696154920 -0.007261552125276 -0.047648650914990  0.021861283499439 -0.008169773885454  0.026609485621931

	DPD File2: Mu_ZBAR_IA
	DPD Parameters:
	------------------
	pnum = 0   qnum = 1   irrep = 1 
	Irreps = 2

	   Row and column dimensions for DPD Block:
	   ----------------------------------------
	   Irrep: 0 row =     7	col =     7
	   Irrep: 1 row =     2	col =    17

	File 101 DPD File2: Mu_ZBAR_IA
	Matrix for Irrep 0
	----------------------------------------

                         0                  1                  2                  3                  4                  5                  6     
                      ( 17)              ( 18)              ( 19)              ( 20)              ( 21)              ( 22)              ( 23)    

    0  (  0) -0.010554916755660  0.049876420573898  0.002868131496498 -0.011529104530428  0.001237149787546  0.000191586391733  0.002927833360426
    1  (  1) -0.057491848617136 -0.012072258559739 -0.003748387157604 -0.008809628945287 -0.000102120799468 -0.000222594325406 -0.009204858168159
    2  (  2) -0.092435044683543  0.095538180582261  0.006465723754299 -0.126155584644308  0.007032435063905  0.002018434039397 -0.025501099334260
    3  (  3)  0.121716623536947  0.227189413769627 -0.075531076121963  0.046623878970614  0.037795599498128 -0.017695536004527  0.080787720705450
    4  (  4) -0.098387534436570  0.051699209589096  0.306079029535803  0.095081922702049 -0.220904454633905  0.158337286753681  0.049394593539735
    5  (  5) -0.264029638921159  0.056168294123523 -0.025225503268933  0.308007962747408  0.097351706284995 -0.104944343436013  0.053238313840939
    6  (  6)  0.009713695460485  0.018659793520252 -0.355860592472697  0.095729372643216 -0.001010036289990  0.271500637316417 -0.012389694934419

	File 101 DPD File2: Mu_ZBAR_IA
	Matrix for Irrep 1
	----------------------------------------

                         0                  1                  2                  3                  4                  5                  6                  7                  8     
                      (  0)              (  1)              (  2)              (  3)              (  4)              (  5)              (  6)              (  7)              (  8)    

    0  (  7) -0.152104814879103  0.173064245419786 -0.209979889038810 -0.025241555989913  0.148773413966766  0.112503205191936 -0.000039883472166  0.318390965160833  0.278551639319078
    1  (  8) -0.132384728550872  0.009818044028793 -0.144205086396644 -0.007135571930748 -0.048549338357487 -0.096257754406137 -0.186421628046743  0.278587329658323  0.181735013184910

                         9                 10                 11                 12                 13                 14                 15                 16     
                      (  9)              ( 10)              ( 11)              ( 12)              ( 13)              ( 14)              ( 15)              ( 16)    

    0  (  7) -0.075867988470539 -0.119266353294077 -0.031937968580500 -0.219144437870362  0.125984199883425  0.108400650481090  0.002831984539889 -0.051585836604387
    1  (  8) -0.193757392752977  0.286299204080740 -0.070610252120081 -0.003035970698695 -0.271792110127987 -0.130010374797665  0.007274638250734  0.084496042983243

	Computing Mu_Z-Perturbed Wave Function (0.000 E_h).
	Iter   Pseudopolarizability       RMS 
	----   --------------------   -----------
	   0         2.479889940995
	   1         2.892986901365    1.719e-01
	   2         3.179551235748    1.097e-01
	   3         3.227327084053    5.000e-02
	   4         3.254438426792    2.873e-02
	   5         3.255064289169    4.754e-03
	   6         3.256671396496    2.117e-03
	   7         3.256666800800    2.505e-04
	   8         3.256680240919    7.992e-05
	   9         3.256683732958    1.616e-05
	  10         3.256684383302    6.243e-06
	  11         3.256685050364    1.406e-06
	  12         3.256685459106    3.646e-07
	  13         3.256685583265    1.195e-07
	-----------------------------------------
	Converged Mu_Z-Perturbed Wfn to 3.126e-08

	Computing <<Mu;Mu>_(0.000) tensor.

                 CC2 Dipole Polarizability [(e^2 a0^2)/E_h]:
  -------------------------------------------------------------------------
   Evaluated at omega = 0.000000 E_h (Inf nm, 0.000 eV,     0.00 cm-1)
  -------------------------------------------------------------------------

                   0                     1                     2        

    0      4.827201918589718    -1.312098238225716     0.000000000000000
    1     -1.312098238225716     7.705535223157471     0.000000000000000
    2      0.000000000000000     0.000000000000000     3.190144053846214

	alpha_(0.000) =       5.240960398531 a.u.

*** tstop() called on psinet at Mon May 15 15:34:40 2017
Module time:
	user time   =       0.28 seconds =       0.00 minutes
	system time =       0.26 seconds =       0.00 minutes
	total time  =          1 seconds =       0.02 minutes
Total time:
	user time   =       1.21 seconds =       0.02 minutes
	system time =       0.61 seconds =       0.01 minutes
	total time  =          2 seconds =       0.03 minutes

*** Psi4 exiting successfully. Buy a developer a beer!
