    -----------------------------------------------------------------------
          Psi4: An Open-Source Ab Initio Electronic Structure Package
                              Psi4 0.2.227 Driver

                          Git: Rev {master} 19b1749 

    J. M. Turney, A. C. Simmonett, R. M. Parrish, E. G. Hohenstein,
    F. A. Evangelista, J. T. Fermann, B. J. Mintz, L. A. Burns, J. J. Wilke,
    M. L. Abrams, N. J. Russ, M. L. Leininger, C. L. Janssen, E. T. Seidl,
    W. D. Allen, H. F. Schaefer, R. A. King, E. F. Valeev, C. D. Sherrill,
    and T. D. Crawford, WIREs Comput. Mol. Sci. 2, 556-565 (2012)
    (doi: 10.1002/wcms.93)

                         Additional Contributions by
    A. E. DePrince, M. Saitow, U. Bozkaya, A. Yu. Sokolov
    -----------------------------------------------------------------------


    Psi4 started on: Wed Jul 22 14:42:31 2015

    Process ID:  55379
    PSI4DATADIR: /Users/crawdad/src/psi4/lib
    Memory level set to 256.000 MB

  ==> Input File <==

--------------------------------------------------------------------------
#! CCSD/cc-pVDZ dipole polarizability at two frequencies

memory 250 mb

molecule hof {
          O          -0.947809457408    -0.132934425181     0.000000000000
          H          -1.513924046286     1.610489987673     0.000000000000
          F           0.878279174340     0.026485523618     0.000000000000
unit bohr
noreorient
}

set {
    basis cc-pVDZ
    omega = [0.05, 0.1, au]
}

property('ccsd', properties=['polarizability'])
--------------------------------------------------------------------------

  Memory set to 250.000 MiB by Python script.

*** tstart() called on ganymede.local
*** at Wed Jul 22 14:42:31 2015

    There are an even number of electrons - assuming singlet.
    Specify the multiplicity with the MULTP option in the
    input if this is incorrect


         ---------------------------------------------------------
                                   SCF
            by Justin Turney, Rob Parrish, and Andy Simmonett
                              RHF Reference
                        1 Threads,    250 MiB Core
         ---------------------------------------------------------

  ==> Geometry <==

    Molecular point group: cs
    Full point group: Cs

    Geometry (in Bohr), charge = 0, multiplicity = 1:

       Center              X                  Y                   Z       
    ------------   -----------------  -----------------  -----------------
           O         -0.947809457408    -0.132934425181     0.000000000000
           H         -1.513924046286     1.610489987673     0.000000000000
           F          0.878279174340     0.026485523618     0.000000000000

  Running in cs symmetry.

  Rotational constants: A =     20.68749  B =      1.92124  C =      1.75798 [cm^-1]
  Rotational constants: A = 620195.40405  B =  57597.45554  C =  52702.94118 [MHz]
  Nuclear repulsion =   46.780362058359806

  Charge       = 0
  Multiplicity = 1
  Electrons    = 18
  Nalpha       = 9
  Nbeta        = 9

  ==> Algorithm <==

  SCF Algorithm Type is PK.
  DIIS enabled.
  MOM disabled.
  Fractional occupation disabled.
  Guess Type is CORE.
  Energy threshold   = 1.00e-10
  Density threshold  = 1.00e-10
  Integral threshold = 0.00e+00

  ==> Primary Basis <==

  Basis Set: CC-PVDZ
    Number of shells: 15
    Number of basis function: 33
    Number of Cartesian functions: 35
    Spherical Harmonics?: true
    Max angular momentum: 2

  ==> Pre-Iterations <==

   -------------------------------------------------------
    Irrep   Nso     Nmo     Nalpha   Nbeta   Ndocc  Nsocc
   -------------------------------------------------------
     A'        24      24       0       0       0       0
     A"         9       9       0       0       0       0
   -------------------------------------------------------
    Total      33      33       9       9       9       0
   -------------------------------------------------------

  Starting with a DF guess...

 OEINTS: Overlap, kinetic, potential, dipole, and quadrupole integrals
         stored in file 35.

  ==> Integral Setup <==

  ==> DFJK: Density-Fitted J/K Matrices <==

    J tasked:                  Yes
    K tasked:                  Yes
    wK tasked:                  No
    OpenMP threads:              1
    Integrals threads:           1
    Memory (MB):               178
    Algorithm:                Core
    Integral Cache:           NONE
    Schwarz Cutoff:          1E-12
    Fitting Condition:       1E-12

   => Auxiliary Basis Set <=

  Basis Set: 
    Number of shells: 57
    Number of basis function: 163
    Number of Cartesian functions: 187
    Spherical Harmonics?: true
    Max angular momentum: 3

  Minimum eigenvalue in the overlap matrix is 1.1480368199E-02.
  Using Symmetric Orthogonalization.
  SCF Guess: Core (One-Electron) Hamiltonian.

  ==> Iterations <==

                           Total Energy        Delta E     RMS |[F,P]|

    Occupation by irrep:
             Ap   App 
    DOCC [     8,    1 ]

   @DF-RHF iter   1:  -159.89414832879714   -1.59894e+02   1.86414e-01 
    Occupation by irrep:
             Ap   App 
    DOCC [     7,    2 ]

   @DF-RHF iter   2:  -161.86884450291890   -1.97470e+00   1.86582e-01 DIIS
   @DF-RHF iter   3:  -174.13789140539765   -1.22690e+01   3.35841e-02 DIIS
   @DF-RHF iter   4:  -174.39616419515050   -2.58273e-01   7.21357e-03 DIIS
   @DF-RHF iter   5:  -174.41458492621936   -1.84207e-02   2.83407e-03 DIIS
   @DF-RHF iter   6:  -174.41741190823336   -2.82698e-03   1.01841e-03 DIIS
   @DF-RHF iter   7:  -174.41794580478350   -5.33897e-04   2.86000e-04 DIIS
   @DF-RHF iter   8:  -174.41800001698181   -5.42122e-05   3.69792e-05 DIIS
   @DF-RHF iter   9:  -174.41800140160001   -1.38462e-06   9.03115e-06 DIIS
   @DF-RHF iter  10:  -174.41800148219102   -8.05910e-08   1.67489e-06 DIIS
   @DF-RHF iter  11:  -174.41800148317054   -9.79526e-10   4.36072e-07 DIIS
   @DF-RHF iter  12:  -174.41800148321624   -4.57021e-11   5.43303e-08 DIIS
   @DF-RHF iter  13:  -174.41800148321786   -1.62004e-12   8.24454e-09 DIIS
   @DF-RHF iter  14:  -174.41800148321792   -5.68434e-14   1.02532e-09 DIIS
   @DF-RHF iter  15:  -174.41800148321778    1.42109e-13   2.15430e-10 DIIS
   @DF-RHF iter  16:  -174.41800148321795   -1.70530e-13   3.98265e-11 DIIS

  DF guess converged.

  ==> Integral Setup <==

 MINTS: Wrapper to libmints.
   by Justin Turney

   Calculation information:
      Number of atoms:                   3
      Number of AO shells:              15
      Number of SO shells:              15
      Number of primitives:             49
      Number of atomic orbitals:        35
      Number of basis functions:        33

      Number of irreps:                  2
      Integral cutoff                 0.00e+00
      Number of functions per irrep: [  24    9 ]

 OEINTS: Overlap, kinetic, potential, dipole, and quadrupole integrals
         stored in file 35.

      Computing two-electron integrals...done
      Computed 79879 non-zero two-electron integrals.
        Stored in file 33.

	Batch   1 pq = [       0,     345] index = [             0,59685]
  ==> DiskJK: Disk-Based J/K Matrices <==

    J tasked:                  Yes
    K tasked:                  Yes
    wK tasked:                  No
    Memory (MB):               178
    Schwarz Cutoff:          1E-12

   @RHF iter  17:  -174.41843268281738   -4.31200e-04   4.21425e-05 DIIS
   @RHF iter  18:  -174.41843298519137   -3.02374e-07   8.66392e-06 DIIS
   @RHF iter  19:  -174.41843299965586   -1.44645e-08   2.92962e-06 DIIS
   @RHF iter  20:  -174.41843300152433   -1.86847e-09   5.69876e-07 DIIS
   @RHF iter  21:  -174.41843300161963   -9.52980e-11   8.70665e-08 DIIS
   @RHF iter  22:  -174.41843300162421   -4.57590e-12   2.26317e-08 DIIS
   @RHF iter  23:  -174.41843300162452   -3.12639e-13   9.68029e-09 DIIS
   @RHF iter  24:  -174.41843300162466   -1.42109e-13   2.00880e-09 DIIS
   @RHF iter  25:  -174.41843300162461    5.68434e-14   3.93663e-10 DIIS
   @RHF iter  26:  -174.41843300162466   -5.68434e-14   8.53537e-11 DIIS

  ==> Post-Iterations <==

    Orbital Energies (a.u.)
    -----------------------

    Doubly Occupied:                                                      

       1Ap   -26.330356     2Ap   -20.627725     3Ap    -2.082395  
       4Ap    -1.191294     5Ap    -0.971697     1App   -0.924953  
       6Ap    -0.850985     7Ap    -0.460395     2App   -0.380150  

    Virtual:                                                              

       8Ap     0.192183     9Ap     0.648601    10Ap     0.823611  
       3App    1.119958    11Ap     1.143363    12Ap     1.228844  
      13Ap     1.367723    14Ap     1.461132     4App    1.471205  
       5App    1.535571    15Ap     1.667967    16Ap     1.769476  
      17Ap     2.310638    18Ap     2.700605     6App    2.776264  
      19Ap     3.034541     7App    3.108650    20Ap     3.654401  
      21Ap     3.975079     8App    4.008294    22Ap     4.151683  
       9App    4.827587    23Ap     4.882340    24Ap     5.266361  

    Final Occupation by Irrep:
             Ap   App 
    DOCC [     7,    2 ]

  Energy converged.

  @RHF Final Energy:  -174.41843300162466

   => Energetics <=

    Nuclear Repulsion Energy =             46.7803620583598061
    One-Electron Energy =                -334.7576923191949163
    Two-Electron Energy =                 113.5588972592104398
    DFT Exchange-Correlation Energy =       0.0000000000000000
    Empirical Dispersion Energy =           0.0000000000000000
    PCM Polarization Energy =               0.0000000000000000
    EFP Energy =                            0.0000000000000000
    Total Energy =                       -174.4184330016246918

    Alert: EFP and PCM quantities not currently incorporated into SCF psivars.

Properties will be evaluated at   0.000000,   0.000000,   0.000000 Bohr
  ==> Properties <==


Properties computed using the SCF density matrix

  Nuclear Dipole Moment: (a.u.)
     X:    -1.1919      Y:     0.7854      Z:     0.0000

  Electronic Dipole Moment: (a.u.)
     X:     1.1188      Y:    -0.1743      Z:     0.0000

  Dipole Moment: (a.u.)
     X:    -0.0731      Y:     0.6110      Z:     0.0000     Total:     0.6154

  Dipole Moment: (Debye)
     X:    -0.1857      Y:     1.5531      Z:     0.0000     Total:     1.5642


  Saving occupied orbitals to File 180.

*** tstop() called on ganymede.local at Wed Jul 22 14:42:33 2015
Module time:
	user time   =       0.84 seconds =       0.01 minutes
	system time =       0.04 seconds =       0.00 minutes
	total time  =          2 seconds =       0.03 minutes
Total time:
	user time   =       0.84 seconds =       0.01 minutes
	system time =       0.04 seconds =       0.00 minutes
	total time  =          2 seconds =       0.03 minutes

*** tstart() called on ganymede.local
*** at Wed Jul 22 14:42:33 2015


	**************************************************
	* TRANSQT2: Program to transform integrals from  *
	*           the SO basis to the MO basis.        *
	*                                                *
	*            Daniel, David, & Justin             *
	**************************************************


	Input parameters:
	-----------------
	Wave function   =	CCSD
	Backtransform   =	No
	Print Level     =	1
	Print TEIs      =	No
	Reference wfn   =	RHF
	Derivative      =	None
	Delete TEI File =	Yes
	Memory (Mbytes) =	250.0
	Cache Level     =	2
	Cache Type      =	LRU
	Chkpt Parameters:
	--------------------
	Number of irreps     = 2
	Number of SOs        = 33
	Number of MOs        = 33
	Number of active MOs = 33

	Label	# SOs	# FZDC	# DOCC	# SOCC	# VIRT	# FZVR
	-----	-----	------	------	------	------	------
	 Ap	   24	    0	    7	    0	    17	    0
	 App	   9	    0	    2	    0	    7	    0

	Nuclear Rep. energy (chkpt) =     46.78036205835981
	SCF energy          (chkpt) =   -174.41843300162466

	Presorting SO-basis two-electron integrals.
	Sorting File: SO Ints (pq,rs) nbuckets = 1
	Frozen-core energy =    0.000000000000000
	Starting first half-transformation.
	Sorting half-transformed integrals.
	Starting second half-transformation.
	Two-electron integral transformation complete.

*** tstop() called on ganymede.local at Wed Jul 22 14:42:34 2015
Module time:
	user time   =       0.05 seconds =       0.00 minutes
	system time =       0.03 seconds =       0.00 minutes
	total time  =          1 seconds =       0.02 minutes
Total time:
	user time   =       0.90 seconds =       0.02 minutes
	system time =       0.07 seconds =       0.00 minutes
	total time  =          3 seconds =       0.05 minutes

*** tstart() called on ganymede.local
*** at Wed Jul 22 14:42:34 2015


			**************************
			*                        *
			*         CCSORT         *
			*                        *
			**************************


	Input parameters:
	-----------------
	Wave function   =	CCSD
	Reference wfn   =	RHF
	Derivative      =	None
	Memory (Mbytes) =	250.0
	AO Basis        =	NONE
	Make (ab|cd)    =	True
	Make unpacked (ab|cd) =	False
	Cache Level     =	2
	Cache Type      =	LRU
	Local CC        =     No


	Chkpt Parameters:
	--------------------
	Number of irreps     = 2
	Number of MOs        = 33
	Number of active MOs = 33

	Label	# MOs	# FZDC	# DOCC	# SOCC	# VIRT	# FZVR
	-----	-----	------	------	------	------	------
	 Ap	   24	    0	    7	    0	    17	    0
	 App	   9	    0	    2	    0	    7	    0

	Nuclear Rep. energy (chkpt) =     46.78036205835981
	SCF energy          (chkpt) =   -174.41843300162466

	Size of irrep 0 of <ab|cd> integrals:      0.114 (MW) /      0.914 (MB)
	Size of irrep 1 of <ab|cd> integrals:      0.057 (MW) /      0.453 (MB)
	Total:                                     0.171 (MW) /      1.367 (MB)

	Size of irrep 0 of <ia|bc> integrals:      0.045 (MW) /      0.360 (MB)
	Size of irrep 1 of <ia|bc> integrals:      0.020 (MW) /      0.158 (MB)
	Total:                                     0.065 (MW) /      0.518 (MB)

	Size of irrep 0 of tijab amplitudes:       0.018 (MW) /      0.143 (MB)
	Size of irrep 1 of tijab amplitudes:       0.007 (MW) /      0.053 (MB)
	Total:                                     0.025 (MW) /      0.197 (MB)


	Sorting File: A <ij|kl> nbuckets = 1
	Sorting File: B(+) <ab|cd> nbuckets = 1
	Sorting File: C <ia|jb> nbuckets = 1
	Sorting File: D <ij|ab> nbuckets = 1
	Sorting File: E <ai|jk> nbuckets = 1
	Sorting File: F <ia|bc> nbuckets = 1
	Nuclear energy               =     46.78036205835981
	One-electron energy          =   -334.75769231720489
	Two-electron (AA) energy     =     47.26858977392498
	Two-electron (BB) energy     =     47.26858977392498
	Two-electron (AB) energy     =     66.29030748329538
	Two-electron energy          =    113.55889725722037
	Frozen-core energy (transqt) =      0.00000000000000
	Reference energy             =   -174.41843300162472

*** tstop() called on ganymede.local at Wed Jul 22 14:42:38 2015
Module time:
	user time   =       0.07 seconds =       0.00 minutes
	system time =       0.07 seconds =       0.00 minutes
	total time  =          4 seconds =       0.07 minutes
Total time:
	user time   =       0.97 seconds =       0.02 minutes
	system time =       0.14 seconds =       0.00 minutes
	total time  =          7 seconds =       0.12 minutes

*** tstart() called on ganymede.local
*** at Wed Jul 22 14:42:38 2015

			**************************
			*                        *
			*        CCENERGY        *
			*                        *
			**************************

	Nuclear Rep. energy (chkpt)   =   46.780362058359806
	SCF energy          (chkpt)   = -174.418433001624663
	Reference energy    (file100) = -174.418433001624720

	Input parameters:
	-----------------
	Wave function   =     CCSD
	Reference wfn   =     RHF
	Brueckner       =     No
	Memory (Mbytes) =     250.0
	Maxiter         =     50
	R_Convergence   =     1.0e-07
	E_Convergence   =     1.0e-08
	Restart         =     Yes
	DIIS            =     Yes
	AO Basis        =     NONE
	ABCD            =     NEW
	Cache Level     =     2
	Cache Type      =     LOW
	Print Level     =     1
	Num. of threads =     1
	# Amps to Print =     10
	Print MP2 Amps? =     No
	Analyze T2 Amps =     No
	Print Pair Ener =     No
	Local CC        =     No
	SCS-MP2         =     False
	SCSN-MP2        =     False
	SCS-CCSD        =     False

	            Solving CC Amplitude Equations
	            ------------------------------
  Iter             Energy              RMS        T1Diag      D1Diag    New D1Diag    D2Diag
  ----     ---------------------    ---------   ----------  ----------  ----------   --------
     0        -0.356636240717491    0.000e+00    0.000000    0.000000    0.000000    0.109615
     1        -0.362752063083724    3.144e-02    0.004275    0.011894    0.011894    0.119295
     2        -0.368196197125458    1.020e-02    0.004675    0.013297    0.013297    0.125545
     3        -0.368909989026185    3.691e-03    0.005274    0.015965    0.015965    0.127551
     4        -0.368843223239159    1.064e-03    0.005417    0.016790    0.016790    0.128058
     5        -0.368847102115696    5.172e-04    0.005511    0.017384    0.017384    0.128207
     6        -0.368845295142958    1.896e-04    0.005559    0.017671    0.017671    0.128212
     7        -0.368842607488941    4.221e-05    0.005566    0.017712    0.017712    0.128200
     8        -0.368842991721711    9.726e-06    0.005568    0.017722    0.017722    0.128199
     9        -0.368843083946547    1.805e-06    0.005568    0.017722    0.017722    0.128199
    10        -0.368843084623923    4.602e-07    0.005568    0.017723    0.017723    0.128198
    11        -0.368843099026055    1.246e-07    0.005568    0.017723    0.017723    0.128198
    12        -0.368843101802470    3.400e-08    0.005568    0.017723    0.017723    0.128198
    13        -0.368843102632047    8.788e-09    0.005568    0.017723    0.017723    0.128198

	Iterations converged.


	Largest TIA Amplitudes:
	          6   0         0.0137313966
	          6   2        -0.0064752639
	          7  17        -0.0058546059
	          5   0        -0.0054830979
	          6   9         0.0050129178
	          3   1         0.0049539841
	          8  17        -0.0043004443
	          6   1        -0.0041980390
	          4   9        -0.0039633123
	          7  18         0.0038967922

	Largest TIjAb Amplitudes:
	  8   8  17  17        -0.0347803136
	  6   6   2   2        -0.0346572612
	  6   6   0   0        -0.0242680488
	  6   6   0   2         0.0221026068
	  6   6   2   0         0.0221026068
	  8   8  18  18        -0.0216499642
	  7   7  18  18        -0.0211241947
	  7   8  17  17        -0.0203462181
	  8   7  17  17        -0.0203462181
	  7   8  18  18         0.0189838363

	SCF energy       (chkpt)              = -174.418433001624663
	Reference energy (file100)            = -174.418433001624720

	Opposite-spin MP2 correlation energy  =   -0.260477904530766
	Same-spin MP2 correlation energy      =   -0.096158336186725
	MP2 correlation energy                =   -0.356636240717491
      * MP2 total energy                      = -174.775069242342198

	Opposite-spin CCSD correlation energy =   -0.280899925278620
	Same-spin CCSD correlation energy     =   -0.087943177357641
	CCSD correlation energy               =   -0.368843102632047
      * CCSD total energy                     = -174.787276104256762


*** tstop() called on ganymede.local at Wed Jul 22 14:43:16 2015
Module time:
	user time   =       0.72 seconds =       0.01 minutes
	system time =       0.51 seconds =       0.01 minutes
	total time  =         38 seconds =       0.63 minutes
Total time:
	user time   =       1.73 seconds =       0.03 minutes
	system time =       0.65 seconds =       0.01 minutes
	total time  =         45 seconds =       0.75 minutes

*** tstart() called on ganymede.local
*** at Wed Jul 22 14:43:16 2015


			**************************
			*                        *
			*         CCHBAR         *
			*                        *
			**************************


*** tstop() called on ganymede.local at Wed Jul 22 14:43:19 2015
Module time:
	user time   =       0.07 seconds =       0.00 minutes
	system time =       0.06 seconds =       0.00 minutes
	total time  =          3 seconds =       0.05 minutes
Total time:
	user time   =       1.80 seconds =       0.03 minutes
	system time =       0.71 seconds =       0.01 minutes
	total time  =         48 seconds =       0.80 minutes

*** tstart() called on ganymede.local
*** at Wed Jul 22 14:43:19 2015


			**************************
			*        CCLAMBDA        *
			**************************


	Nuclear Rep. energy (chkpt)   =   46.780362058359806
	Reference           (chkpt)   = 0
	SCF energy          (chkpt)   = -174.787276104256762
	Reference energy    (CC_INFO) = -174.418433001624720
	CCSD energy         (CC_INFO) =   -0.368843102632047
	Total CCSD energy   (CC_INFO) = -174.787276104256762

	Input parameters:
	-----------------
	Maxiter       =      50
	Convergence   = 1.0e-07
	Restart       =     No
	Cache Level   =     2
	Model III     =     No
	DIIS          =     Yes
	AO Basis      =     No
	ABCD            =     NEW
	Local CC        =     No
	Paramaters for left-handed eigenvectors:
	    Irr   Root  Ground-State?    EOM energy        R0
	  1   0     0        Yes       0.0000000000   1.0000000000
	Labels for eigenvector 1:
	LIA 0 -1, Lia 0 -1, LIJAB 0 -1, Lijab 0 -1, LIjAb 0 -1, 2LIjAb - LIjbA 0 -1
	Deleting old CC_LAMBDA data.
	Symmetry of left-hand state: Ap
	Symmetry of left-hand eigenvector: Ap

	          Solving Lambda Equations
	          ------------------------
	Iter     PseudoEnergy or Norm         RMS  
	----     ---------------------     --------
	   0        -0.368917658538275    0.000e+00
	   1        -0.364932522974446    1.124e-02
	   2        -0.364255665895154    1.639e-03
	   3        -0.364135867442077    9.744e-04
	   4        -0.364111552220203    4.261e-04
	   5        -0.364122022063646    1.761e-04
	   6        -0.364124905762903    4.164e-05
	   7        -0.364124461331381    9.123e-06
	   8        -0.364124452934735    1.977e-06
	   9        -0.364124473939456    5.096e-07
	  10        -0.364124471207294    1.305e-07
	  11        -0.364124470169413    3.649e-08

	Largest LIA Amplitudes:
	          6   0         0.0088889522
	          6   9         0.0046230270
	          6   2        -0.0043558317
	          7  17        -0.0037331041
	          3   1         0.0037156073
	          4   9        -0.0037153618
	          5   0        -0.0036782947
	          6   1        -0.0029821783
	          4   2        -0.0027873898
	          3  10         0.0027698857

	Largest LIjAb Amplitudes:
	  8   8  17  17        -0.0343768543
	  6   6   2   2        -0.0334418934
	  6   6   0   0        -0.0231204890
	  8   8  18  18        -0.0214011799
	  6   6   0   2         0.0212279748
	  6   6   2   0         0.0212279748
	  7   7  18  18        -0.0210288529
	  7   8  17  17        -0.0202007798
	  8   7  17  17        -0.0202007798
	  7   8  18  18         0.0188264243

	Iterations converged.

	Overlap <L|e^T> =        0.92327310270

*** tstop() called on ganymede.local at Wed Jul 22 14:43:23 2015
Module time:
	user time   =       0.32 seconds =       0.01 minutes
	system time =       0.12 seconds =       0.00 minutes
	total time  =          4 seconds =       0.07 minutes
Total time:
	user time   =       2.16 seconds =       0.04 minutes
	system time =       0.83 seconds =       0.01 minutes
	total time  =         52 seconds =       0.87 minutes

*** tstart() called on ganymede.local
*** at Wed Jul 22 14:43:23 2015

			**************************
			*                        *
			*       ccresponse       *
			*                        *
			**************************

	Input parameters:
	-----------------
	Property         =    POLARIZABILITY
	Reference wfn    =      RHF
	Memory (Mbytes)  =  250.0
	Cache Level      =    0
	Print Level      =    1
	Maxiter          =     50
	Convergence      = 1.0e-07
	Restart          =     Allowed
	DIIS             =     Yes
	Model III        =     No
	Linear Model     =     No
	ABCD             =     NEW
	Irrep X          =     Ap
	Irrep Y          =     Ap
	Irrep Z          =    App
	Irrep RX         =    App
	Irrep RY         =    App
	Irrep RZ         =     Ap
	Gauge            =    LENGTH
	Applied field  0 =    0.050 E_h (911.27 nm, 1.361 eV, 10973.73 cm-1)
	Applied field  1 =    0.100 E_h (455.63 nm, 2.721 eV, 21947.46 cm-1)
	Analyze X2 Amps  =    No
	Local CC         =    No


	Computing Mu_X-Perturbed Wave Function (0.050 E_h).
	Iter   Pseudopolarizability       RMS 
	----   --------------------   -----------
	   0         4.102741773153
	   1         5.169883414412    2.839e-01
	   2         6.160877929521    1.719e-01
	   3         6.223230709217    5.812e-02
	   4         6.272628645831    3.365e-02
	   5         6.278541548864    5.661e-03
	   6         6.276858687356    1.660e-03
	   7         6.276945195186    4.790e-04
	   8         6.276905269474    1.161e-04
	   9         6.276885922085    2.881e-05
	  10         6.276887740544    7.093e-06
	  11         6.276891094144    1.786e-06
	  12         6.276892434819    3.933e-07
	-----------------------------------------
	Converged Mu_X-Perturbed Wfn to 9.435e-08

	Computing Mu_X-Perturbed Wave Function (-0.050 E_h).
	Iter   Pseudopolarizability       RMS 
	----   --------------------   -----------
	   0         3.859955292481
	   1         4.792972771302    2.394e-01
	   2         5.543286037739    1.288e-01
	   3         5.564274975306    3.367e-02
	   4         5.579487458672    1.800e-02
	   5         5.581833627600    2.837e-03
	   6         5.581097662516    7.784e-04
	   7         5.581122096718    1.972e-04
	   8         5.581111105863    4.625e-05
	   9         5.581102554243    1.172e-05
	  10         5.581103514606    2.765e-06
	  11         5.581104744714    6.203e-07
	  12         5.581105202039    1.294e-07
	-----------------------------------------
	Converged Mu_X-Perturbed Wfn to 2.905e-08

	Computing Mu_Y-Perturbed Wave Function (0.050 E_h).
	Iter   Pseudopolarizability       RMS 
	----   --------------------   -----------
	   0         4.359153181555
	   1         5.598361276393    3.880e-01
	   2         7.210172471863    2.546e-01
	   3         7.288570373124    6.955e-02
	   4         7.375149841308    3.606e-02
	   5         7.384721993208    5.193e-03
	   6         7.384223700432    1.466e-03
	   7         7.384480366371    2.971e-04
	   8         7.384507841248    6.671e-05
	   9         7.384497268601    1.959e-05
	  10         7.384499641158    6.135e-06
	  11         7.384503261149    1.864e-06
	  12         7.384505013856    4.256e-07
	-----------------------------------------
	Converged Mu_Y-Perturbed Wfn to 8.019e-08

	Computing Mu_Y-Perturbed Wave Function (-0.050 E_h).
	Iter   Pseudopolarizability       RMS 
	----   --------------------   -----------
	   0         4.036471650629
	   1         5.067027156339    3.128e-01
	   2         6.144597753216    1.828e-01
	   3         6.161141933579    3.976e-02
	   4         6.188160915607    1.914e-02
	   5         6.191772783975    2.638e-03
	   6         6.191582029235    7.170e-04
	   7         6.191669628048    1.346e-04
	   8         6.191679667093    2.789e-05
	   9         6.191675445450    7.395e-06
	  10         6.191676121327    2.148e-06
	  11         6.191677130291    6.026e-07
	  12         6.191677612076    1.338e-07
	-----------------------------------------
	Converged Mu_Y-Perturbed Wfn to 2.408e-08

	Computing Mu_Z-Perturbed Wave Function (0.050 E_h).
	Iter   Pseudopolarizability       RMS 
	----   --------------------   -----------
	   0         2.430648845080
	   1         2.910766986610    1.864e-01
	   2         3.294611227933    1.238e-01
	   3         3.368260906331    6.734e-02
	   4         3.423879613915    3.077e-02
	   5         3.424926249780    8.248e-03
	   6         3.427469018549    2.201e-03
	   7         3.427520606148    4.848e-04
	   8         3.427494925928    1.290e-04
	   9         3.427510568749    3.374e-05
	  10         3.427513194855    1.209e-05
	  11         3.427511658554    3.141e-06
	  12         3.427510378049    9.024e-07
	  13         3.427510388401    2.093e-07
	-----------------------------------------
	Converged Mu_Z-Perturbed Wfn to 5.389e-08

	Computing Mu_Z-Perturbed Wave Function (-0.050 E_h).
	Iter   Pseudopolarizability       RMS 
	----   --------------------   -----------
	   0         2.319515965168
	   1         2.745304657071    1.539e-01
	   2         3.034510153657    8.730e-02
	   3         3.051803953347    3.527e-02
	   4         3.065551691350    1.340e-02
	   5         3.065056389059    3.294e-03
	   6         3.065551022826    8.083e-04
	   7         3.065578753613    1.694e-04
	   8         3.065568800483    4.034e-05
	   9         3.065572210287    8.828e-06
	  10         3.065572939497    2.796e-06
	  11         3.065572838589    7.295e-07
	  12         3.065572627662    2.091e-07
	-----------------------------------------
	Converged Mu_Z-Perturbed Wfn to 4.685e-08

	Computing <<Mu;Mu>_(0.050) tensor.

                 CCSD Dipole Polarizability [(e^2 a0^2)/E_h]:
  -------------------------------------------------------------------------
   Evaluated at omega = 0.050000 E_h (911.27 nm, 1.361 eV, 10973.73 cm-1)
  -------------------------------------------------------------------------

                   0                     1                     2        

    0      5.757358056480316    -1.826687618550845     0.000000000000000
    1     -1.826957718377353     6.559981851290433     0.000000000000000
    2      0.000000000000000     0.000000000000000     3.189441989970204

	alpha_(0.050) =       5.168927299247 a.u.

	Computing Mu_X-Perturbed Wave Function (0.100 E_h).
	Iter   Pseudopolarizability       RMS 
	----   --------------------   -----------
	   0         4.239364339570
	   1         5.388323870918    3.132e-01
	   2         6.544443484126    2.031e-01
	   3         6.658705488211    8.002e-02
	   4         6.756016481697    4.857e-02
	   5         6.766956894948    8.604e-03
	   6         6.764283000001    2.620e-03
	   7         6.764477663952    8.068e-04
	   8         6.764392636651    1.967e-04
	   9         6.764363245782    4.842e-05
	  10         6.764365175737    1.235e-05
	  11         6.764371047341    3.317e-06
	  12         6.764373531150    7.462e-07
	  13         6.764373727539    1.871e-07
	-----------------------------------------
	Converged Mu_X-Perturbed Wfn to 6.361e-08

	Computing Mu_X-Perturbed Wave Function (-0.100 E_h).
	Iter   Pseudopolarizability       RMS 
	----   --------------------   -----------
	   0         3.751195553147
	   1         4.628361478068    2.221e-01
	   2         5.290727003486    1.134e-01
	   3         5.303446451030    2.659e-02
	   4         5.312382169361    1.370e-02
	   5         5.314004524971    2.112e-03
	   6         5.313496243201    5.636e-04
	   7         5.313511120189    1.342e-04
	   8         5.313504916038    3.063e-05
	   9         5.313499098935    7.817e-06
	  10         5.313499751368    1.828e-06
	  11         5.313500531978    3.909e-07
	-----------------------------------------
	Converged Mu_X-Perturbed Wfn to 7.900e-08

	Computing Mu_Y-Perturbed Wave Function (0.100 E_h).
	Iter   Pseudopolarizability       RMS 
	----   --------------------   -----------
	   0         4.547271305821
	   1         5.921487014364    4.387e-01
	   2         7.955606265453    3.071e-01
	   3         8.127348909516    9.742e-02
	   4         8.298354887299    5.266e-02
	   5         8.316124580700    7.806e-03
	   6         8.315308328139    2.241e-03
	   7         8.315808529908    4.746e-04
	   8         8.315859916195    1.114e-04
	   9         8.315842342918    3.446e-05
	  10         8.315847467449    1.119e-05
	  11         8.315855046052    3.554e-06
	  12         8.315858769618    8.295e-07
	  13         8.315858974401    1.631e-07
	-----------------------------------------
	Converged Mu_Y-Perturbed Wfn to 6.204e-08

	Computing Mu_Y-Perturbed Wave Function (-0.100 E_h).
	Iter   Pseudopolarizability       RMS 
	----   --------------------   -----------
	   0         3.896429224131
	   1         4.844812997521    2.843e-01
	   2         5.749499428171    1.576e-01
	   3         5.756135672984    3.131e-02
	   4         5.772161870860    1.456e-02
	   5         5.774571630340    1.971e-03
	   6         5.774450239695    5.252e-04
	   7         5.774506046016    9.531e-05
	   8         5.774512625621    1.907e-05
	   9         5.774509835506    4.813e-06
	  10         5.774510230487    1.343e-06
	  11         5.774510803736    3.624e-07
	-----------------------------------------
	Converged Mu_Y-Perturbed Wfn to 7.982e-08

	Computing Mu_Z-Perturbed Wave Function (0.100 E_h).
	Iter   Pseudopolarizability       RMS 
	----   --------------------   -----------
	   0         2.491952408412
	   1         3.005265093420    2.089e-01
	   2         3.447580410857    1.520e-01
	   3         3.607570766821    9.857e-02
	   4         3.749752690625    5.306e-02
	   5         3.762047684448    1.567e-02
	   6         3.770518179955    4.401e-03
	   7         3.770564047941    9.843e-04
	   8         3.770526585932    2.817e-04
	   9         3.770570734301    8.164e-05
	  10         3.770575573502    3.073e-05
	  11         3.770569488260    7.811e-06
	  12         3.770565491656    2.258e-06
	  13         3.770565693152    5.334e-07
	  14         3.770566045715    1.429e-07
	-----------------------------------------
	Converged Mu_Z-Perturbed Wfn to 3.454e-08

	Computing Mu_Z-Perturbed Wave Function (-0.100 E_h).
	Iter   Pseudopolarizability       RMS 
	----   --------------------   -----------
	   0         2.268748028487
	   1         2.671832391759    1.418e-01
	   2         2.926184077278    7.510e-02
	   3         2.934537174922    2.669e-02
	   4         2.942376988697    9.551e-03
	   5         2.941962075448    2.279e-03
	   6         2.942227123744    5.402e-04
	   7         2.942246445212    1.104e-04
	   8         2.942239953057    2.513e-05
	   9         2.942241780342    5.113e-06
	  10         2.942242191901    1.513e-06
	  11         2.942242185616    3.874e-07
	  12         2.942242088958    1.103e-07
	-----------------------------------------
	Converged Mu_Z-Perturbed Wfn to 2.463e-08

	Computing <<Mu;Mu>_(0.100) tensor.

                 CCSD Dipole Polarizability [(e^2 a0^2)/E_h]:
  -------------------------------------------------------------------------
   Evaluated at omega = 0.100000 E_h (455.63 nm, 2.721 eV, 21947.46 cm-1)
  -------------------------------------------------------------------------

                   0                     1                     2        

    0      5.861609112338797    -1.962553012361366     0.000000000000000
    1     -1.963176964582653     6.804320803411580     0.000000000000000
    2      0.000000000000000     0.000000000000000     3.296071341221039

	alpha_(0.100) =       5.320667085657 a.u.

	-------------------------------
	      CCSD Polarizability
	-------------------------------
	    Omega          alpha
	 E_h      nm        a.u.        
	-----   ------ ----------------
	0.050   911.27         5.16893
	0.100   455.63         5.32067

*** tstop() called on ganymede.local at Wed Jul 22 14:43:53 2015
Module time:
	user time   =       5.84 seconds =       0.10 minutes
	system time =       2.43 seconds =       0.04 minutes
	total time  =         30 seconds =       0.50 minutes
Total time:
	user time   =       8.00 seconds =       0.13 minutes
	system time =       3.26 seconds =       0.05 minutes
	total time  =         82 seconds =       1.37 minutes

*** PSI4 exiting successfully. Buy a developer a beer!
