
    -----------------------------------------------------------------------
          Psi4: An Open-Source Ab Initio Electronic Structure Package
                               Psi4 1.1rc3.dev5 

                         Git: Rev {master} 3fbd859 


    R. M. Parrish, L. A. Burns, D. G. A. Smith, A. C. Simmonett,
    A. E. DePrince III, E. G. Hohenstein, U. Bozkaya, A. Yu. Sokolov,
    R. Di Remigio, R. M. Richard, J. F. Gonthier, A. M. James,
    H. R. McAlexander, A. Kumar, M. Saitow, X. Wang, B. P. Pritchard,
    P. Verma, H. F. Schaefer III, K. Patkowski, R. A. King, E. F. Valeev,
    F. A. Evangelista, J. M. Turney, T. D. Crawford, and C. D. Sherrill,
    J. Chem. Theory Comput. in press (2017).
    (doi: 10.1021/acs.jctc.7b00174)

    -----------------------------------------------------------------------


    Psi4 started on: Monday, 15 May 2017 03:34PM

    Process ID:  12766
    PSIDATADIR: /home/psilocaluser/gits/hrw-direct/objdir4/stage/usr/local/psi4/share/psi4
    Memory:     500.0 MiB
    Threads:    1
    
  ==> Input File <==

--------------------------------------------------------------------------
#! RHF-CCSD/cc-pVDZ energy of H2O partitioned into pair energy contributions.

molecule h2o {
  0 1
  O
  H 1 0.957119
  H 1 0.957119 2 104.225
}

set {
  basis "cc-pVDZ"
  freeze_core true
  pair_energies_print true
  spinadapt_energies true
}

energy('ccsd')
--------------------------------------------------------------------------

*** tstart() called on psinet
*** at Mon May 15 15:34:36 2017

   => Loading Basis Set <=

    Name: CC-PVDZ
    Role: ORBITAL
    Keyword: BASIS
    atoms 1   entry O          line   190 file /home/psilocaluser/gits/hrw-direct/objdir4/stage/usr/local/psi4/share/psi4/basis/cc-pvdz.gbs 
    atoms 2-3 entry H          line    20 file /home/psilocaluser/gits/hrw-direct/objdir4/stage/usr/local/psi4/share/psi4/basis/cc-pvdz.gbs 


         ---------------------------------------------------------
                                   SCF
            by Justin Turney, Rob Parrish, and Andy Simmonett
                              RHF Reference
                        1 Threads,    500 MiB Core
         ---------------------------------------------------------

  ==> Geometry <==

    Molecular point group: c2v
    Full point group: C2v

    Geometry (in Angstrom), charge = 0, multiplicity = 1:

       Center              X                  Y                   Z               Mass       
    ------------   -----------------  -----------------  -----------------  -----------------
           O          0.000000000000     0.000000000000    -0.065781240615    15.994914619560
           H          0.000000000000    -0.755375621709     0.521998012412     1.007825032070
           H          0.000000000000     0.755375621709     0.521998012412     1.007825032070

  Running in c2v symmetry.

  Rotational constants: A =     27.25827  B =     14.65735  C =      9.53186 [cm^-1]
  Rotational constants: A = 817182.31131  B = 439416.26664  C = 285758.08273 [MHz]
  Nuclear repulsion =    9.196442078324043

  Charge       = 0
  Multiplicity = 1
  Electrons    = 10
  Nalpha       = 5
  Nbeta        = 5

  ==> Algorithm <==

  SCF Algorithm Type is PK.
  DIIS enabled.
  MOM disabled.
  Fractional occupation disabled.
  Guess Type is SAD.
  Energy threshold   = 1.00e-08
  Density threshold  = 1.00e-08
  Integral threshold = 0.00e+00

  ==> Primary Basis <==

  Basis Set: CC-PVDZ
    Blend: CC-PVDZ
    Number of shells: 12
    Number of basis function: 24
    Number of Cartesian functions: 25
    Spherical Harmonics?: true
    Max angular momentum: 2

  ==> Pre-Iterations <==

   -------------------------------------------------------
    Irrep   Nso     Nmo     Nalpha   Nbeta   Ndocc  Nsocc
   -------------------------------------------------------
     A1        11      11       0       0       0       0
     A2         2       2       0       0       0       0
     B1         4       4       0       0       0       0
     B2         7       7       0       0       0       0
   -------------------------------------------------------
    Total      24      24       5       5       5       0
   -------------------------------------------------------

  ==> Integral Setup <==

  Using in-core PK algorithm.
   Calculation information:
      Number of atoms:                   3
      Number of AO shells:              12
      Number of primitives:             32
      Number of atomic orbitals:        25
      Number of basis functions:        24

      Integral cutoff                 1.00e-12
      Number of threads:                 1

  Performing in-core PK
  Using 90300 doubles for integral storage.
  We computed 3081 shell quartets total.
  Whereas there are 3081 unique shell quartets.
  ==> DiskJK: Disk-Based J/K Matrices <==

    J tasked:                  Yes
    K tasked:                  Yes
    wK tasked:                  No
    Memory (MB):               375
    Schwarz Cutoff:          1E-12

    OpenMP threads:              1
  Minimum eigenvalue in the overlap matrix is 3.4132328758E-02.
  Using Symmetric Orthogonalization.

  SCF Guess: Superposition of Atomic Densities via on-the-fly atomic UHF.

  ==> Iterations <==

                        Total Energy        Delta E     RMS |[F,P]|

   @RHF iter   0:   -75.89774761657189   -7.58977e+01   1.21427e-01 
   @RHF iter   1:   -76.00520445878196   -1.07457e-01   1.71025e-02 
   @RHF iter   2:   -76.02219797712723   -1.69935e-02   8.13340e-03 DIIS
   @RHF iter   3:   -76.02663696184406   -4.43898e-03   1.19324e-03 DIIS
   @RHF iter   4:   -76.02679023317005   -1.53271e-04   2.51897e-04 DIIS
   @RHF iter   5:   -76.02680383117369   -1.35980e-05   5.89471e-05 DIIS
   @RHF iter   6:   -76.02680478139122   -9.50218e-07   1.08365e-05 DIIS
   @RHF iter   7:   -76.02680481176277   -3.03716e-08   1.25899e-06 DIIS
   @RHF iter   8:   -76.02680481213405   -3.71273e-10   2.24504e-07 DIIS
   @RHF iter   9:   -76.02680481214483   -1.07860e-11   2.53032e-08 DIIS
   @RHF iter  10:   -76.02680481214490   -7.10543e-14   2.14212e-09 DIIS

  ==> Post-Iterations <==

    Orbital Energies (a.u.)
    -----------------------

    Doubly Occupied:                                                      

       1A1   -20.550562     2A1    -1.336987     1B2    -0.698818  
       3A1    -0.567189     1B1    -0.493261  

    Virtual:                                                              

       4A1     0.185532     2B2     0.256307     3B2     0.788420  
       5A1     0.855768     6A1     1.163725     2B1     1.200311  
       4B2     1.253594     7A1     1.441933     1A2     1.477245  
       3B1     1.673091     8A1     1.866636     5B2     1.936761  
       6B2     2.452424     9A1     2.491282     4B1     3.287309  
       2A2     3.337953    10A1     3.512015    11A1     3.863768  
       7B2     4.149338  

    Final Occupation by Irrep:
             A1    A2    B1    B2 
    DOCC [     3,    0,    1,    1 ]

  Energy converged.

  @RHF Final Energy:   -76.02680481214490

   => Energetics <=

    Nuclear Repulsion Energy =              9.1964420783240435
    One-Electron Energy =                -123.1528618737278578
    Two-Electron Energy =                  37.9296149832589293
    DFT Exchange-Correlation Energy =       0.0000000000000000
    Empirical Dispersion Energy =           0.0000000000000000
    PCM Polarization Energy =               0.0000000000000000
    EFP Energy =                            0.0000000000000000
    Total Energy =                        -76.0268048121448885



Properties will be evaluated at   0.000000,   0.000000,   0.000000 Bohr

Properties computed using the SCF density matrix

  Nuclear Dipole Moment: (a.u.)
     X:     0.0000      Y:     0.0000      Z:     0.9784

  Electronic Dipole Moment: (a.u.)
     X:     0.0000      Y:     0.0000      Z:    -0.1677

  Dipole Moment: (a.u.)
     X:     0.0000      Y:     0.0000      Z:     0.8107     Total:     0.8107

  Dipole Moment: (Debye)
     X:     0.0000      Y:     0.0000      Z:     2.0606     Total:     2.0606


*** tstop() called on psinet at Mon May 15 15:34:36 2017
Module time:
	user time   =       0.38 seconds =       0.01 minutes
	system time =       0.02 seconds =       0.00 minutes
	total time  =          0 seconds =       0.00 minutes
Total time:
	user time   =       0.38 seconds =       0.01 minutes
	system time =       0.02 seconds =       0.00 minutes
	total time  =          0 seconds =       0.00 minutes
 MINTS: Wrapper to libmints.
   by Justin Turney

   Calculation information:
      Number of threads:                 1
      Number of atoms:                   3
      Number of AO shells:              12
      Number of SO shells:               9
      Number of primitives:             32
      Number of atomic orbitals:        25
      Number of basis functions:        24

      Number of irreps:                  4
      Integral cutoff                 0.00e+00
      Number of functions per irrep: [  11    2    4    7 ]

 OEINTS: Overlap, kinetic, potential, dipole, and quadrupole integrals
         stored in file 35.

      Computing two-electron integrals...done
      Computed 11683 non-zero two-electron integrals.
        Stored in file 33.


*** tstart() called on psinet
*** at Mon May 15 15:34:36 2017


	Wfn Parameters:
	--------------------
	Wavefunction         = CCSD
	Number of irreps     = 4
	Number of MOs        = 24
	Number of active MOs = 23
	AO-Basis             = NONE
	Semicanonical        = false
	Reference            = RHF
	Print Level          = 1

	IRREP	# MOs	# FZDC	# DOCC	# SOCC	# VIRT	# FZVR
	-----	-----	------	------	------	------	------
	 A1	   11	    1	    2	    0	    8	    0
	 A2	   2	    0	    0	    0	    2	    0
	 B1	   4	    0	    1	    0	    3	    0
	 B2	   7	    0	    1	    0	    6	    0
	Transforming integrals...
	IWL integrals will be deleted.
	(OO|OO)...
	Presorting SO-basis two-electron integrals.
	Sorting File: SO Ints (nn|nn) nbuckets = 1
	Transforming the one-electron integrals and constructing Fock matrices
	Starting first half-transformation.
	Sorting half-transformed integrals.
	First half integral transformation complete.
	Starting second half-transformation.
	Two-electron integral transformation complete.
	(OO|OV)...
	Starting second half-transformation.
	Two-electron integral transformation complete.
	(OO|VV)...
	Starting second half-transformation.
	Two-electron integral transformation complete.
	(OV|OO)...
	Starting first half-transformation.
	Sorting half-transformed integrals.
	First half integral transformation complete.
	Starting second half-transformation.
	Two-electron integral transformation complete.
	(OV|OV)...
	Starting second half-transformation.
	Two-electron integral transformation complete.
	(OV|VV)...
	Starting second half-transformation.
	Two-electron integral transformation complete.
	(VV|OO)...
	Starting first half-transformation.
	Sorting half-transformed integrals.
	First half integral transformation complete.
	Starting second half-transformation.
	Two-electron integral transformation complete.
	(VV|OV)...
	Starting second half-transformation.
	Two-electron integral transformation complete.
	(VV|VV)...
	Starting second half-transformation.
	Two-electron integral transformation complete.
	Frozen core energy     =    -61.31659865775317

	Size of irrep 0 of <ab|cd> integrals:      0.013 (MW) /      0.102 (MB)
	Size of irrep 1 of <ab|cd> integrals:      0.005 (MW) /      0.037 (MB)
	Size of irrep 2 of <ab|cd> integrals:      0.005 (MW) /      0.041 (MB)
	Size of irrep 3 of <ab|cd> integrals:      0.012 (MW) /      0.093 (MB)
	Total:                                     0.034 (MW) /      0.274 (MB)

	Size of irrep 0 of <ia|bc> integrals:      0.003 (MW) /      0.023 (MB)
	Size of irrep 1 of <ia|bc> integrals:      0.001 (MW) /      0.007 (MB)
	Size of irrep 2 of <ia|bc> integrals:      0.001 (MW) /      0.009 (MB)
	Size of irrep 3 of <ia|bc> integrals:      0.002 (MW) /      0.019 (MB)
	Total:                                     0.007 (MW) /      0.058 (MB)

	Size of irrep 0 of tijab amplitudes:       0.001 (MW) /      0.005 (MB)
	Size of irrep 1 of tijab amplitudes:       0.000 (MW) /      0.001 (MB)
	Size of irrep 2 of tijab amplitudes:       0.000 (MW) /      0.002 (MB)
	Size of irrep 3 of tijab amplitudes:       0.000 (MW) /      0.003 (MB)
	Total:                                     0.002 (MW) /      0.012 (MB)

	Nuclear Rep. energy          =      9.19644207832404
	SCF energy                   =    -76.02680481214490
	One-electron energy          =    -41.62078914354875
	Two-electron energy          =     17.71414091083302
	Reference energy             =    -76.02680481214486

*** tstop() called on psinet at Mon May 15 15:34:37 2017
Module time:
	user time   =       0.02 seconds =       0.00 minutes
	system time =       0.04 seconds =       0.00 minutes
	total time  =          1 seconds =       0.02 minutes
Total time:
	user time   =       0.43 seconds =       0.01 minutes
	system time =       0.06 seconds =       0.00 minutes
	total time  =          1 seconds =       0.02 minutes

*** tstart() called on psinet
*** at Mon May 15 15:34:37 2017

            **************************
            *                        *
            *        CCENERGY        *
            *                        *
            **************************

    Nuclear Rep. energy (wfn)     =    9.196442078324043
    SCF energy          (wfn)     =  -76.026804812144903
    Reference energy    (file100) =  -76.026804812144860

    Input parameters:
    -----------------
    Wave function   =     CCSD
    Reference wfn   =     RHF
    Brueckner       =     No
    Memory (Mbytes) =     524.3
    Maxiter         =     50
    R_Convergence   =     1.0e-07
    E_Convergence   =     1.0e-06
    Restart         =     Yes
    DIIS            =     Yes
    AO Basis        =     NONE
    ABCD            =     NEW
    Cache Level     =     2
    Cache Type      =     LOW
    Print Level     =     1
    Num. of threads =     1
    # Amps to Print =     10
    Print MP2 Amps? =     No
    Analyze T2 Amps =     No
    Print Pair Ener =     Yes
    Spinadapt Ener. =     Yes
    Local CC        =     No
    SCS-MP2         =     False
    SCSN-MP2        =     False
    SCS-CCSD        =     False

MP2 correlation energy -0.2016450560547201
                Solving CC Amplitude Equations
                ------------------------------
  Iter             Energy              RMS        T1Diag      D1Diag    New D1Diag    D2Diag
  ----     ---------------------    ---------   ----------  ----------  ----------   --------
     0        -0.201645056054720    0.000e+00    0.000000    0.000000    0.000000    0.109452
     1        -0.206836947230161    2.658e-02    0.004491    0.008605    0.008605    0.116415
     2        -0.210781126055819    9.357e-03    0.005320    0.009910    0.009910    0.121737
     3        -0.211188394707540    2.416e-03    0.005797    0.010711    0.010711    0.122932
     4        -0.211199634669757    5.559e-04    0.005843    0.010928    0.010928    0.123127
     5        -0.211210637689748    1.646e-04    0.005869    0.011038    0.011038    0.123160
     6        -0.211208802399953    5.463e-05    0.005878    0.011083    0.011083    0.123153
     7        -0.211208579644672    1.476e-05    0.005881    0.011097    0.011097    0.123151
     8        -0.211208455768539    2.550e-06    0.005882    0.011099    0.011099    0.123151
     9        -0.211208410007173    6.129e-07    0.005882    0.011099    0.011099    0.123151
    10        -0.211208424169732    1.239e-07    0.005882    0.011099    0.011099    0.123151
    11        -0.211208422947632    2.638e-08    0.005882    0.011099    0.011099    0.123151

    Iterations converged.


    Largest TIA Amplitudes:
              1   0         0.0074294728
              3  17         0.0073229132
              3  13        -0.0059853257
              1   5         0.0049810576
              3  15         0.0045372485
              0   2         0.0042045397
              0   0        -0.0038074433
              2  11        -0.0032788570
              2  10        -0.0030289147
              1   1        -0.0029930210

    Largest TIjAb Amplitudes:
      2   2  10  10        -0.0514005091
      3   3  14  14        -0.0361095442
      1   1   2   2        -0.0353039407
      3   3  13  13        -0.0292732854
      1   2   2  10         0.0285597326
      2   1  10   2         0.0285597326
      3   3   1   1        -0.0282565456
      1   1  14  14        -0.0256830909
      2   3  10  15        -0.0228210017
      3   2  15  10        -0.0228210017

    SCF energy       (wfn)                    =  -76.026804812144903
    Reference energy (file100)                =  -76.026804812144860

    Opposite-spin MP2 correlation energy      =   -0.150928502097786
    Same-spin MP2 correlation energy          =   -0.050716553956934
    MP2 correlation energy                    =   -0.201645056054720
      * MP2 total energy                      =  -76.228449868199576

    Opposite-spin CCSD correlation energy     =   -0.165898173721301
    Same-spin CCSD correlation energy         =   -0.045310249285392
    CCSD correlation energy                   =   -0.211208422947632
      * CCSD total energy                     =  -76.238013235092495

    Singlet pair energies
        i       j         MP2             CCSD
      -----   -----   ------------   ------------
        1       1     -0.008981594   -0.010060049
        2       1     -0.009382404   -0.011432243
        2       2     -0.017430800   -0.019331898
        3       1     -0.009038789   -0.010841286
        3       2     -0.009981198   -0.011031465
        3       3     -0.016907536   -0.018624210
        4       1     -0.012254221   -0.015032544
        4       2     -0.012881964   -0.014926783
        4       3     -0.009006136   -0.009865346
        4       4     -0.019705586   -0.022097225
      -------------   ------------   ------------
          Total       -0.125570225   -0.143243049

    Triplet pair energies
        i       j         MP2             CCSD
      -----   -----   ------------   ------------
        2       1     -0.005593894   -0.004829244
        3       1     -0.005876787   -0.005029730
        3       2     -0.019823538   -0.018091068
        4       1     -0.005982083   -0.005022623
        4       2     -0.018914791   -0.016980275
        4       3     -0.019883739   -0.018012434
      -------------   ------------   ------------
          Total       -0.076074831   -0.067965374


*** tstop() called on psinet at Mon May 15 15:34:37 2017
Module time:
	user time   =       0.08 seconds =       0.00 minutes
	system time =       0.17 seconds =       0.00 minutes
	total time  =          0 seconds =       0.00 minutes
Total time:
	user time   =       0.51 seconds =       0.01 minutes
	system time =       0.23 seconds =       0.00 minutes
	total time  =          1 seconds =       0.02 minutes

*** Psi4 exiting successfully. Buy a developer a beer!
