
    -----------------------------------------------------------------------
          Psi4: An Open-Source Ab Initio Electronic Structure Package
                               Psi4 1.1rc3.dev5 

                         Git: Rev {master} 3fbd859 


    R. M. Parrish, L. A. Burns, D. G. A. Smith, A. C. Simmonett,
    A. E. DePrince III, E. G. Hohenstein, U. Bozkaya, A. Yu. Sokolov,
    R. Di Remigio, R. M. Richard, J. F. Gonthier, A. M. James,
    H. R. McAlexander, A. Kumar, M. Saitow, X. Wang, B. P. Pritchard,
    P. Verma, H. F. Schaefer III, K. Patkowski, R. A. King, E. F. Valeev,
    F. A. Evangelista, J. M. Turney, T. D. Crawford, and C. D. Sherrill,
    J. Chem. Theory Comput. in press (2017).
    (doi: 10.1021/acs.jctc.7b00174)

    -----------------------------------------------------------------------


    Psi4 started on: Monday, 15 May 2017 03:37PM

    Process ID:  14781
    PSIDATADIR: /home/psilocaluser/gits/hrw-direct/objdir4/stage/usr/local/psi4/share/psi4
    Memory:     500.0 MiB
    Threads:    1
    
  ==> Input File <==

--------------------------------------------------------------------------
#! OMP2 cc-pVDZ energy for the NO radical

refnuc      =   25.59060766929188  #TEST
refscf      = -129.25989438562090 #TEST
refomp2     = -129.66800287479143 #TEST

molecule no {
0 2
n
o 1 1.158
}

set {
  basis cc-pcvdz
  reference uhf
  guess gwh
  mp2_type conv
}
energy('omp2')

compare_values(refnuc, get_variable("NUCLEAR REPULSION ENERGY"), 6, "Nuclear Repulsion Energy (a.u.)"); #TEST
compare_values(refscf, get_variable("SCF TOTAL ENERGY"), 6, "SCF Energy (a.u.)");             #TEST
compare_values(refomp2, get_variable("OMP2 TOTAL ENERGY"), 6, "OMP2 Total Energy (a.u.)");                   #TEST
--------------------------------------------------------------------------

*** tstart() called on psinet
*** at Mon May 15 15:37:36 2017

   => Loading Basis Set <=

    Name: CC-PCVDZ
    Role: ORBITAL
    Keyword: BASIS
    atoms 1 entry N          line   195 file /home/psilocaluser/gits/hrw-direct/objdir4/stage/usr/local/psi4/share/psi4/basis/cc-pcvdz.gbs 
    atoms 2 entry O          line   229 file /home/psilocaluser/gits/hrw-direct/objdir4/stage/usr/local/psi4/share/psi4/basis/cc-pcvdz.gbs 


         ---------------------------------------------------------
                                   SCF
            by Justin Turney, Rob Parrish, and Andy Simmonett
                              UHF Reference
                        1 Threads,    500 MiB Core
         ---------------------------------------------------------

  ==> Geometry <==

    Molecular point group: c2v
    Full point group: C_inf_v

    Geometry (in Angstrom), charge = 0, multiplicity = 2:

       Center              X                  Y                   Z               Mass       
    ------------   -----------------  -----------------  -----------------  -----------------
           N          0.000000000000     0.000000000000    -0.617445101450    14.003074004780
           O          0.000000000000     0.000000000000     0.540554898550    15.994914619560

  Running in c2v symmetry.

  Rotational constants: A = ************  B =      1.68371  C =      1.68371 [cm^-1]
  Rotational constants: A = ************  B =  50476.22913  C =  50476.22913 [MHz]
  Nuclear repulsion =   25.590607669291881

  Charge       = 0
  Multiplicity = 2
  Electrons    = 15
  Nalpha       = 8
  Nbeta        = 7

  ==> Algorithm <==

  SCF Algorithm Type is PK.
  DIIS enabled.
  MOM disabled.
  Fractional occupation disabled.
  Guess Type is GWH.
  Energy threshold   = 1.00e-08
  Density threshold  = 1.00e-08
  Integral threshold = 0.00e+00

  ==> Primary Basis <==

  Basis Set: CC-PCVDZ
    Blend: CC-PCVDZ
    Number of shells: 16
    Number of basis function: 36
    Number of Cartesian functions: 38
    Spherical Harmonics?: true
    Max angular momentum: 2

  ==> Pre-Iterations <==

   -------------------------------------------------------
    Irrep   Nso     Nmo     Nalpha   Nbeta   Ndocc  Nsocc
   -------------------------------------------------------
     A1        18      18       0       0       0       0
     A2         2       2       0       0       0       0
     B1         8       8       0       0       0       0
     B2         8       8       0       0       0       0
   -------------------------------------------------------
    Total      36      36       8       7       7       1
   -------------------------------------------------------

  ==> Integral Setup <==

  Using in-core PK algorithm.
   Calculation information:
      Number of atoms:                   2
      Number of AO shells:              16
      Number of primitives:             48
      Number of atomic orbitals:        38
      Number of basis functions:        36

      Integral cutoff                 1.00e-12
      Number of threads:                 1

  Performing in-core PK
  Using 444222 doubles for integral storage.
  We computed 9125 shell quartets total.
  Whereas there are 9316 unique shell quartets.
  ==> DiskJK: Disk-Based J/K Matrices <==

    J tasked:                  Yes
    K tasked:                  Yes
    wK tasked:                  No
    Memory (MB):               375
    Schwarz Cutoff:          1E-12

    OpenMP threads:              1
  Minimum eigenvalue in the overlap matrix is 1.4366348670E-02.
  Using Symmetric Orthogonalization.

  SCF Guess: Generalized Wolfsberg-Helmholtz.

  ==> Iterations <==

                        Total Energy        Delta E     RMS |[F,P]|

   @UHF iter   1:  -119.21648665423430   -1.19216e+02   9.02337e-01 
   @UHF iter   2:  -128.62571552777382   -9.40923e+00   6.38353e-02 DIIS
   @UHF iter   3:  -128.74468322367781   -1.18968e-01   5.77579e-02 DIIS
   @UHF iter   4:  -129.25778413634691   -5.13101e-01   2.59637e-03 DIIS
   @UHF iter   5:  -129.25924360185391   -1.45947e-03   6.13118e-04 DIIS
   @UHF iter   6:  -129.25938048391970   -1.36882e-04   2.41157e-04 DIIS
   @UHF iter   7:  -129.25942281791038   -4.23340e-05   1.50192e-04 DIIS
   @UHF iter   8:  -129.25944847101201   -2.56531e-05   1.37569e-04 DIIS
   @UHF iter   9:  -129.25948512310470   -3.66521e-05   1.30890e-04 DIIS
   @UHF iter  10:  -129.25961186479560   -1.26742e-04   1.13772e-04 DIIS
   @UHF iter  11:  -129.25974720977860   -1.35345e-04   9.29695e-05 DIIS
   @UHF iter  12:  -129.25989313061530   -1.45921e-04   5.63123e-05 DIIS
   @UHF iter  13:  -129.25989072655278    2.40406e-06   1.86551e-05 DIIS
   @UHF iter  14:  -129.25989412770352   -3.40115e-06   1.92788e-05 DIIS
   @UHF iter  15:  -129.25989438326934   -2.55566e-07   1.35927e-06 DIIS
   @UHF iter  16:  -129.25989438448363   -1.21429e-09   1.15248e-06 DIIS
   @UHF iter  17:  -129.25989438562061   -1.13698e-09   1.18366e-07 DIIS
   @UHF iter  18:  -129.25989438563366   -1.30456e-11   5.98711e-08 DIIS
   @UHF iter  19:  -129.25989438563536   -1.70530e-12   2.81894e-08 DIIS
   @UHF iter  20:  -129.25989438563630   -9.37916e-13   4.55295e-09 DIIS

  ==> Post-Iterations <==

   @Spin Contamination Metric:   6.670139871E-02
   @S^2 Expected:                7.500000000E-01
   @S^2 Observed:                8.167013987E-01
   @S   Expected:                5.000000000E-01
   @S   Observed:                5.000000000E-01

    Orbital Energies (a.u.)
    -----------------------

    Alpha Occupied:                                                       

       1A1   -20.695441     2A1   -15.733449     3A1    -1.606067  
       4A1    -0.966483     1B1    -0.780374     5A1    -0.691061  
       1B2    -0.634535     2B1    -0.422276  

    Alpha Virtual:                                                        

       2B2     0.096176     6A1     0.505339     3B1     0.862366  
       3B2     0.907120     7A1     0.938015     8A1     0.961088  
       9A1     1.115528     4B1     1.167886     4B2     1.229073  
      10A1     1.861648     1A2     1.896602    11A1     1.897534  
       5B1     1.936481     5B2     1.966077    12A1     2.801669  
       2A2     2.915356    13A1     2.915928     6B1     3.483811  
       6B2     3.501345    14A1     3.853618    15A1    26.118114  
       7B1    30.327120     7B2    30.335721    16A1    30.949408  
      17A1    34.357642     8B1    39.086336     8B2    39.097895  
      18A1    39.701241  

    Beta Occupied:                                                        

       1A1   -20.690392     2A1   -15.697588     3A1    -1.573538  
       4A1    -0.883386     1B2    -0.658080     5A1    -0.644978  
       1B1    -0.606935  

    Beta Virtual:                                                         

       2B2     0.126405     2B1     0.172618     6A1     0.528302  
       3B2     0.955205     7A1     0.966862     3B1     0.988161  
       8A1     0.992988     9A1     1.125009     4B2     1.196339  
       4B1     1.232020    10A1     1.868865     5B2     1.980118  
       1A2     1.989513    11A1     1.989607     5B1     2.016381  
      12A1     2.834082     2A2     2.930906    13A1     2.931050  
       6B2     3.491175     6B1     3.530163    14A1     3.862539  
      15A1    26.144983     7B2    30.353035     7B1    30.375024  
      16A1    30.957867    17A1    34.361591     8B2    39.085268  
       8B1    39.109966    18A1    39.701222  

    Final Occupation by Irrep:
             A1    A2    B1    B2 
    DOCC [     5,    0,    1,    1 ]
    SOCC [     0,    0,    1,    0 ]

  Energy converged.

  @UHF Final Energy:  -129.25989438563630

   => Energetics <=

    Nuclear Repulsion Energy =             25.5906076692918809
    One-Electron Energy =                -227.4164213468749551
    Two-Electron Energy =                  72.5659192919467841
    DFT Exchange-Correlation Energy =       0.0000000000000000
    Empirical Dispersion Energy =           0.0000000000000000
    PCM Polarization Energy =               0.0000000000000000
    EFP Energy =                            0.0000000000000000
    Total Energy =                       -129.2598943856363007


  UHF NO Occupations:
  HONO-2 :    1 B1 1.9973682
  HONO-1 :    1 B2 1.9710875
  HONO-0 :    2 B1 1.0000000
  LUNO+0 :    2 B2 0.0289125
  LUNO+1 :    3 B1 0.0026318
  LUNO+2 :    6 A1 0.0019084
  LUNO+3 :    7 A1 0.0001994



Properties will be evaluated at   0.000000,   0.000000,   0.000000 Bohr

Properties computed using the SCF density matrix

  Nuclear Dipole Moment: (a.u.)
     X:     0.0000      Y:     0.0000      Z:     0.0044

  Electronic Dipole Moment: (a.u.)
     X:     0.0000      Y:     0.0000      Z:    -0.1288

  Dipole Moment: (a.u.)
     X:     0.0000      Y:     0.0000      Z:    -0.1244     Total:     0.1244

  Dipole Moment: (Debye)
     X:     0.0000      Y:     0.0000      Z:    -0.3163     Total:     0.3163


*** tstop() called on psinet at Mon May 15 15:37:36 2017
Module time:
	user time   =       0.23 seconds =       0.00 minutes
	system time =       0.02 seconds =       0.00 minutes
	total time  =          0 seconds =       0.00 minutes
Total time:
	user time   =       0.23 seconds =       0.00 minutes
	system time =       0.02 seconds =       0.00 minutes
	total time  =          0 seconds =       0.00 minutes
 MINTS: Wrapper to libmints.
   by Justin Turney

   Calculation information:
      Number of threads:                 1
      Number of atoms:                   2
      Number of AO shells:              16
      Number of SO shells:              16
      Number of primitives:             48
      Number of atomic orbitals:        38
      Number of basis functions:        36

      Number of irreps:                  4
      Integral cutoff                 0.00e+00
      Number of functions per irrep: [  18    2    8    8 ]

 OEINTS: Overlap, kinetic, potential, dipole, and quadrupole integrals
         stored in file 35.

      Computing two-electron integrals...done
      Computed 57271 non-zero two-electron integrals.
        Stored in file 33.


*** tstart() called on psinet
*** at Mon May 15 15:37:36 2017



  Options:
  ----------------------------------------------------------------------------
  ACTIVE                      => [  ]             
  BASIS_RELATIVISTIC          => (empty)          
  BENCH                       => 0                
  CACHELEVEL                  => 2                
  CCL_ENERGY                  => FALSE            
  CC_DIIS_MAX_VECS            => 6                
  CC_DIIS_MIN_VECS            => 2                
  CC_MAXITER                  => 50               
  CC_TYPE                     => CONV             
  CEPA_OS_SCALE               => 1.27             
  CEPA_SOS_SCALE              => 1.3              
  CEPA_SS_SCALE               => 1.13             
  CEPA_TYPE                   => CEPA0            
  CI_TYPE                     => CONV             
  CUBEPROP_BASIS_FUNCTIONS    => [  ]             
  CUBEPROP_FILEPATH           => .                
  CUBEPROP_ORBITALS           => [  ]             
  CUBEPROP_TASKS              => [  ]             
  CUBIC_BASIS_TOLERANCE       => 1e-12            
  CUBIC_BLOCK_MAX_POINTS      => 1000             
  CUBIC_GRID_OVERAGE          => [  ]             
  CUBIC_GRID_SPACING          => [  ]             
  CUTOFF                      => 14               
  DEBUG                       => 0                
  DERTYPE                     => NONE             
  DF_BASIS_CC                 => (empty)          
  DIE_IF_NOT_CONVERGED        => TRUE             
  DKH_ORDER                   => 2                
  DOCC                        => [  ]             
  DO_DIIS                     => TRUE             
  DO_LEVEL_SHIFT              => TRUE             
  DO_SCS                      => FALSE           !
  DO_SOS                      => FALSE           !
  E3_SCALE                    => 0.25             
  EA_POLES                    => FALSE            
  EKT_EA                      => FALSE            
  EKT_IP                      => FALSE            
  EP_EA_POLES                 => FALSE            
  EP_IP_POLES                 => FALSE            
  EP_MAXITER                  => 30               
  EXTERNAL_POTENTIAL_SYMMETRY => FALSE            
  E_CONVERGENCE               => 1e-06           !
  FREEZE_CORE                 => FALSE            
  FROZEN_DOCC                 => [  ]             
  FROZEN_UOCC                 => [  ]             
  INTEGRAL_PACKAGE            => LIBINT           
  IP_POLES                    => FALSE            
  LEVEL_SHIFT                 => 0.02             
  LINEQ_SOLVER                => CDGESV           
  LITERAL_CFOUR               => (empty)          
  MAT_NUM_COLUMN_PRINT        => 5                
  MAX_MOGRAD_CONVERGENCE      => 0.001            
  MOGRAD_DAMPING              => 1                
  MOLDEN_WITH_VIRTUAL         => TRUE             
  MO_DIIS_NUM_VECS            => 6                
  MO_MAXITER                  => 50               
  MO_READ                     => FALSE            
  MO_STEP_MAX                 => 0.5              
  MO_WRITE                    => FALSE            
  MP2_OS_SCALE                => 1.2              
  MP2_SOS_SCALE               => 1.3              
  MP2_SOS_SCALE2              => 1.2              
  MP2_SS_SCALE                => 0.333333         
  MP2_TYPE                    => CONV            !
  MP_TYPE                     => CONV             
  NAT_ORBS                    => FALSE            
  NUM_FROZEN_DOCC             => 0                
  NUM_FROZEN_UOCC             => 0                
  OCC_ORBS_PRINT              => FALSE            
  OEPROP                      => FALSE            
  OPT_METHOD                  => ORB_RESP         
  ORB_OPT                     => TRUE            !
  ORB_RESP_SOLVER             => PCG              
  ORTH_TYPE                   => MGS              
  PCG_BETA_TYPE               => FLETCHER_REEVES  
  PCG_CONVERGENCE             => 1e-06            
  PCG_MAXITER                 => 30               
  PCM                         => FALSE            
  PCM_CC_TYPE                 => PTE              
  PCM_SCF_TYPE                => TOTAL            
  PRINT                       => 1                
  PRINT_NOONS                 => 3                
  PROPERTIES                  => [  ]             
  PROPERTIES_ORIGIN           => [  ]             
  PUREAM                      => TRUE             
  QC_MODULE                   => (empty)          
  RAS1                        => [  ]             
  RAS2                        => [  ]             
  RAS3                        => [  ]             
  RAS4                        => [  ]             
  RELATIVISTIC                => NO               
  RELAXED                     => TRUE             
  RESTRICTED_DOCC             => [  ]             
  RESTRICTED_UOCC             => [  ]             
  RMS_MOGRAD_CONVERGENCE      => 1e-06            
  R_CONVERGENCE               => 1e-05            
  SCS_TYPE                    => SCS              
  SOCC                        => [  ]             
  SOS_TYPE                    => SOS              
  SYMMETRIZE                  => TRUE             
  TPDM_ABCD_TYPE              => DIRECT           
  UNITS                       => ANGSTROMS        
  WFN                         => SCF              
  WFN_TYPE                    => OMP2            !
  WRITER_FILE_LABEL           => (empty)          


 ============================================================================== 
 ============================================================================== 
 ============================================================================== 

                       OMP2 (OO-MP2)   
              Program Written by Ugur Bozkaya,
              Latest Revision June 25, 2014.

 ============================================================================== 
 ============================================================================== 
 ============================================================================== 

	RMS orbital gradient is changed to :     1.00e-05
	MAX orbital gradient is changed to :     3.16e-04
	MO spaces per irreps... 

	IRREP   FC   AOCC  BOCC  AVIR    BVIR  FV 
	==========================================
	  A1     0     5     5    13     13     0
	  A2     0     0     0     2      2     0
	  B1     0     2     1     6      7     0
	  B2     0     1     1     7      7     0
	==========================================

	Computing MP2 energy using SCF MOs (Canonical MP2)... 
	============================================================================== 
	Nuclear Repulsion Energy (a.u.)    :    25.59060766929188
	SCF Energy (a.u.)                  :  -129.25989438563630
	REF Energy (a.u.)                  :  -129.25989438563633
	Alpha-Alpha Contribution (a.u.)    :    -0.04749718263947
	Alpha-Beta Contribution (a.u.)     :    -0.29914862256718
	Beta-Beta Contribution (a.u.)      :    -0.04591532584136
	Scaled_SS Correlation Energy (a.u.):    -0.03113750282694
	Scaled_OS Correlation Energy (a.u.):    -0.35897834708061
	SCS-MP2 Total Energy (a.u.)        :  -129.65001023554387
	SOS-MP2 Total Energy (a.u.)        :  -129.64878759497367
	SCSN-MP2 Total Energy (a.u.)       :  -129.42430040056260
	SCS-MP2-VDW Total Energy (a.u.)    :  -129.68951087676271
	SOS-PI-MP2 Total Energy (a.u.)     :  -129.67870245723037
	MP2 Correlation Energy (a.u.)      :    -0.39256113104801
	MP2 Total Energy (a.u.)            :  -129.65245551668434
	============================================================================== 

	Number of alpha independent-pairs: 84
	Number of beta independent-pairs : 79

 ============================================================================== 
 ================ Performing OMP2 iterations... =============================== 
 ============================================================================== 
	            Minimizing MP2-L Functional 
	            --------------------------- 
 Iter       E_total           DE           RMS MO Grad      MAX MO Grad      RMS T2    
 ----    ---------------    ----------     -----------      -----------     ---------- 
   1     -129.6626893123     -1.02e-02       1.03e-03         4.55e-02        1.73e-06 
   2     -129.6656499977     -2.96e-03       7.69e-04         3.83e-02        7.59e-07 
   3     -129.6668529320     -1.20e-03       6.25e-04         3.14e-02        5.95e-07 
   4     -129.6673821667     -5.29e-04       5.58e-04         2.43e-02        2.33e-07 
   5     -129.6676160864     -2.34e-04       5.04e-04         2.28e-02        2.90e-07 
   6     -129.6679746825     -3.59e-04       7.89e-05         3.45e-03        2.12e-07 
   7     -129.6679965043     -2.18e-05       3.16e-05         1.33e-03        6.88e-08 
   8     -129.6680007973     -4.29e-06       2.45e-05         9.64e-04        2.38e-08 
   9     -129.6680019481     -1.15e-06       1.71e-05         7.00e-04        1.25e-08 
  10     -129.6680021936     -2.46e-07       1.61e-05         6.47e-04        3.35e-09 
  11     -129.6680024762     -2.83e-07       1.11e-05         4.21e-04        4.12e-09 
  12     -129.6680026136     -1.37e-07       6.85e-06         2.58e-04        3.21e-09 

 ============================================================================== 
 ======================== OMP2 ITERATIONS ARE CONVERGED ======================= 
 ============================================================================== 

	Computing MP2 energy using optimized MOs... 
	============================================================================== 
	Nuclear Repulsion Energy (a.u.)    :    25.59060766929188
	SCF Energy (a.u.)                  :  -129.25989438563630
	REF Energy (a.u.)                  :  -129.24980607492515
	Alpha-Alpha Contribution (a.u.)    :    -0.04832685482708
	Alpha-Beta Contribution (a.u.)     :    -0.31658835120809
	Beta-Beta Contribution (a.u.)      :    -0.05328118158680
	Scaled_SS Correlation Energy (a.u.):    -0.03386934547129
	Scaled_OS Correlation Energy (a.u.):    -0.37990602144971
	SCS-MP2 Total Energy (a.u.)        :  -129.66358144184613
	SOS-MP2 Total Energy (a.u.)        :  -129.62971209637485
	SCSN-MP2 Total Energy (a.u.)       :  -129.42863621901358
	SCS-MP2-VDW Total Energy (a.u.)    :  -129.70584318267842
	SOS-PI-MP2 Total Energy (a.u.)     :  -129.69302976661646
	MP2 Correlation Energy (a.u.)      :    -0.41819638762197
	MP2 Total Energy (a.u.)            :  -129.66800246254712
	============================================================================== 

	============================================================================== 
	================ OMP2 FINAL RESULTS ========================================== 
	============================================================================== 
	Nuclear Repulsion Energy (a.u.)    :    25.59060766929188
	SCF Energy (a.u.)                  :  -129.25989438563630
	REF Energy (a.u.)                  :  -129.24980607492515
	SCS-OMP2 Total Energy (a.u.)       :  -129.66358144184613
	SOS-OMP2 Total Energy (a.u.)       :  -129.62971209637485
	SCSN-OMP2 Total Energy (a.u.)      :  -129.42863621901358
	SCS-OMP2-VDW Total Energy (a.u.)   :  -129.70584318267842
	SOS-PI-OMP2 Total Energy (a.u.)    :  -129.69302976661646
	OMP2 Correlation Energy (a.u.)     :    -0.40810822794424
	Eomp2 - Eref (a.u.)                :    -0.41819653865539
	OMP2 Total Energy (a.u.)           :  -129.66800261358054
	============================================================================== 


*** tstop() called on psinet at Mon May 15 15:37:38 2017
Module time:
	user time   =       1.47 seconds =       0.02 minutes
	system time =       0.72 seconds =       0.01 minutes
	total time  =          2 seconds =       0.03 minutes
Total time:
	user time   =       1.83 seconds =       0.03 minutes
	system time =       0.74 seconds =       0.01 minutes
	total time  =          2 seconds =       0.03 minutes
	Nuclear Repulsion Energy (a.u.)...................................PASSED
	SCF Energy (a.u.).................................................PASSED
	OMP2 Total Energy (a.u.)..........................................PASSED

*** Psi4 exiting successfully. Buy a developer a beer!
