    -----------------------------------------------------------------------
          PSI4: An Open-Source Ab Initio Electronic Structure Package
                              PSI 4.0.0-beta3+ Driver

               Git: Rev {master} 2dc103b19e887e46f474db9fc5f0155e6331f408

    J. M. Turney, A. C. Simmonett, R. M. Parrish, E. G. Hohenstein,
    F. A. Evangelista, J. T. Fermann, B. J. Mintz, L. A. Burns, J. J. Wilke,
    M. L. Abrams, N. J. Russ, M. L. Leininger, C. L. Janssen, E. T. Seidl,
    W. D. Allen, H. F. Schaefer, R. A. King, E. F. Valeev, C. D. Sherrill,
    and T. D. Crawford, WIREs Comput. Mol. Sci., (2011) (doi: 10.1002/wcms.93)

                         Additional Contributions by
    A. E. DePrince, M. Saitow, U. Bozkaya, A. Yu. Sokolov
    -----------------------------------------------------------------------

    Process ID:  30230
    PSI4DATADIR: /home/ugur/psi4/lib

    Using LocalCommunicator (Number of processes = 1)

    Memory level set to 256.000 MB

  ==> Input File <==

--------------------------------------------------------------------------
#! OMP2 cc-pVDZ energy for the NO radical

refnuc      =   25.59060766929188  #TEST
refscf      = -129.25989438562090 #TEST
refomp2     = -129.66800287479143 #TEST

memory 250 mb

molecule no {
0 2
n
o 1 1.158
}

set global {
  basis cc-pcvdz
  reference uhf
  guess gwh
}
energy('omp2')

compare_values(refnuc, get_variable("NUCLEAR REPULSION ENERGY"), 6, "Nuclear Repulsion Energy (a.u.)"); #TEST
compare_values(refscf, get_variable("SCF TOTAL ENERGY"), 6, "SCF Energy (a.u.)");             #TEST
compare_values(refomp2, get_variable("OMP2 TOTAL ENERGY"), 6, "OMP2 Total Energy (a.u.)");                   #TEST
--------------------------------------------------------------------------

  Memory set to 250.000 MiB by Python script.

*** tstart() called on ub
*** at Wed Dec  5 12:46:02 2012


         ---------------------------------------------------------
                                   SCF
            by Justin Turney, Rob Parrish, and Andy Simmonett
                              UHF Reference
                        2 Threads,    250 MiB Core
         ---------------------------------------------------------

  ==> Geometry <==

    Molecular point group: c2v
    Full point group: C_inf_v

    Geometry (in Angstrom), charge = 0, multiplicity = 2:

       Center              X                  Y                   Z       
    ------------   -----------------  -----------------  -----------------
           N          0.000000000000     0.000000000000    -0.617445101450
           O          0.000000000000     0.000000000000     0.540554898550

  Running in c2v symmetry.

  Nuclear repulsion =   25.590607669291881

  Charge       = 0
  Multiplicity = 2
  Electrons    = 15
  Nalpha       = 8
  Nbeta        = 7

  ==> Algorithm <==

  SCF Algorithm Type is PK.
  DIIS enabled.
  MOM disabled.
  Fractional occupation disabled.
  Guess Type is GWH.
  Energy threshold   = 1.00e-08
  Density threshold  = 1.00e-06
  Integral threshold = 0.00e+00

  ==> Primary Basis <==

  Basis Set: cc-pcvdz
    Number of shells: 16
    Number of basis function: 36
    Number of Cartesian functions: 38
    Spherical Harmonics?: true
    Max angular momentum: 2

  ==> Pre-Iterations <==

   -------------------------------------------------------
    Irrep   Nso     Nmo     Nalpha   Nbeta   Ndocc  Nsocc
   -------------------------------------------------------
     A1        18      18       0       0       0       0
     A2         2       2       0       0       0       0
     B1         8       8       0       0       0       0
     B2         8       8       0       0       0       0
   -------------------------------------------------------
    Total      36      36       8       7       7       1
   -------------------------------------------------------

  ==> Integral Setup <==

 MINTS: Wrapper to libmints.
   by Justin Turney

   Calculation information:
      Number of atoms:                   2
      Number of AO shells:              16
      Number of SO shells:              16
      Number of primitives:             48
      Number of atomic orbitals:        38
      Number of basis functions:        36

      Number of irreps:                  4
      Number of functions per irrep: [  18    2    8    8 ]

      Overlap, kinetic, potential, dipole, and quadrupole integrals
        stored in file 35.

      Computing two-electron integrals...done
      Computed 50830 non-zero two-electron integrals.
        Stored in file 33.

	Batch   1 pq = [       0,     246] index = [             0,30381]
  ==> DiskJK: Disk-Based J/K Matrices <==

    J tasked:                  Yes
    K tasked:                  Yes
    wK tasked:                  No
    Memory (MB):               178
    Schwarz Cutoff:          0E+00

  Minimum eigenvalue in the overlap matrix is 1.4366348670E-02.
  Using Symmetric Orthogonalization.
  SCF Guess: Generalized Wolfsberg-Helmholtz.

  Initial UHF energy:   -84.88763049531173

  ==> Iterations <==

                        Total Energy        Delta E     Density RMS

   @UHF iter   1:  -119.21648665423440   -3.43289e+01   0.00000e+00 
   @UHF iter   2:  -128.62571552777416   -9.40923e+00   7.14565e-02 DIIS
   @UHF iter   3:  -128.74468322367809   -1.18968e-01   4.32646e-02 DIIS
   @UHF iter   4:  -129.25778413634717   -5.13101e-01   2.09239e-02 DIIS
   @UHF iter   5:  -129.25924360185417   -1.45947e-03   1.76386e-03 DIIS
   @UHF iter   6:  -129.25938048392004   -1.36882e-04   3.91295e-04 DIIS
   @UHF iter   7:  -129.25942281791077   -4.23340e-05   2.04061e-04 DIIS
   @UHF iter   8:  -129.25944847101226   -2.56531e-05   6.51467e-05 DIIS
   @UHF iter   9:  -129.25948512310507   -3.66521e-05   7.40222e-05 DIIS
   @UHF iter  10:  -129.25961186479597   -1.26742e-04   2.39091e-04 DIIS
   @UHF iter  11:  -129.25974720977905   -1.35345e-04   2.75455e-04 DIIS
   @UHF iter  12:  -129.25989313061555   -1.45921e-04   6.42720e-04 DIIS
   @UHF iter  13:  -129.25989072655310    2.40406e-06   7.85308e-05 DIIS
   @UHF iter  14:  -129.25989412770369   -3.40115e-06   1.42078e-04 DIIS
   @UHF iter  15:  -129.25989438326962   -2.55566e-07   2.49964e-05 DIIS
   @UHF iter  16:  -129.25989438448386   -1.21423e-09   4.88705e-06 DIIS
   @UHF iter  17:  -129.25989438562090   -1.13704e-09   1.60379e-06 DIIS

  ==> Post-Iterations <==

   @Spin Contamination Metric:   6.670561457E-02
   @S^2 Expected:                7.500000000E-01
   @S^2 Observed:                8.167056146E-01
   @S   Expected:                5.000000000E-01
   @S   Observed:                5.000000000E-01

	Orbital Energies (a.u.)
	-----------------------

	Alpha Occupied:                                                       

	   1A1   -20.695441     2A1   -15.733449     3A1    -1.606066  
	   4A1    -0.966482     1B1    -0.780373     5A1    -0.691061  
	   1B2    -0.634536     2B1    -0.422276  

	Alpha Virtual:                                                        

	   2B2     0.096177     6A1     0.505339     3B1     0.862366  
	   3B2     0.907120     7A1     0.938015     8A1     0.961088  
	   9A1     1.115528     4B1     1.167886     4B2     1.229074  
	  10A1     1.861648     1A2     1.896602    11A1     1.897534  
	   5B1     1.936481     5B2     1.966076    12A1     2.801669  
	   2A2     2.915357    13A1     2.915929     6B1     3.483811  
	   6B2     3.501345    14A1     3.853619    15A1    26.118114  
	   7B1    30.327120     7B2    30.335721    16A1    30.949408  
	  17A1    34.357642     8B1    39.086337     8B2    39.097896  
	  18A1    39.701242  

	Beta Occupied:                                                        

	   1A1   -20.690392     2A1   -15.697587     3A1    -1.573538  
	   4A1    -0.883385     1B2    -0.658082     5A1    -0.644978  
	   1B1    -0.606935  

	Beta Virtual:                                                         

	   2B2     0.126406     2B1     0.172618     6A1     0.528302  
	   3B2     0.955206     7A1     0.966862     3B1     0.988161  
	   8A1     0.992988     9A1     1.125010     4B2     1.196339  
	   4B1     1.232020    10A1     1.868865     5B2     1.980118  
	   1A2     1.989514    11A1     1.989607     5B1     2.016381  
	  12A1     2.834082     2A2     2.930906    13A1     2.931049  
	   6B2     3.491175     6B1     3.530163    14A1     3.862539  
	  15A1    26.144983     7B2    30.353035     7B1    30.375024  
	  16A1    30.957867    17A1    34.361592     8B2    39.085268  
	   8B1    39.109966    18A1    39.701222  

	Final Occupation by Irrep:
	         A1    A2    B1    B2 
	DOCC [     5,    0,    1,    1 ]
	SOCC [     0,    0,    1,    0 ]

  Energy converged.

  @UHF Final Energy:  -129.25989438562090

   => Energetics <=

    Nuclear Repulsion Energy =             25.5906076692918809
    One-Electron Energy =                -227.4164235585777476
    Two-Electron Energy =                  72.5659215036649954
    DFT Exchange-Correlation Energy =       0.0000000000000000
    Empirical Dispersion Energy =           0.0000000000000000
    Total Energy =                       -129.2598943856208962


Properties computed using the SCF density matrix


Properties will be evaluated at   0.000000,   0.000000,   0.000000 Bohr
  ==> Properties <==

  Nuclear Dipole Moment: (a.u.)
     X:     0.0000      Y:     0.0000      Z:     0.0044

  Electronic Dipole Moment: (a.u.)
     X:     0.0000      Y:     0.0000      Z:    -0.1288

  Dipole Moment: (a.u.)
     X:     0.0000      Y:     0.0000      Z:    -0.1244     Total:     0.1244

  Dipole Moment: (Debye)
     X:     0.0000      Y:     0.0000      Z:    -0.3163     Total:     0.3163


  Saving occupied orbitals to File 180.

*** tstop() called on ub at Wed Dec  5 12:46:03 2012
Module time:
	user time   =       0.56 seconds =       0.01 minutes
	system time =       0.01 seconds =       0.00 minutes
	total time  =          1 seconds =       0.02 minutes
Total time:
	user time   =       0.56 seconds =       0.01 minutes
	system time =       0.01 seconds =       0.00 minutes
	total time  =          1 seconds =       0.02 minutes

*** tstart() called on ub
*** at Wed Dec  5 12:46:03 2012



  Options:
  ----------------------------------------------------------------------------
  BENCH                  => 0                
  CACHELEVEL             => 2                
  CCL_ENERGY             => FALSE            
  CC_DIIS_MAX_VECS       => 6                
  CC_DIIS_MIN_VECS       => 2                
  CC_MAXITER             => 50               
  CEPA_OS_SCALE          => 1.27             
  CEPA_SOS_SCALE         => 1.3              
  CEPA_SS_SCALE          => 1.13             
  CEPA_TYPE              => CEPA0            
  CUTOFF                 => 14               
  DEBUG                  => 0                
  DERTYPE                => NONE             
  DIE_IF_NOT_CONVERGED   => TRUE             
  DOCC                   => [  ]             
  DO_DIIS                => TRUE             
  DO_LEVEL_SHIFT         => FALSE            
  DO_SCS                 => FALSE            
  DO_SOS                 => FALSE            
  E3_SCALE               => 0.25             
  E_CONVERGENCE          => 1e-08            
  FREEZE_CORE            => FALSE            
  FROZEN_DOCC            => [  ]             
  FROZEN_UOCC            => [  ]             
  LEVEL_SHIFT            => 0.02             
  LINEQ_SOLVER           => CDGESV           
  MAT_NUM_COLUMN_PRINT   => 5                
  MAX_MOGRAD_CONVERGENCE => 0.001            
  MO_DIIS_NUM_VECS       => 6                
  MO_MAXITER             => 50               
  MO_READ                => FALSE            
  MO_STEP_MAX            => 0.5              
  MO_WRITE               => FALSE            
  MP2_OS_SCALE           => 1.2              
  MP2_SOS_SCALE          => 1.3              
  MP2_SOS_SCALE2         => 1.2              
  MP2_SS_SCALE           => 0.333333         
  NAT_ORBS               => FALSE            
  NUM_FROZEN_DOCC        => 0                
  NUM_FROZEN_UOCC        => 0                
  OCC_ORBS_PRINT         => FALSE            
  OPT_METHOD             => ORB_RESP         
  ORB_RESP_SOLVER        => PCG              
  ORTH_TYPE              => MGS              
  PCG_BETA_TYPE          => FLETCHER_REEVES  
  PCG_CONVERGENCE        => 1e-06            
  PCG_MAXITER            => 30               
  PRINT                  => 1                
  PROPERTIES             => [  ]             
  PROPERTIES_ORIGIN      => [  ]             
  PUREAM                 => TRUE             
  RMS_MOGRAD_CONVERGENCE => 1e-05            
  R_CONVERGENCE          => 1e-05            
  SCS_TYPE               => SCS              
  SOCC                   => [  ]             
  SOS_TYPE               => SOS              
  TPDM_ABCD_TYPE         => DIRECT           
  UNITS                  => ANGSTROMS        
  WFN                    => SCF              
  WFN_TYPE               => OMP2             


 ============================================================================== 
 ============================================================================== 
 ============================================================================== 

                       OMP2 (OO-MP2)   
              Program Written by Ugur Bozkaya,
              Latest Revision December 05, 2012.

 ============================================================================== 
 ============================================================================== 
 ============================================================================== 

	MO spaces per irreps... 

	IRREP   FC   AOCC  BOCC  AVIR    BVIR  FV 
	==========================================
	  A1     0     5     5    13     13     0
	  A2     0     0     0     2      2     0
	  B1     0     2     1     6      7     0
	  B2     0     1     1     7      7     0
	==========================================

	Computing MP2 energy using SCF MOs (Canonical MP2)... 
	============================================================================== 
	Nuclear Repulsion Energy (a.u.)    : 25.59060766929188
	SCF Energy (a.u.)                  : -129.25989438562090
	REF Energy (a.u.)                  : -129.25989438563391
	Alpha-Alpha Contribution (a.u.)    : -0.04749717699553
	Alpha-Beta Contribution (a.u.)     : -0.29914826523780
	Beta-Beta Contribution (a.u.)      : -0.04591520797830
	Scaled_SS Correlation Energy (a.u.): -0.03113746165794
	Scaled_OS Correlation Energy (a.u.): -0.35897791828536
	SCS-MP2 Total Energy (a.u.)        : -129.65000976557724
	SOS-MP2 Total Energy (a.u.)        : -129.64878713044305
	SCSN-MP2 Total Energy (a.u.)       : -129.42430018318785
	SCS-MI-MP2 Total Energy (a.u.)     : -129.50005566834525
	SCS-MP2-VDW Total Energy (a.u.)    : -129.68951035762521
	SOS-PI-MP2 Total Energy (a.u.)     : -129.67870195696685
	MP2 Correlation Energy (a.u.)      : -0.39256065021163
	MP2 Total Energy (a.u.)            : -129.65245503584555
	============================================================================== 

	Number of alpha independent-pairs: 84
	Number of beta independent-pairs : 79

 ============================================================================== 
 ================ Performing OMP2 iterations... =============================== 
 ============================================================================== 
	            Minimizing MP2-L Functional 
	            --------------------------- 
 Iter       E_total           DE           RMS MO Grad      MAX MO Grad      RMS T2    
 ----    ---------------    ----------     -----------      -----------     ---------- 
   1     -129.6626890498     -1.02e-02       1.03e-03         4.55e-02        1.73e-06 
   2     -129.6656498736     -2.96e-03       7.69e-04         3.83e-02        7.59e-07 
   3     -129.6668528819     -1.20e-03       6.25e-04         3.14e-02        5.95e-07 
   4     -129.6673821536     -5.29e-04       5.58e-04         2.43e-02        2.33e-07 
   5     -129.6676160919     -2.34e-04       5.04e-04         2.28e-02        2.90e-07 
   6     -129.6679975040     -3.81e-04       6.94e-05         2.82e-03        3.08e-07 
   7     -129.6679948855      2.62e-06       8.02e-05         3.50e-03        3.06e-08 
   8     -129.6680014521     -6.57e-06       3.70e-05         1.50e-03        1.89e-08 
   9     -129.6680027969     -1.34e-06       1.11e-05         4.47e-04        1.47e-08 
  10     -129.6680028748     -7.79e-08       7.09e-06         2.44e-04        2.92e-09 

 ============================================================================== 
 ======================== OMP2 ITERATIONS ARE CONVERGED ======================= 
 ============================================================================== 

	Orbitals are optimized now.
	Switching to the standard MP2 computation after semicanonicalization of the MOs... 

	Computing MP2 energy using optimized MOs... 
	============================================================================== 
	Nuclear Repulsion Energy (a.u.)    : 25.59060766929188
	SCF Energy (a.u.)                  : -129.25989438562090
	REF Energy (a.u.)                  : -129.24979068715467
	Alpha-Alpha Contribution (a.u.)    : -0.04832152082083
	Alpha-Beta Contribution (a.u.)     : -0.31659606977683
	Beta-Beta Contribution (a.u.)      : -0.05329459703940
	Scaled_SS Correlation Energy (a.u.): -0.03387203928674
	Scaled_OS Correlation Energy (a.u.): -0.37991528373220
	SCS-MP2 Total Energy (a.u.)        : -129.66357801017361
	SOS-MP2 Total Energy (a.u.)        : -129.62970597088687
	SCSN-MP2 Total Energy (a.u.)       : -129.42863505458868
	SCS-MI-MP2 Total Energy (a.u.)     : -129.50751390710511
	SCS-MP2-VDW Total Energy (a.u.)    : -129.70584171539912
	SOS-PI-MP2 Total Energy (a.u.)     : -129.69302518484224
	MP2 Correlation Energy (a.u.)      : -0.41821218763706
	MP2 Total Energy (a.u.)            : -129.66800287479174
	============================================================================== 

	============================================================================== 
	================ OMP2 FINAL RESULTS ========================================== 
	============================================================================== 
	Nuclear Repulsion Energy (a.u.)    : 25.59060766929188
	SCF Energy (a.u.)                  : -129.25989438562090
	REF Energy (a.u.)                  : -129.24979068715467
	SCS-OMP2 Total Energy (a.u.)       : -129.66357801017361
	SOS-OMP2 Total Energy (a.u.)       : -129.62970597088687
	SCSN-OMP2 Total Energy (a.u.)      : -129.42863505458868
	SCS-MI-OMP2 Total Energy (a.u.)    : -129.50751390710511
	SCS-OMP2-VDW Total Energy (a.u.)   : -129.70584171539912
	SOS-PI-OMP2 Total Energy (a.u.)    : -129.69302518484224
	OMP2 Correlation Energy (a.u.)     : -0.40810848917053
	Eomp2 - Eref (a.u.)                : -0.41821218763675
	OMP2 Total Energy (a.u.)           : -129.66800287479143
	============================================================================== 


*** tstop() called on ub at Wed Dec  5 12:46:06 2012
Module time:
	user time   =       3.06 seconds =       0.05 minutes
	system time =       0.53 seconds =       0.01 minutes
	total time  =          3 seconds =       0.05 minutes
Total time:
	user time   =       3.62 seconds =       0.06 minutes
	system time =       0.54 seconds =       0.01 minutes
	total time  =          4 seconds =       0.07 minutes

*** PSI4 exiting successfully. Buy a developer a beer!
