
    -----------------------------------------------------------------------
          Psi4: An Open-Source Ab Initio Electronic Structure Package
                               Psi4 1.1rc3.dev5 

                         Git: Rev {master} 3fbd859 


    R. M. Parrish, L. A. Burns, D. G. A. Smith, A. C. Simmonett,
    A. E. DePrince III, E. G. Hohenstein, U. Bozkaya, A. Yu. Sokolov,
    R. Di Remigio, R. M. Richard, J. F. Gonthier, A. M. James,
    H. R. McAlexander, A. Kumar, M. Saitow, X. Wang, B. P. Pritchard,
    P. Verma, H. F. Schaefer III, K. Patkowski, R. A. King, E. F. Valeev,
    F. A. Evangelista, J. M. Turney, T. D. Crawford, and C. D. Sherrill,
    J. Chem. Theory Comput. in press (2017).
    (doi: 10.1021/acs.jctc.7b00174)

    -----------------------------------------------------------------------


    Psi4 started on: Monday, 15 May 2017 03:34PM

    Process ID:  12586
    PSIDATADIR: /home/psilocaluser/gits/hrw-direct/objdir4/stage/usr/local/psi4/share/psi4
    Memory:     500.0 MiB
    Threads:    1
    
  ==> Input File <==

--------------------------------------------------------------------------
#! ROHF-EOM-CCSD/DZ analytic gradient lowest $^{2}A@@1$ excited state of H2O+ (B1 excitation)

molecule h2o {
  1 2
  H -0.107055195862289   0.000000000000000  -1.832806614599657
  O -0.107055195862289   0.000000000000000   0.094714436481352
  H  1.806098405595803   0.000000000000000   0.329620161376194
  units bohr
}

set {
  reference rohf
  basis DZ
  roots_per_irrep [1, 0, 0, 0]
}

analytic_grad = gradient('eom-ccsd')

findif_grad = gradient('eom-ccsd', dertype=0)

compare_matrices(analytic_grad, findif_grad, 5, "ROHF-EOM-CCSD findif (3-pt.) vs. analytic gradient to 10^-5") #TEST

set findif points 5

findif_grad = gradient('eom-ccsd', dertype=0)

compare_matrices(analytic_grad, findif_grad, 6, "ROHF-EOM-CCSD findif (5-pt.) vs. analytic gradient to 10^-7") #TEST

--------------------------------------------------------------------------
gradient() will perform analytic gradient computation.

*** tstart() called on psinet
*** at Mon May 15 15:34:19 2017

   => Loading Basis Set <=

    Name: DZ
    Role: ORBITAL
    Keyword: BASIS
    atoms 1, 3 entry H          line    11 file /home/psilocaluser/gits/hrw-direct/objdir4/stage/usr/local/psi4/share/psi4/basis/dz.gbs 
    atoms 2    entry O          line   106 file /home/psilocaluser/gits/hrw-direct/objdir4/stage/usr/local/psi4/share/psi4/basis/dz.gbs 


         ---------------------------------------------------------
                                   SCF
            by Justin Turney, Rob Parrish, and Andy Simmonett
                             ROHF Reference
                        1 Threads,    500 MiB Core
         ---------------------------------------------------------

  ==> Geometry <==

    Molecular point group: c2v
    Full point group: C2v

    Geometry (in Bohr), charge = 1, multiplicity = 2:

       Center              X                  Y                   Z               Mass       
    ------------   -----------------  -----------------  -----------------  -----------------
           H          0.000000000000    -1.443627918148     1.134274838578     1.007825032070
           O          0.000000000000     0.000000000000    -0.142939253226    15.994914619560
           H         -0.000000000000     1.443627918148     1.134274838578     1.007825032070

  Running in c2v symmetry.

  Rotational constants: A =     20.61565  B =     14.33074  C =      8.45402 [cm^-1]
  Rotational constants: A = 618041.72688  B = 429624.71072  C = 253445.16976 [MHz]
  Nuclear repulsion =    8.647166888151858

  Charge       = 1
  Multiplicity = 2
  Electrons    = 9
  Nalpha       = 5
  Nbeta        = 4

  ==> Algorithm <==

  SCF Algorithm Type is PK.
  DIIS enabled.
  MOM disabled.
  Fractional occupation disabled.
  Guess Type is GWH.
  Energy threshold   = 1.00e-10
  Density threshold  = 1.00e-10
  Integral threshold = 0.00e+00

  ==> Primary Basis <==

  Basis Set: DZ
    Blend: DZ
    Number of shells: 10
    Number of basis function: 14
    Number of Cartesian functions: 14
    Spherical Harmonics?: false
    Max angular momentum: 1

  ==> Pre-Iterations <==

   -------------------------------------------------------
    Irrep   Nso     Nmo     Nalpha   Nbeta   Ndocc  Nsocc
   -------------------------------------------------------
     A1         8       8       0       0       0       0
     A2         0       0       0       0       0       0
     B1         2       2       0       0       0       0
     B2         4       4       0       0       0       0
   -------------------------------------------------------
    Total      14      14       5       4       4       1
   -------------------------------------------------------

  ==> Integral Setup <==

  Using in-core PK algorithm.
   Calculation information:
      Number of atoms:                   3
      Number of AO shells:              10
      Number of primitives:             22
      Number of atomic orbitals:        14
      Number of basis functions:        14

      Integral cutoff                 1.00e-12
      Number of threads:                 1

  Performing in-core PK
  Using 11130 doubles for integral storage.
  We computed 1540 shell quartets total.
  Whereas there are 1540 unique shell quartets.
  ==> DiskJK: Disk-Based J/K Matrices <==

    J tasked:                  Yes
    K tasked:                  Yes
    wK tasked:                  No
    Memory (MB):               375
    Schwarz Cutoff:          1E-12

    OpenMP threads:              1
  Minimum eigenvalue in the overlap matrix is 6.0756533921E-02.
  Using Symmetric Orthogonalization.

  SCF Guess: Generalized Wolfsberg-Helmholtz.

  ==> Iterations <==

                        Total Energy        Delta E     RMS |[F,P]|

   @ROHF iter   1:   -75.16982263377545   -7.51698e+01   1.92698e-01 
   @ROHF iter   2:   -75.55643165414817   -3.86609e-01   2.64915e-02 DIIS
   @ROHF iter   3:   -75.58961723935938   -3.31856e-02   9.89439e-03 DIIS
   @ROHF iter   4:   -75.59639478423601   -6.77754e-03   1.60717e-03 DIIS
   @ROHF iter   5:   -75.59666512181167   -2.70338e-04   1.84434e-04 DIIS
   @ROHF iter   6:   -75.59667159430872   -6.47250e-06   4.78215e-05 DIIS
   @ROHF iter   7:   -75.59667210359775   -5.09289e-07   7.66843e-06 DIIS
   @ROHF iter   8:   -75.59667211495875   -1.13610e-08   5.59658e-07 DIIS
   @ROHF iter   9:   -75.59667211502342   -6.46736e-11   4.33755e-08 DIIS
   @ROHF iter  10:   -75.59667211502371   -2.84217e-13   4.84753e-09 DIIS
   @ROHF iter  11:   -75.59667211502365    5.68434e-14   2.36743e-10 DIIS
   @ROHF iter  12:   -75.59667211502364    1.42109e-14   3.67113e-11 DIIS

  ==> Post-Iterations <==

    Orbital Energies (a.u.)
    -----------------------

    Doubly Occupied:                                                      

       1A1   -21.104066     2A1    -1.813380     1B2    -1.147058  
       3A1    -1.051937  

    Singly Occupied:                                                      

       1B1    -0.690072  

    Virtual:                                                              

       4A1    -0.141833     2B2    -0.064208     2B1     0.460457  
       5A1     0.502093     3B2     0.545323     4B2     0.756617  
       6A1     0.782858     7A1     1.244045     8A1    42.782181  

    Final Occupation by Irrep:
             A1    A2    B1    B2 
    DOCC [     3,    0,    0,    1 ]
    SOCC [     0,    0,    1,    0 ]

  Energy converged.

  @ROHF Final Energy:   -75.59667211502364

   => Energetics <=

    Nuclear Repulsion Energy =              8.6471668881518582
    One-Electron Energy =                -117.1401097889369254
    Two-Electron Energy =                  32.8962707857614234
    DFT Exchange-Correlation Energy =       0.0000000000000000
    Empirical Dispersion Energy =           0.0000000000000000
    PCM Polarization Energy =               0.0000000000000000
    EFP Energy =                            0.0000000000000000
    Total Energy =                        -75.5966721150236367



Properties will be evaluated at   0.000000,   0.000000,   0.000000 Bohr

Properties computed using the SCF density matrix

  Nuclear Dipole Moment: (a.u.)
     X:     0.0000      Y:     0.0000      Z:     1.1250

  Electronic Dipole Moment: (a.u.)
     X:     0.0000      Y:     0.0000      Z:     0.2139

  Dipole Moment: (a.u.)
     X:     0.0000      Y:     0.0000      Z:     1.3389     Total:     1.3389

  Dipole Moment: (Debye)
     X:     0.0000      Y:     0.0000      Z:     3.4031     Total:     3.4031


*** tstop() called on psinet at Mon May 15 15:34:19 2017
Module time:
	user time   =       0.13 seconds =       0.00 minutes
	system time =       0.01 seconds =       0.00 minutes
	total time  =          0 seconds =       0.00 minutes
Total time:
	user time   =       0.13 seconds =       0.00 minutes
	system time =       0.01 seconds =       0.00 minutes
	total time  =          0 seconds =       0.00 minutes
 MINTS: Wrapper to libmints.
   by Justin Turney

   Calculation information:
      Number of threads:                 1
      Number of atoms:                   3
      Number of AO shells:              10
      Number of SO shells:               8
      Number of primitives:             22
      Number of atomic orbitals:        14
      Number of basis functions:        14

      Number of irreps:                  4
      Integral cutoff                 0.00e+00
      Number of functions per irrep: [   8    0    2    4 ]

 OEINTS: Overlap, kinetic, potential, dipole, and quadrupole integrals
         stored in file 35.

      Computing two-electron integrals...done
      Computed 1709 non-zero two-electron integrals.
        Stored in file 33.


*** tstart() called on psinet
*** at Mon May 15 15:34:19 2017


	Wfn Parameters:
	--------------------
	Wavefunction         = CCSD
	Number of irreps     = 4
	Number of MOs        = 14
	Number of active MOs = 14
	AO-Basis             = NONE
	Semicanonical        = false
	Reference            = ROHF
	Print Level          = 1

	IRREP	# MOs	# FZDC	# DOCC	# SOCC	# VIRT	# FZVR
	-----	-----	------	------	------	------	------
	 A1	   8	    0	    3	    0	    5	    0
	 A2	   0	    0	    0	    0	    0	    0
	 B1	   2	    0	    0	    1	    1	    0
	 B2	   4	    0	    1	    0	    3	    0
	Transforming integrals...
	IWL integrals will be deleted.
	(OO|OO)...
	Presorting SO-basis two-electron integrals.
	Sorting File: SO Ints (nn|nn) nbuckets = 1
	Transforming the one-electron integrals and constructing Fock matrices
	Starting first half-transformation.
	Sorting half-transformed integrals.
	First half integral transformation complete.
	Starting second half-transformation.
	Two-electron integral transformation complete.
	(OO|OV)...
	Starting second half-transformation.
	Two-electron integral transformation complete.
	(OO|VV)...
	Starting second half-transformation.
	Two-electron integral transformation complete.
	(OV|OO)...
	Starting first half-transformation.
	Sorting half-transformed integrals.
	First half integral transformation complete.
	Starting second half-transformation.
	Two-electron integral transformation complete.
	(OV|OV)...
	Starting second half-transformation.
	Two-electron integral transformation complete.
	(OV|VV)...
	Starting second half-transformation.
	Two-electron integral transformation complete.
	(VV|OO)...
	Starting first half-transformation.
	Sorting half-transformed integrals.
	First half integral transformation complete.
	Starting second half-transformation.
	Two-electron integral transformation complete.
	(VV|OV)...
	Starting second half-transformation.
	Two-electron integral transformation complete.
	(VV|VV)...
	Starting second half-transformation.
	Two-electron integral transformation complete.
	Frozen core energy     =      0.00000000000000

	Size of irrep 0 of <ab|cd> integrals:      0.001 (MW) /      0.012 (MB)
	Size of irrep 1 of <ab|cd> integrals:      0.000 (MW) /      0.001 (MB)
	Size of irrep 2 of <ab|cd> integrals:      0.000 (MW) /      0.003 (MB)
	Size of irrep 3 of <ab|cd> integrals:      0.001 (MW) /      0.007 (MB)
	Total:                                     0.003 (MW) /      0.023 (MB)

	Size of irrep 0 of <ia|bc> integrals:      0.001 (MW) /      0.006 (MB)
	Size of irrep 1 of <ia|bc> integrals:      0.000 (MW) /      0.000 (MB)
	Size of irrep 2 of <ia|bc> integrals:      0.000 (MW) /      0.002 (MB)
	Size of irrep 3 of <ia|bc> integrals:      0.000 (MW) /      0.003 (MB)
	Total:                                     0.001 (MW) /      0.012 (MB)

	Size of irrep 0 of tIjAb amplitudes:       0.000 (MW) /      0.003 (MB)
	Size of irrep 1 of tIjAb amplitudes:       0.000 (MW) /      0.000 (MB)
	Size of irrep 2 of tIjAb amplitudes:       0.000 (MW) /      0.001 (MB)
	Size of irrep 3 of tIjAb amplitudes:       0.000 (MW) /      0.001 (MB)
	Total:                                     0.001 (MW) /      0.006 (MB)

	Nuclear Rep. energy          =      8.64716688815186
	SCF energy                   =    -75.59667211502364
	One-electron energy          =   -117.14010978974409
	Two-electron (AA) energy     =      7.70651836116919
	Two-electron (BB) energy     =      4.66759374158322
	Two-electron (AB) energy     =     20.52215868381614
	Two-electron energy          =    -84.24383900317554
	Reference energy             =    -75.59667211502368

*** tstop() called on psinet at Mon May 15 15:34:20 2017
Module time:
	user time   =       0.01 seconds =       0.00 minutes
	system time =       0.05 seconds =       0.00 minutes
	total time  =          1 seconds =       0.02 minutes
Total time:
	user time   =       0.16 seconds =       0.00 minutes
	system time =       0.07 seconds =       0.00 minutes
	total time  =          1 seconds =       0.02 minutes

*** tstart() called on psinet
*** at Mon May 15 15:34:20 2017

            **************************
            *                        *
            *        CCENERGY        *
            *                        *
            **************************

    Nuclear Rep. energy (wfn)     =    8.647166888151858
    SCF energy          (wfn)     =  -75.596672115023637
    Reference energy    (file100) =  -75.596672115023679

    Input parameters:
    -----------------
    Wave function   =     CCSD
    Reference wfn   =     ROHF
    Brueckner       =     No
    Memory (Mbytes) =     524.3
    Maxiter         =     50
    R_Convergence   =     1.0e-07
    E_Convergence   =     1.0e-08
    Restart         =     Yes
    DIIS            =     Yes
    AO Basis        =     NONE
    ABCD            =     NEW
    Cache Level     =     2
    Cache Type      =     LOW
    Print Level     =     1
    Num. of threads =     1
    # Amps to Print =     10
    Print MP2 Amps? =     No
    Analyze T2 Amps =     No
    Print Pair Ener =     No
    Local CC        =     No
    SCS-MP2         =     False
    SCSN-MP2        =     False
    SCS-CCSD        =     False

                Solving CC Amplitude Equations
                ------------------------------
  Iter             Energy              RMS        T1Diag      D1Diag    New D1Diag    D2Diag
  ----     ---------------------    ---------   ----------  ----------  ----------   --------
     0        -0.103569696093121    0.000e+00    0.000154    0.000452    0.000452    0.000000
     1        -0.111771016405890    4.000e-02    0.006340    0.011853    0.011853    0.000000
     2        -0.116057760802869    1.502e-02    0.007707    0.014629    0.014629    0.000000
     3        -0.117014007689844    5.657e-03    0.008317    0.016143    0.016143    0.000000
     4        -0.117097862167036    2.369e-03    0.008264    0.016162    0.016162    0.000000
     5        -0.117126152899105    8.858e-04    0.008258    0.016134    0.016134    0.000000
     6        -0.117137544902791    2.853e-04    0.008258    0.016130    0.016130    0.000000
     7        -0.117138549118023    9.235e-05    0.008258    0.016134    0.016134    0.000000
     8        -0.117139118981142    2.776e-05    0.008259    0.016137    0.016137    0.000000
     9        -0.117139054337293    8.950e-06    0.008259    0.016137    0.016137    0.000000
    10        -0.117139022770125    3.122e-06    0.008259    0.016137    0.016137    0.000000
    11        -0.117139010251679    8.247e-07    0.008259    0.016136    0.016136    0.000000
    12        -0.117138986213487    2.241e-07    0.008259    0.016136    0.016136    0.000000
    13        -0.117138980005657    5.580e-08    0.008259    0.016136    0.016136    0.000000
    14        -0.117138979040642    1.787e-08    0.008259    0.016136    0.016136    0.000000

    Iterations converged.


    Largest TIA Amplitudes:
              3   5        -0.0113988848
              1   0        -0.0102859076
              1   2        -0.0095030343
              2   0         0.0083153220
              4   8         0.0070960670
              4   9        -0.0070682586
              1   3         0.0034872585
              2   1         0.0031202484
              1   1         0.0027264724
              2   3         0.0024621913

    Largest Tia Amplitudes:
              4   7         0.0321062803
              1   0         0.0209978078
              2   0         0.0171924939
              2   1        -0.0168047579
              1   2         0.0147755332
              4   9         0.0101495573
              2   3         0.0063791864
              1   1         0.0051303908
              4   8         0.0039696056
              2   2         0.0020776834

    Largest TIJAB Amplitudes:
      3   2   5   1        -0.0233338250
      4   3   7   5         0.0195343683
      4   2   7   1         0.0177278252
      4   3   9   5         0.0147067252
      4   2   9   1         0.0134723401
      4   3   8   5        -0.0129131579
      3   2   5   0         0.0120955320
      4   2   8   1        -0.0113112142
      3   1   5   0         0.0111375519
      3   1   5   3        -0.0100753958

    Largest Tijab Amplitudes:
      4   2   7   1         0.0181308353
      4   2   9   1         0.0130073224
      4   2   8   1        -0.0108998964
      2   1   1   0         0.0091928002
      4   2   7   0        -0.0090597008
      2   1   3   1         0.0084860037
      4   1   8   0         0.0073286524
      4   1   7   0        -0.0071186237
      4   1   7   3         0.0064364904
      4   2   8   0         0.0062958856

    Largest TIjAb Amplitudes:
      4   4   7   7        -0.0526325757
      2   2   1   1        -0.0435528180
      4   4   9   7        -0.0352987205
      4   4   7   9        -0.0347954472
      3   4   7   6         0.0323853217
      3   2   5   1        -0.0313728251
      3   1   0   6         0.0301770089
      4   4   9   9        -0.0299912931
      2   4   1   7         0.0271711001
      4   2   7   1         0.0268068245

    SCF energy       (wfn)                    =  -75.596672115023637
    Reference energy (file100)                =  -75.596672115023679

    Opposite-spin CCSD correlation energy     =   -0.099142117750079
    Same-spin CCSD correlation energy         =   -0.016303560975143
    CCSD correlation energy                   =   -0.117138979040642
      * CCSD total energy                     =  -75.713811094064326


*** tstop() called on psinet at Mon May 15 15:34:20 2017
Module time:
	user time   =       0.12 seconds =       0.00 minutes
	system time =       0.22 seconds =       0.00 minutes
	total time  =          0 seconds =       0.00 minutes
Total time:
	user time   =       0.28 seconds =       0.00 minutes
	system time =       0.29 seconds =       0.00 minutes
	total time  =          1 seconds =       0.02 minutes

*** tstart() called on psinet
*** at Mon May 15 15:34:20 2017


			**************************
			*                        *
			*         CCHBAR         *
			*                        *
			**************************


*** tstop() called on psinet at Mon May 15 15:34:20 2017
Module time:
	user time   =       0.01 seconds =       0.00 minutes
	system time =       0.02 seconds =       0.00 minutes
	total time  =          0 seconds =       0.00 minutes
Total time:
	user time   =       0.29 seconds =       0.00 minutes
	system time =       0.31 seconds =       0.01 minutes
	total time  =          1 seconds =       0.02 minutes

*** tstart() called on psinet
*** at Mon May 15 15:34:20 2017


	**********************************************************
	*  CCEOM: An Equation of Motion Coupled Cluster Program  *
	**********************************************************

	Nuclear Rep. energy (wfn)     =    8.647166888151858
	SCF energy          (wfn)     =  -75.596672115023637
	Reference energy    (file100) =  -75.596672115023679
	CCSD energy         (file100) =   -0.117138979040642

	Input parameters:
	-----------------
	Reference wfn   =    ROHF
	Reference EOM wfn=    ROHF
	Memory (Mbytes) =  524.3
	ABCD            =     NEW
	Cache Level     =    2
	Cache Type      =     LRU
	Num. of threads =     1
	Local CC        =     No


	CCEOM parameters:
	-----------------
	States sought per irrep     = A1 1, A2 0, B1 0, B2 0,
	Max. number of iterations   =    80
	Vectors stored per root     =    12
	Print HbarSS iterations?    =     0
	Excitation range for HBarSS =     2
	Eigenvalue tolerance        = 1.0e-08
	Eigenvalue toleranceSS      = 1.0e-06
	Residual vector tolerance   = 1.0e-06
	Residual vector toleranceSS = 1.0e-06
	Complex tolerance           = 1.0e-12
	Root for properties         =     1
	Sym of state for properties =     B1
	Guess vectors taken from    = SINGLES
	Restart EOM CC3             = NO
	Collapse with last vector   = YES


Symmetry of ground state: B1
Symmetry of excited state: A1
Symmetry of right eigenvector: B1
Obtaining initial guess from singles-singles block of Hbar...Done.

Iter=1    L=1     Root    EOM Energy     Delta E   Res. Norm    Conv?
                     1   0.1189347958   1.19e-01    3.00e-01      N
Iter=2    L=2     Root    EOM Energy     Delta E   Res. Norm    Conv?
                     1   0.0864106109  -3.25e-02    5.95e-02      N
Iter=3    L=3     Root    EOM Energy     Delta E   Res. Norm    Conv?
                     1   0.0856473367  -7.63e-04    1.96e-02      N
Iter=4    L=4     Root    EOM Energy     Delta E   Res. Norm    Conv?
                     1   0.0856067902  -4.05e-05    9.38e-03      N
Iter=5    L=5     Root    EOM Energy     Delta E   Res. Norm    Conv?
                     1   0.0856102654   3.48e-06    3.26e-03      N
Iter=6    L=6     Root    EOM Energy     Delta E   Res. Norm    Conv?
                     1   0.0856229543   1.27e-05    9.65e-04      N
Iter=7    L=7     Root    EOM Energy     Delta E   Res. Norm    Conv?
                     1   0.0856268414   3.89e-06    3.20e-04      N
Iter=8    L=8     Root    EOM Energy     Delta E   Res. Norm    Conv?
                     1   0.0856273930   5.52e-07    6.91e-05      N
Iter=9    L=9     Root    EOM Energy     Delta E   Res. Norm    Conv?
                     1   0.0856275308   1.38e-07    1.93e-05      N
Iter=10   L=10    Root    EOM Energy     Delta E   Res. Norm    Conv?
                     1   0.0856275913   6.05e-08    6.26e-06      N
Iter=11   L=11    Root    EOM Energy     Delta E   Res. Norm    Conv?
                     1   0.0856276193   2.80e-08    1.89e-06      N
Iter=12   L=12    Root    EOM Energy     Delta E   Res. Norm    Conv?
                     1   0.0856276291   9.83e-09    5.12e-07      Y
Iter=13   L=2     Root    EOM Energy     Delta E   Res. Norm    Conv?
                     1   0.0856276291  -2.69e-14    5.12e-07      Y
Collapsing to only 1 vector(s).

Procedure converged for 1 root(s).
Energy written to CC_INFO:Etot  -75.6281834649
States per irrep written to CC_INFO.
<R|R> =   1.0000000000000002
EOM CCSD R0 for root 0 =   0.00000000000

Final Energetic Summary for Converged Roots of Irrep A1
                     Excitation Energy              Total Energy
                (eV)     (cm^-1)     (au)             (au)
EOM State 1      2.330    18793.1   0.0856276291   -75.628183464920

Largest components of excited wave function #1:
 RIA (libdpd indices) : (cscf notation)
         2 >   0      :       3a1 >    2b1 :   -0.0207129468
         0 >   1      :       1b1 >    5a1 :   -0.0107959481
         1 >   0      :       2a1 >    2b1 :    0.0089109243
         0 >   0      :       1b1 >    4a1 :   -0.0058672641
         0 >   2      :       1b1 >    6a1 :   -0.0047465047
 Ria (libdpd indices) : (cscf notation)
         2 >   1      :       3a1 >    1b1 :    0.9884955304
         2 >   0      :       3a1 >    2b1 :   -0.0697008274
         1 >   1      :       2a1 >    1b1 :   -0.0427350919
         1 >   0      :       2a1 >    2b1 :    0.0043932098
         0 >   0      :       1a1 >    2b1 :    0.0006441542
 RIjAb (libdpd indices)     : (cscf notation)
        0   2 >   0   0     :    1b1    3a1 >    2b1    2b1 :   -0.0472141548
        0   2 >   0   1     :    1b1    3a1 >    2b1    1b1 :   -0.0370733549
        2   2 >   1   0     :    3a1    3a1 >    5a1    2b1 :   -0.0341649907
        0   1 >   0   1     :    1b2    2a1 >    2b2    1b1 :    0.0275811209
        0   2 >   0   0     :    1b2    3a1 >    2b2    2b1 :    0.0275690350
 RIJAB (libdpd indices)     : (cscf notation)
        0   0 >   0   0     :    1b2    1b1 >    2b2    4a1 :    0.0008656788
        0   1 >   0   0     :    1b2    2a1 >    2b2    2b1 :   -0.0007774622
        0   2 >   1   0     :    1b1    3a1 >    5a1    4a1 :    0.0007181416
        0   0 >   0   2     :    1b2    1b1 >    2b2    6a1 :    0.0005666087
        0   0 >   2   0     :    1b2    1b1 >    4b2    4a1 :    0.0005131930
 Rijab (libdpd indices)     : (cscf notation)
        0   2 >   0   0     :    1b2    3a1 >    2b2    2b1 :    0.0204751700
        0   2 >   2   0     :    1b2    3a1 >    4b2    2b1 :    0.0143243348
        0   2 >   1   0     :    1b2    3a1 >    3b2    2b1 :   -0.0128385055
        0   1 >   0   1     :    1b2    2a1 >    2b2    1b1 :    0.0117854195
        2   1 >   0   0     :    3a1    2a1 >    2b1    4a1 :    0.0115494303

	Putting into environment energy for root of R irrep 3 and root 1.
	Putting into environment CURRENT ENERGY:              -75.6281834649

	Total # of sigma evaluations: 12

*** tstop() called on psinet at Mon May 15 15:34:20 2017
Module time:
	user time   =       0.07 seconds =       0.00 minutes
	system time =       0.06 seconds =       0.00 minutes
	total time  =          0 seconds =       0.00 minutes
Total time:
	user time   =       0.36 seconds =       0.01 minutes
	system time =       0.37 seconds =       0.01 minutes
	total time  =          1 seconds =       0.02 minutes

*** tstart() called on psinet
*** at Mon May 15 15:34:20 2017


			**************************
			*        CCLAMBDA        *
			**************************


	Nuclear Rep. energy (wfn)     =    8.647166888151858
	Reference           (wfn)     =                    1
	SCF energy          (wfn)     =  -75.596672115023637
	Reference energy    (CC_INFO) =  -75.596672115023679
	CCSD energy         (CC_INFO) =   -0.117138979040642
	Total CCSD energy   (CC_INFO) =  -75.713811094064326

	Input parameters:
	-----------------
	Maxiter           =     50
	Convergence       = 1.0e-07
	Restart           =     No
	Cache Level       =     2
	Model III         =     No
	DIIS              =     Yes
	AO Basis          =     No
	ABCD              =     NEW
	Local CC          =     No
	Paramaters for left-handed eigenvectors:
	    Irr   Root  Ground-State?    EOM energy        R0
	  1   2     1         No       0.0856276291   0.0000000000
	Labels for eigenvector 1:
	LIA 2 0, Lia 2 0, LIJAB 2 0, Lijab 2 0, LIjAb 2 0, 2LIjAb - LIjbA 2 0
	Deleting old CC_LAMBDA data.
	Symmetry of left-hand state: A1
	Symmetry of left-hand eigenvector: B1
	Initial overlap of initial guess <L|R> =    1.0000000000
	Checking overlap of initial guess <L|R> =    1.0000000000

	          Solving Lambda Equations
	          ------------------------
	Iter     PseudoEnergy or Norm         RMS  
	----     ---------------------     --------
	   0         1.000000000000000    0.000e+00
	   1         0.998516885549264    2.141e-02
	   2         0.999038931538194    1.011e-02
	   3         0.999850195985073    4.730e-03
	   4         1.000011878296572    1.426e-03
	   5         1.000028473336503    2.899e-04
	   6         1.000037141227071    7.459e-05
	   7         1.000039283825799    2.170e-05
	   8         1.000039713125561    7.430e-06
	   9         1.000039879900809    2.169e-06
	  10         1.000039940012068    6.770e-07
	  11         1.000039954039199    2.243e-07
	  12         1.000039954234419    7.208e-08

	Initial  <L|R>  =        0.9989539490
	Normalizing L...
	L0 * R0 =        0.0000000000
	L1 * R1 =        0.9844714307
	L2 * R2 =        0.0155285693
	 <L|R>  =        1.0000000000
	Pseudoenergy or Norm of normalized L =    1.001087142437825

	Largest LIA Amplitudes:
	          2   5        -0.0210960175
	          3   1        -0.0112580673
	          1   5         0.0084723969
	          3   0        -0.0064649575
	          3   2        -0.0048030359
	          3   3         0.0034054137
	          0   5         0.0005124681
	          3   4         0.0000188097

	Largest Lia Amplitudes:
	          2   6         0.9882783070
	          2   5        -0.0712451637
	          1   6        -0.0438567792
	          1   5         0.0037481895
	          0   5         0.0006410355
	          0   6         0.0005706664

	Largest LIJAB Amplitudes:
	  4   3   7   0         0.0013012246
	  3   2   1   0         0.0010520889
	  4   3   9   0         0.0007830823
	  4   1   7   5        -0.0007826194
	  4   3   7   2         0.0006591161
	  4   2   7   5         0.0006486219
	  3   2   2   1        -0.0005304004
	  2   1   5   0         0.0004993698
	  4   1   9   5        -0.0004851317
	  2   1   5   2         0.0004242790

	Largest Lijab Amplitudes:
	  4   2   7   5         0.0269177938
	  4   2   9   5         0.0183893289
	  4   2   8   5        -0.0156219189
	  2   1   5   0         0.0149375927
	  4   2   7   6         0.0146219719
	  4   1   7   6         0.0141137955
	  4   2   8   6        -0.0115157817
	  2   1   5   3        -0.0114252041
	  2   1   6   3        -0.0103521922
	  2   1   6   0         0.0098512117

	Largest LIjAb Amplitudes:
	  3   2   5   5        -0.0509129188
	  2   2   1   5        -0.0388410479
	  3   2   5   6        -0.0355124289
	  4   2   7   5         0.0335537460
	  4   1   7   6         0.0298718735
	  2   2   1   6         0.0265147474
	  4   2   9   5         0.0246756116
	  1   2   0   5         0.0238184230
	  4   1   9   6         0.0221192072
	  1   2   3   5        -0.0206075598

	Iterations converged.


*** tstop() called on psinet at Mon May 15 15:34:20 2017
Module time:
	user time   =       0.05 seconds =       0.00 minutes
	system time =       0.04 seconds =       0.00 minutes
	total time  =          0 seconds =       0.00 minutes
Total time:
	user time   =       0.41 seconds =       0.01 minutes
	system time =       0.41 seconds =       0.01 minutes
	total time  =          1 seconds =       0.02 minutes

*** tstart() called on psinet
*** at Mon May 15 15:34:20 2017


			**************************
			*                        *
			*        CCDENSITY       *
			*                        *
			**************************


	Input parameters:
	-----------------
	Wave function    = EOM_CCSD
	Reference wfn    =  ROHF
	Dertype          = 1
	Tolerance        = 1.0e-14
	Cache Level      = 2
	AO Basis         = No
	OPDM Only        = No
	Relax OPDM       = Yes
	Compute Xi       = Yes
	Use Zeta         = No
	Xi connected     = Yes
	Compute NO       = No

	Nuclear Rep. energy (wfn)     =    8.647166888151858
	SCF energy          (wfn)     =  -75.596672115023637
	Reference energy    (file100) =  -75.596672115023679
	CCSD energy         (CC_INFO) =   -0.117138979040642
	Total CCSD energy   (CC_INFO) =  -75.713811094064326
	Number of States = 1

	Ground?  State     EOM Energy       R0
	   No     1 B1    0.0856276291   0.00000000

energy:    0.0856276291
XIA amplitudes: norm=   0.065710146998292 dot=   0.004317823418537
X1 amplitudes:  norm=   0.077827157496047 dot=   0.006057066443914
Norm of Xi:    1.399201380302604

*** tstop() called on psinet at Mon May 15 15:34:20 2017
Module time:
	user time   =       0.01 seconds =       0.00 minutes
	system time =       0.03 seconds =       0.00 minutes
	total time  =          0 seconds =       0.00 minutes
Total time:
	user time   =       0.42 seconds =       0.01 minutes
	system time =       0.44 seconds =       0.01 minutes
	total time  =          1 seconds =       0.02 minutes

*** tstart() called on psinet
*** at Mon May 15 15:34:20 2017


			**************************
			*        CCLAMBDA        *
			**************************


	Nuclear Rep. energy (wfn)     =    8.647166888151858
	Reference           (wfn)     =                    1
	SCF energy          (wfn)     =  -75.596672115023637
	Reference energy    (CC_INFO) =  -75.596672115023679
	CCSD energy         (CC_INFO) =   -0.117138979040642
	Total CCSD energy   (CC_INFO) =  -75.713811094064326
	Irrep of Zeta       (CC_INFO) = 0

	Input parameters:
	-----------------
	Maxiter           =     50
	Convergence       = 1.0e-07
	Restart           =     No
	Cache Level       =     2
	Model III         =     No
	DIIS              =     Yes
	AO Basis          =     No
	ABCD              =     NEW
	Local CC          =     No
	Paramaters for left-handed eigenvectors:
	    Irr   Root  Ground-State?    EOM energy        R0
	  1   0     1         No       0.0000000000   0.0000000000
	Labels for eigenvector 1:
	ZIA, Zia, ZIJAB, Zijab, ZIjAb, 2ZIjAb - ZIjbA
	Deleting old CC_LAMBDA data.
	Symmetry of left-hand state: B1
	Symmetry of left-hand eigenvector: A1

	          Solving Lambda Equations
	          ------------------------
	Iter     PseudoEnergy or Norm         RMS  
	----     ---------------------     --------
	   0         0.117406450278563    7.208e-08
	   1         0.153431103145213    5.594e-02
	   2         0.164157351679256    1.556e-02
	   3         0.166850544205606    4.191e-03
	   4         0.167159894268111    1.127e-03
	   5         0.167201298100205    3.909e-04
	   6         0.167204750127351    1.556e-04
	   7         0.167204103910074    5.845e-05
	   8         0.167203638715182    1.967e-05
	   9         0.167204069707796    5.553e-06
	  10         0.167203981864033    2.002e-06
	  11         0.167203909279154    7.715e-07
	  12         0.167203918248901    1.903e-07
	  13         0.167203918742410    4.466e-08

	Largest LIA Amplitudes:
	          3   5        -0.0395879152
	          2   1         0.0314022470
	          2   0        -0.0127645515
	          1   0         0.0122831585
	          1   1        -0.0110581614
	          2   3        -0.0083136729
	          4   7        -0.0044230025
	          1   2         0.0041843835
	          1   3         0.0038892569
	          4   8         0.0034798264

	Largest Lia Amplitudes:
	          4   7         0.0210803499
	          1   0         0.0106767117
	          1   3        -0.0061630014
	          4   9         0.0059219287
	          1   1         0.0046959721
	          2   1         0.0044008624
	          4   8        -0.0038799822
	          2   3        -0.0021729293
	          2   2         0.0016615005
	          1   2         0.0016032457

	Largest LIJAB Amplitudes:
	  3   2   5   1        -0.0249641179
	  4   3   7   5         0.0197586676
	  4   2   7   1         0.0168917085
	  4   3   9   5         0.0149525893
	  4   2   9   1         0.0132568055
	  3   2   5   0         0.0128312008
	  4   3   8   5        -0.0128202989
	  4   2   8   1        -0.0116332947
	  3   1   5   0         0.0111479236
	  3   1   5   3        -0.0103392839

	Largest Lijab Amplitudes:
	  4   1   8   0         0.0075863283
	  4   1   7   0        -0.0073640015
	  4   2   7   1        -0.0065354933
	  4   1   7   3         0.0063788408
	  4   1   9   3         0.0055767353
	  4   1   8   2         0.0046752898
	  4   1   7   2        -0.0045499829
	  4   1   8   3        -0.0042224787
	  4   2   9   1        -0.0039490199
	  4   1   9   0        -0.0034985101

	Largest LIjAb Amplitudes:
	  4   4   7   7        -0.0506082766
	  4   4   9   7        -0.0340236110
	  4   4   7   9        -0.0335759217
	  4   4   9   9        -0.0288650775
	  2   4   1   7         0.0264787830
	  3   4   5   7         0.0255751073
	  2   4   0   7        -0.0230970499
	  1   4   0   7        -0.0209073506
	  4   4   0   0        -0.0204334377
	  4   1   7   0        -0.0200539547

	Iterations converged.

Norm of Zeta:    0.167203918742410

*** tstop() called on psinet at Mon May 15 15:34:20 2017
Module time:
	user time   =       0.04 seconds =       0.00 minutes
	system time =       0.05 seconds =       0.00 minutes
	total time  =          0 seconds =       0.00 minutes
Total time:
	user time   =       0.46 seconds =       0.01 minutes
	system time =       0.49 seconds =       0.01 minutes
	total time  =          1 seconds =       0.02 minutes

*** tstart() called on psinet
*** at Mon May 15 15:34:20 2017


			**************************
			*                        *
			*        CCDENSITY       *
			*                        *
			**************************


	Input parameters:
	-----------------
	Wave function    = EOM_CCSD
	Reference wfn    =  ROHF
	Dertype          = 1
	Tolerance        = 1.0e-14
	Cache Level      = 2
	AO Basis         = No
	OPDM Only        = No
	Relax OPDM       = Yes
	Compute Xi       = No
	Use Zeta         = Yes
	Xi connected     = Yes
	Compute NO       = No

	Nuclear Rep. energy (wfn)     =    8.647166888151858
	SCF energy          (wfn)     =  -75.596672115023637
	Reference energy    (file100) =  -75.596672115023679
	CCSD energy         (CC_INFO) =   -0.117138979040642
	Total CCSD energy   (CC_INFO) =  -75.713811094064326
	Number of States = 1

	Ground?  State     EOM Energy       R0
	   No     1 B1    0.0856276291   0.00000000

	Energies re-computed from CC density:
	-------------------------------------
	One-electron energy        =    0.862740477301151
	IJKL energy                =    0.030742450579786
	IJKA energy                =   -0.006347798347691
	IJAB energy                =   -0.159270110171450
	IBJA energy                =   -0.724973854756486
	CIAB energy                =   -0.060573355167219
	ABCD energy                =    0.026170843681232
	Total two-electron energy  =   -0.894251824181826
	Total EOM CCSD correlation energy        =   -0.031511346880675
	CCSD correlation + EOM excitation energy =   -0.031511349896625
	Total EOM CCSD energy                    =  -75.628183461904356

	Virial Theorem Data:
	--------------------
	Kinetic energy (ref)   =   75.635518029961759
	Kinetic energy (corr)  =   -0.094972395870747
	Kinetic energy (total) =   75.540545634091018
	-V/T (ref)             =    1.999486406440389
	-V/T (corr)            =   -0.233400273486450
	-V/T (total)           =    2.002293674986312

	Energies re-computed from Fock-adjusted CC density:
	---------------------------------------------------
	One-electron energy        =    0.216238030133621
	IJKL energy                =   -6.448230431379189
	IJKA energy                =   -0.134282490381596
	IJAB energy                =   -0.159270110171450
	IBJA energy                =    6.528436166413258
	CIAB energy                =   -0.060573355167219
	ABCD energy                =    0.026170843681232
	Total two-electron energy  =   -0.247749377004964
	Total EOM CCSD correlation energy        =   -0.031511346871342
	CCSD correlation + EOM excitation energy =   -0.031511349896625
	Total EOM CCSD energy                    =  -75.628183461895020

	Energies re-computed from Mulliken density:
	-------------------------------------------
	One-electron energy        =    0.216238030133621
	IJKL energy                =   -6.448230431379188
	IJKA energy                =   -0.134282490381596
	IJAB energy                =   -0.346338853818727
	IBJA energy                =    6.715504910060535
	CIAB energy                =   -0.060573355167219
	ABCD energy                =    0.026170843681232
	Total two-electron energy  =   -0.247749377004964
	Total EOM CCSD correlation energy        =   -0.031511346871342
	CCSD correlation + EOM excitation energy =   -0.031511349896625
	Total EOM CCSD energy                    =  -75.628183461895020


Properties will be evaluated at   0.000000,   0.000000,   0.000000 Bohr

Properties computed using the CC density matrix

  Nuclear Dipole Moment: (a.u.)
     X:     0.0000      Y:     0.0000      Z:     1.1250

  Electronic Dipole Moment: (a.u.)
     X:     0.0000      Y:     0.0000      Z:    -0.0578

  Dipole Moment: (a.u.)
     X:     0.0000      Y:     0.0000      Z:     1.0673     Total:     1.0673

  Dipole Moment: (Debye)
     X:     0.0000      Y:     0.0000      Z:     2.7127     Total:     2.7127

  Quadrupole Moment: (Debye Ang)
    XX:    -6.1355     YY:    -2.2906     ZZ:    -2.6567
    XY:    -0.0000     XZ:     0.0000     YZ:     0.0000

  Traceless Quadrupole Moment: (Debye Ang)
    XX:    -2.4412     YY:     1.4037     ZZ:     1.0376
    XY:    -0.0000     XZ:     0.0000     YZ:     0.0000

  Mulliken Charges: (a.u.)
   Center  Symbol    Alpha    Beta     Spin     Total
       1     H     0.23186  0.20267  0.02919  0.56548
       2     O     4.53628  3.59467  0.94161 -0.13095
       3     H     0.23186  0.20267  0.02919  0.56548

   Total alpha =  5.00000, Total beta =  4.00000, Total charge =  1.00000

  Natural Orbital Occupations:

  Alpha Occupations:
  HONO-2 :    1 B1    0.992
  HONO-1 :    3 A1    0.990
  HONO-0 :    1 B2    0.985
  LUNO+0 :    2 B2    0.014
  LUNO+1 :    4 A1    0.011
  LUNO+2 :    2 B1    0.007
  LUNO+3 :    5 A1    0.004

  Beta Occupations:
  HONO-2 :    2 A1    0.991
  HONO-1 :    1 B1    0.990
  HONO-0 :    1 B2    0.982
  LUNO+0 :    2 B2    0.013
  LUNO+1 :    2 B1    0.009
  LUNO+2 :    3 A1    0.008
  LUNO+3 :    4 A1    0.008

  Total Occupations:
  HONO-2 :    2 A1    1.984
  HONO-1 :    1 B1    1.982
  HONO-0 :    1 B2    1.967
  LUNO+0 :    3 A1    0.997
  LUNO+1 :    2 B2    0.028
  LUNO+2 :    4 A1    0.018
  LUNO+3 :    2 B1    0.017


*** tstop() called on psinet at Mon May 15 15:34:20 2017
Module time:
	user time   =       0.06 seconds =       0.00 minutes
	system time =       0.07 seconds =       0.00 minutes
	total time  =          0 seconds =       0.00 minutes
Total time:
	user time   =       0.52 seconds =       0.01 minutes
	system time =       0.56 seconds =       0.01 minutes
	total time  =          1 seconds =       0.02 minutes
  Cartesian Displacement SALCs
  By SALC:
  Number of SALCs: 3, nirreps: 1
  Project out translations: False
  Project out rotations: False
	irrep = 0, ncomponent = 2
		0: atom 0, direction y, coef 0.707107
		1: atom 2, direction y, coef -0.707107
	irrep = 0, ncomponent = 2
		0: atom 0, direction z, coef 0.707107
		1: atom 2, direction z, coef 0.707107
	irrep = 0, ncomponent = 1
		0: atom 1, direction z, coef 1.000000

  By Atomic Center:
  Number of atomic centers: 3
   Atomic Center 0:
	x component, size = 0
	y component, size = 1
		0: salc 0, irrep 0, coef 0.707107
	z component, size = 1
		0: salc 1, irrep 0, coef 0.707107
   Atomic Center 1:
	x component, size = 0
	y component, size = 0
	z component, size = 1
		0: salc 2, irrep 0, coef 1.000000
   Atomic Center 2:
	x component, size = 0
	y component, size = 1
		0: salc 0, irrep 0, coef -0.707107
	z component, size = 1
		0: salc 1, irrep 0, coef 0.707107

    Molecular point group: c2v
    Full point group: C2v

    Geometry (in Bohr), charge = 1, multiplicity = 2:

       Center              X                  Y                   Z       
    ------------   -----------------  -----------------  -----------------
           H          0.000000000000    -1.443627918148     1.134274838578
           O          0.000000000000     0.000000000000    -0.142939253226
           H         -0.000000000000     1.443627918148     1.134274838578

	Presorting MO-basis TPDM.
	Sorting File: MO TPDM (AA|AA) nbuckets = 1
	Starting first half-transformation.
	Sorting half-transformed TPDM.
	First half integral transformation complete.


  -Nuclear Repulsion Energy 1st Derivatives:
     Atom            X                  Y                   Z
    ------   -----------------  -----------------  -----------------
       1       -0.000000000000     1.732636842258    -1.426777654799
       2        0.000000000000     0.000000000000     2.853555309597
       3        0.000000000000    -1.732636842258    -1.426777654799


  -One-electron contribution to gradient:
     Atom            X                  Y                   Z
    ------   -----------------  -----------------  -----------------
       1        0.000000000000    -3.292168684166     3.545864266325
       2        0.000000000000     0.000000000000    -7.091728532650
       3       -0.000000000000     3.292168684166     3.545864266325


  -Lagrangian contribution to gradient:
     Atom            X                  Y                   Z
    ------   -----------------  -----------------  -----------------
       1       -0.000000000000     0.242131364742    -0.336279090421
       2        0.000000000000     0.000000000000     0.672558180842
       3        0.000000000000    -0.242131364742    -0.336279090421


  -Two-electron contribution to gradient:
     Atom            X                  Y                   Z
    ------   -----------------  -----------------  -----------------
       1       -0.000000000000     1.372711458779    -1.729095758796
       2        0.000000000000     0.000000000000     3.458191517591
       3        0.000000000000    -1.372711458779    -1.729095758796


  -Total gradient:
     Atom            X                  Y                   Z
    ------   -----------------  -----------------  -----------------
       1       -0.000000000000     0.055310981612     0.053711762310
       2        0.000000000000     0.000000000000    -0.107423524619
       3        0.000000000000    -0.055310981612     0.053711762310

gradient() will perform gradient computation by finite difference of analytic energies.

-------------------------------------------------------------

  Using finite-differences of energies to determine gradients (fd_geoms_1_0).
	Generating geometries for use with 3-point formula.
	Displacement size will be 5.00e-03.
	Number of atoms is 3.
	Number of symmetric SALC's is 2.
	Number of displacements (including reference) is 5.

-------------------------------------------------------------

  //>>>>>>>>>>>>>>>>>>>>>>>>>>>>>>>>>>>//
  //    Loading displacement 1 of 5    //
  //<<<<<<<<<<<<<<<<<<<<<<<<<<<<<<<<<<<//

*** tstart() called on psinet
*** at Mon May 15 15:34:21 2017

   => Loading Basis Set <=

    Name: DZ
    Role: ORBITAL
    Keyword: BASIS
    atoms 1, 3 entry H          line    11 file /home/psilocaluser/gits/hrw-direct/objdir4/stage/usr/local/psi4/share/psi4/basis/dz.gbs 
    atoms 2    entry O          line   106 file /home/psilocaluser/gits/hrw-direct/objdir4/stage/usr/local/psi4/share/psi4/basis/dz.gbs 


         ---------------------------------------------------------
                                   SCF
            by Justin Turney, Rob Parrish, and Andy Simmonett
                             ROHF Reference
                        1 Threads,    500 MiB Core
         ---------------------------------------------------------

  ==> Geometry <==

    Molecular point group: c2v
    Full point group: C2v

    Geometry (in Bohr), charge = 1, multiplicity = 2:

       Center              X                  Y                   Z               Mass       
    ------------   -----------------  -----------------  -----------------  -----------------
           H          0.000000000000    -1.447149699877     1.134274838578     1.007825032070
           O          0.000000000000     0.000000000000    -0.142939253226    15.994914619560
           H         -0.000000000000     1.447149699877     1.134274838578     1.007825032070

  Running in c2v symmetry.

  Rotational constants: A =     20.61565  B =     14.26107  C =      8.42973 [cm^-1]
  Rotational constants: A = 618041.72688  B = 427536.18680  C = 252716.89439 [MHz]
  Nuclear repulsion =    8.634974470989285

  Charge       = 1
  Multiplicity = 2
  Electrons    = 9
  Nalpha       = 5
  Nbeta        = 4

  ==> Algorithm <==

  SCF Algorithm Type is PK.
  DIIS enabled.
  MOM disabled.
  Fractional occupation disabled.
  Guess Type is GWH.
  Energy threshold   = 1.00e-10
  Density threshold  = 1.00e-10
  Integral threshold = 0.00e+00

  ==> Primary Basis <==

  Basis Set: DZ
    Blend: DZ
    Number of shells: 10
    Number of basis function: 14
    Number of Cartesian functions: 14
    Spherical Harmonics?: false
    Max angular momentum: 1

  ==> Pre-Iterations <==

   -------------------------------------------------------
    Irrep   Nso     Nmo     Nalpha   Nbeta   Ndocc  Nsocc
   -------------------------------------------------------
     A1         8       8       0       0       0       0
     A2         0       0       0       0       0       0
     B1         2       2       0       0       0       0
     B2         4       4       0       0       0       0
   -------------------------------------------------------
    Total      14      14       5       4       4       1
   -------------------------------------------------------

  ==> Integral Setup <==

  Using in-core PK algorithm.
   Calculation information:
      Number of atoms:                   3
      Number of AO shells:              10
      Number of primitives:             22
      Number of atomic orbitals:        14
      Number of basis functions:        14

      Integral cutoff                 1.00e-12
      Number of threads:                 1

  Performing in-core PK
  Using 11130 doubles for integral storage.
  We computed 1540 shell quartets total.
  Whereas there are 1540 unique shell quartets.
  ==> DiskJK: Disk-Based J/K Matrices <==

    J tasked:                  Yes
    K tasked:                  Yes
    wK tasked:                  No
    Memory (MB):               375
    Schwarz Cutoff:          1E-12

    OpenMP threads:              1
  Minimum eigenvalue in the overlap matrix is 6.0948076218E-02.
  Using Symmetric Orthogonalization.

  SCF Guess: Generalized Wolfsberg-Helmholtz.

  ==> Iterations <==

                        Total Energy        Delta E     RMS |[F,P]|

   @ROHF iter   1:   -75.16904144114466   -7.51690e+01   1.92837e-01 
   @ROHF iter   2:   -75.55598660270675   -3.86945e-01   2.66750e-02 DIIS
   @ROHF iter   3:   -75.58957592828258   -3.35893e-02   9.97207e-03 DIIS
   @ROHF iter   4:   -75.59645430040740   -6.87837e-03   1.61063e-03 DIIS
   @ROHF iter   5:   -75.59672576448432   -2.71464e-04   1.84761e-04 DIIS
   @ROHF iter   6:   -75.59673226714918   -6.50266e-06   4.81370e-05 DIIS
   @ROHF iter   7:   -75.59673278425416   -5.17105e-07   7.72583e-06 DIIS
   @ROHF iter   8:   -75.59673279581006   -1.15559e-08   5.63800e-07 DIIS
   @ROHF iter   9:   -75.59673279587582   -6.57678e-11   4.37262e-08 DIIS
   @ROHF iter  10:   -75.59673279587608   -2.55795e-13   4.88363e-09 DIIS
   @ROHF iter  11:   -75.59673279587619   -1.13687e-13   2.39524e-10 DIIS
   @ROHF iter  12:   -75.59673279587611    8.52651e-14   3.71493e-11 DIIS

  ==> Post-Iterations <==

    Orbital Energies (a.u.)
    -----------------------

    Doubly Occupied:                                                      

       1A1   -21.103823     2A1    -1.812332     1B2    -1.146358  
       3A1    -1.051235  

    Singly Occupied:                                                      

       1B1    -0.689705  

    Virtual:                                                              

       4A1    -0.142199     2B2    -0.064703     2B1     0.460664  
       5A1     0.502268     3B2     0.546306     4B2     0.755942  
       6A1     0.781311     7A1     1.243377     8A1    42.782104  

    Final Occupation by Irrep:
             A1    A2    B1    B2 
    DOCC [     3,    0,    0,    1 ]
    SOCC [     0,    0,    1,    0 ]

  Energy converged.

  @ROHF Final Energy:   -75.59673279587611

   => Energetics <=

    Nuclear Repulsion Energy =              8.6349744709892846
    One-Electron Energy =                -117.1216293315774806
    Two-Electron Energy =                  32.8899220647120885
    DFT Exchange-Correlation Energy =       0.0000000000000000
    Empirical Dispersion Energy =           0.0000000000000000
    PCM Polarization Energy =               0.0000000000000000
    EFP Energy =                            0.0000000000000000
    Total Energy =                        -75.5967327958761075



Properties will be evaluated at   0.000000,   0.000000,   0.000000 Bohr

Properties computed using the SCF density matrix

  Nuclear Dipole Moment: (a.u.)
     X:     0.0000      Y:     0.0000      Z:     1.1250

  Electronic Dipole Moment: (a.u.)
     X:     0.0000      Y:     0.0000      Z:     0.2143

  Dipole Moment: (a.u.)
     X:     0.0000      Y:     0.0000      Z:     1.3394     Total:     1.3394

  Dipole Moment: (Debye)
     X:     0.0000      Y:     0.0000      Z:     3.4043     Total:     3.4043


*** tstop() called on psinet at Mon May 15 15:34:21 2017
Module time:
	user time   =       0.13 seconds =       0.00 minutes
	system time =       0.01 seconds =       0.00 minutes
	total time  =          0 seconds =       0.00 minutes
Total time:
	user time   =       0.70 seconds =       0.01 minutes
	system time =       0.58 seconds =       0.01 minutes
	total time  =          2 seconds =       0.03 minutes
 MINTS: Wrapper to libmints.
   by Justin Turney

   Calculation information:
      Number of threads:                 1
      Number of atoms:                   3
      Number of AO shells:              10
      Number of SO shells:               8
      Number of primitives:             22
      Number of atomic orbitals:        14
      Number of basis functions:        14

      Number of irreps:                  4
      Integral cutoff                 0.00e+00
      Number of functions per irrep: [   8    0    2    4 ]

 OEINTS: Overlap, kinetic, potential, dipole, and quadrupole integrals
         stored in file 35.

      Computing two-electron integrals...done
      Computed 1709 non-zero two-electron integrals.
        Stored in file 33.


*** tstart() called on psinet
*** at Mon May 15 15:34:21 2017


	Wfn Parameters:
	--------------------
	Wavefunction         = CCSD
	Number of irreps     = 4
	Number of MOs        = 14
	Number of active MOs = 14
	AO-Basis             = NONE
	Semicanonical        = false
	Reference            = ROHF
	Print Level          = 1

	IRREP	# MOs	# FZDC	# DOCC	# SOCC	# VIRT	# FZVR
	-----	-----	------	------	------	------	------
	 A1	   8	    0	    3	    0	    5	    0
	 A2	   0	    0	    0	    0	    0	    0
	 B1	   2	    0	    0	    1	    1	    0
	 B2	   4	    0	    1	    0	    3	    0
	Transforming integrals...
	IWL integrals will be deleted.
	(OO|OO)...
	Presorting SO-basis two-electron integrals.
	Sorting File: SO Ints (nn|nn) nbuckets = 1
	Transforming the one-electron integrals and constructing Fock matrices
	Starting first half-transformation.
	Sorting half-transformed integrals.
	First half integral transformation complete.
	Starting second half-transformation.
	Two-electron integral transformation complete.
	(OO|OV)...
	Starting second half-transformation.
	Two-electron integral transformation complete.
	(OO|VV)...
	Starting second half-transformation.
	Two-electron integral transformation complete.
	(OV|OO)...
	Starting first half-transformation.
	Sorting half-transformed integrals.
	First half integral transformation complete.
	Starting second half-transformation.
	Two-electron integral transformation complete.
	(OV|OV)...
	Starting second half-transformation.
	Two-electron integral transformation complete.
	(OV|VV)...
	Starting second half-transformation.
	Two-electron integral transformation complete.
	(VV|OO)...
	Starting first half-transformation.
	Sorting half-transformed integrals.
	First half integral transformation complete.
	Starting second half-transformation.
	Two-electron integral transformation complete.
	(VV|OV)...
	Starting second half-transformation.
	Two-electron integral transformation complete.
	(VV|VV)...
	Starting second half-transformation.
	Two-electron integral transformation complete.
	Frozen core energy     =      0.00000000000000

	Size of irrep 0 of <ab|cd> integrals:      0.001 (MW) /      0.012 (MB)
	Size of irrep 1 of <ab|cd> integrals:      0.000 (MW) /      0.001 (MB)
	Size of irrep 2 of <ab|cd> integrals:      0.000 (MW) /      0.003 (MB)
	Size of irrep 3 of <ab|cd> integrals:      0.001 (MW) /      0.007 (MB)
	Total:                                     0.003 (MW) /      0.023 (MB)

	Size of irrep 0 of <ia|bc> integrals:      0.001 (MW) /      0.006 (MB)
	Size of irrep 1 of <ia|bc> integrals:      0.000 (MW) /      0.000 (MB)
	Size of irrep 2 of <ia|bc> integrals:      0.000 (MW) /      0.002 (MB)
	Size of irrep 3 of <ia|bc> integrals:      0.000 (MW) /      0.003 (MB)
	Total:                                     0.001 (MW) /      0.012 (MB)

	Size of irrep 0 of tIjAb amplitudes:       0.000 (MW) /      0.003 (MB)
	Size of irrep 1 of tIjAb amplitudes:       0.000 (MW) /      0.000 (MB)
	Size of irrep 2 of tIjAb amplitudes:       0.000 (MW) /      0.001 (MB)
	Size of irrep 3 of tIjAb amplitudes:       0.000 (MW) /      0.001 (MB)
	Total:                                     0.001 (MW) /      0.006 (MB)

	Nuclear Rep. energy          =      8.63497447098928
	SCF energy                   =    -75.59673279587611
	One-electron energy          =   -117.12162933239676
	Two-electron (AA) energy     =      7.70498226799506
	Two-electron (BB) energy     =      4.66652056081760
	Two-electron (AB) energy     =     20.51841923671864
	Two-electron energy          =    -84.23170726686546
	Reference energy             =    -75.59673279587616

*** tstop() called on psinet at Mon May 15 15:34:21 2017
Module time:
	user time   =       0.01 seconds =       0.00 minutes
	system time =       0.04 seconds =       0.00 minutes
	total time  =          0 seconds =       0.00 minutes
Total time:
	user time   =       0.73 seconds =       0.01 minutes
	system time =       0.62 seconds =       0.01 minutes
	total time  =          2 seconds =       0.03 minutes

*** tstart() called on psinet
*** at Mon May 15 15:34:21 2017

            **************************
            *                        *
            *        CCENERGY        *
            *                        *
            **************************

    Nuclear Rep. energy (wfn)     =    8.634974470989285
    SCF energy          (wfn)     =  -75.596732795876108
    Reference energy    (file100) =  -75.596732795876164

    Input parameters:
    -----------------
    Wave function   =     CCSD
    Reference wfn   =     ROHF
    Brueckner       =     No
    Memory (Mbytes) =     524.3
    Maxiter         =     50
    R_Convergence   =     1.0e-07
    E_Convergence   =     1.0e-08
    Restart         =     Yes
    DIIS            =     Yes
    AO Basis        =     NONE
    ABCD            =     NEW
    Cache Level     =     2
    Cache Type      =     LOW
    Print Level     =     1
    Num. of threads =     1
    # Amps to Print =     10
    Print MP2 Amps? =     No
    Analyze T2 Amps =     No
    Print Pair Ener =     No
    Local CC        =     No
    SCS-MP2         =     False
    SCSN-MP2        =     False
    SCS-CCSD        =     False

    Using old T1 amplitudes.
    Using old T2 amplitudes.
                Solving CC Amplitude Equations
                ------------------------------
  Iter             Energy              RMS        T1Diag      D1Diag    New D1Diag    D2Diag
  ----     ---------------------    ---------   ----------  ----------  ----------   --------
     0        -0.117161398424762    0.000e+00    0.008259    0.016136    0.016136    0.000000
     1        -0.117231172253386    4.733e-04    0.008268    0.016143    0.016143    0.000000
     2        -0.117239186401922    1.299e-04    0.008281    0.016171    0.016171    0.000000
     3        -0.117246102372316    4.909e-05    0.008286    0.016181    0.016181    0.000000
     4        -0.117247208470092    1.666e-05    0.008287    0.016184    0.016184    0.000000
     5        -0.117247657089705    7.328e-06    0.008288    0.016184    0.016184    0.000000
     6        -0.117247740601990    2.837e-06    0.008288    0.016183    0.016183    0.000000
     7        -0.117247752776643    8.626e-07    0.008288    0.016183    0.016183    0.000000
     8        -0.117247761798272    2.462e-07    0.008288    0.016183    0.016183    0.000000
     9        -0.117247763934247    4.478e-08    0.008288    0.016183    0.016183    0.000000

    Iterations converged.


    Largest TIA Amplitudes:
              3   5        -0.0113963279
              1   0        -0.0103004956
              1   2        -0.0094665302
              2   0         0.0083418563
              4   8         0.0071450956
              4   9        -0.0070666610
              1   3         0.0035220916
              2   1         0.0031311960
              1   1         0.0027445625
              2   3         0.0024767603

    Largest Tia Amplitudes:
              4   7         0.0321919492
              1   0         0.0210565835
              2   0         0.0173385679
              2   1        -0.0168041339
              1   2         0.0147730567
              4   9         0.0101578498
              2   3         0.0063963156
              1   1         0.0051148116
              4   8         0.0039819651
              2   2         0.0021090418

    Largest TIJAB Amplitudes:
      3   2   5   1        -0.0233464133
      4   3   7   5         0.0195575876
      4   2   7   1         0.0177534468
      4   3   9   5         0.0146863848
      4   2   9   1         0.0134561218
      4   3   8   5        -0.0129394605
      3   2   5   0         0.0121240131
      4   2   8   1        -0.0113417719
      3   1   5   0         0.0111374460
      3   1   5   3        -0.0100918266

    Largest Tijab Amplitudes:
      4   2   7   1         0.0181562373
      4   2   9   1         0.0129896281
      4   2   8   1        -0.0109262864
      2   1   1   0         0.0091953978
      4   2   7   0        -0.0090646123
      2   1   3   1         0.0085045880
      4   1   8   0         0.0073358291
      4   1   7   0        -0.0071286314
      4   1   7   3         0.0064533443
      4   2   8   0         0.0063322525

    Largest TIjAb Amplitudes:
      4   4   7   7        -0.0527739356
      2   2   1   1        -0.0435877195
      4   4   9   7        -0.0353093548
      4   4   7   9        -0.0348058263
      3   4   7   6         0.0324719568
      3   2   5   1        -0.0313859793
      3   1   0   6         0.0302442258
      4   4   9   9        -0.0299419555
      2   4   1   7         0.0272298714
      4   2   7   1         0.0268623787

    SCF energy       (wfn)                    =  -75.596732795876108
    Reference energy (file100)                =  -75.596732795876164

    Opposite-spin CCSD correlation energy     =   -0.099234307944888
    Same-spin CCSD correlation energy         =   -0.016319630238749
    CCSD correlation energy                   =   -0.117247763934247
      * CCSD total energy                     =  -75.713980559810409


*** tstop() called on psinet at Mon May 15 15:34:21 2017
Module time:
	user time   =       0.11 seconds =       0.00 minutes
	system time =       0.20 seconds =       0.00 minutes
	total time  =          0 seconds =       0.00 minutes
Total time:
	user time   =       0.84 seconds =       0.01 minutes
	system time =       0.82 seconds =       0.01 minutes
	total time  =          2 seconds =       0.03 minutes

*** tstart() called on psinet
*** at Mon May 15 15:34:21 2017


			**************************
			*                        *
			*         CCHBAR         *
			*                        *
			**************************


*** tstop() called on psinet at Mon May 15 15:34:21 2017
Module time:
	user time   =       0.02 seconds =       0.00 minutes
	system time =       0.03 seconds =       0.00 minutes
	total time  =          0 seconds =       0.00 minutes
Total time:
	user time   =       0.86 seconds =       0.01 minutes
	system time =       0.85 seconds =       0.01 minutes
	total time  =          2 seconds =       0.03 minutes

*** tstart() called on psinet
*** at Mon May 15 15:34:21 2017


	**********************************************************
	*  CCEOM: An Equation of Motion Coupled Cluster Program  *
	**********************************************************

	Nuclear Rep. energy (wfn)     =    8.634974470989285
	SCF energy          (wfn)     =  -75.596732795876108
	Reference energy    (file100) =  -75.596732795876164
	CCSD energy         (file100) =   -0.117247763934247

	Input parameters:
	-----------------
	Reference wfn   =    ROHF
	Reference EOM wfn=    ROHF
	Memory (Mbytes) =  524.3
	ABCD            =     NEW
	Cache Level     =    2
	Cache Type      =     LRU
	Num. of threads =     1
	Local CC        =     No


	CCEOM parameters:
	-----------------
	States sought per irrep     = A1 1, A2 0, B1 0, B2 0,
	Max. number of iterations   =    80
	Vectors stored per root     =    12
	Print HbarSS iterations?    =     0
	Excitation range for HBarSS =     2
	Eigenvalue tolerance        = 1.0e-08
	Eigenvalue toleranceSS      = 1.0e-06
	Residual vector tolerance   = 1.0e-06
	Residual vector toleranceSS = 1.0e-06
	Complex tolerance           = 1.0e-12
	Root for properties         =     1
	Sym of state for properties =     B1
	Guess vectors taken from    = SINGLES
	Restart EOM CC3             = NO
	Collapse with last vector   = YES


Symmetry of ground state: B1
Symmetry of excited state: A1
Symmetry of right eigenvector: B1
Obtaining initial guess from singles-singles block of Hbar...Done.

Iter=1    L=1     Root    EOM Energy     Delta E   Res. Norm    Conv?
                     1   0.1187223149   1.19e-01    3.00e-01      N
Iter=2    L=2     Root    EOM Energy     Delta E   Res. Norm    Conv?
                     1   0.0861948397  -3.25e-02    5.95e-02      N
Iter=3    L=3     Root    EOM Energy     Delta E   Res. Norm    Conv?
                     1   0.0854312698  -7.64e-04    1.96e-02      N
Iter=4    L=4     Root    EOM Energy     Delta E   Res. Norm    Conv?
                     1   0.0853908180  -4.05e-05    9.39e-03      N
Iter=5    L=5     Root    EOM Energy     Delta E   Res. Norm    Conv?
                     1   0.0853943927   3.57e-06    3.27e-03      N
Iter=6    L=6     Root    EOM Energy     Delta E   Res. Norm    Conv?
                     1   0.0854071465   1.28e-05    9.69e-04      N
Iter=7    L=7     Root    EOM Energy     Delta E   Res. Norm    Conv?
                     1   0.0854110412   3.89e-06    3.21e-04      N
Iter=8    L=8     Root    EOM Energy     Delta E   Res. Norm    Conv?
                     1   0.0854115923   5.51e-07    6.94e-05      N
Iter=9    L=9     Root    EOM Energy     Delta E   Res. Norm    Conv?
                     1   0.0854117305   1.38e-07    1.94e-05      N
Iter=10   L=10    Root    EOM Energy     Delta E   Res. Norm    Conv?
                     1   0.0854117914   6.09e-08    6.29e-06      N
Iter=11   L=11    Root    EOM Energy     Delta E   Res. Norm    Conv?
                     1   0.0854118196   2.82e-08    1.90e-06      N
Iter=12   L=12    Root    EOM Energy     Delta E   Res. Norm    Conv?
                     1   0.0854118295   9.93e-09    5.16e-07      Y
Iter=13   L=2     Root    EOM Energy     Delta E   Res. Norm    Conv?
                     1   0.0854118295   2.66e-13    5.16e-07      Y
Collapsing to only 1 vector(s).

Procedure converged for 1 root(s).
Energy written to CC_INFO:Etot  -75.6285687303
States per irrep written to CC_INFO.
<R|R> =   1.0000000000000000
EOM CCSD R0 for root 0 =   0.00000000000

Final Energetic Summary for Converged Roots of Irrep A1
                     Excitation Energy              Total Energy
                (eV)     (cm^-1)     (au)             (au)
EOM State 1      2.324    18745.7   0.0854118295   -75.628568730308

Largest components of excited wave function #1:
 RIA (libdpd indices) : (cscf notation)
         2 >   0      :       3a1 >    2b1 :   -0.0206959741
         0 >   1      :       1b1 >    5a1 :   -0.0107845593
         1 >   0      :       2a1 >    2b1 :    0.0089037206
         0 >   0      :       1b1 >    4a1 :   -0.0057999672
         0 >   2      :       1b1 >    6a1 :   -0.0047111765
 Ria (libdpd indices) : (cscf notation)
         2 >   1      :       3a1 >    1b1 :    0.9884874555
         2 >   0      :       3a1 >    2b1 :   -0.0697070202
         1 >   1      :       2a1 >    1b1 :   -0.0428190526
         1 >   0      :       2a1 >    2b1 :    0.0043860698
         0 >   0      :       1a1 >    2b1 :    0.0006428094
 RIjAb (libdpd indices)     : (cscf notation)
        0   2 >   0   0     :    1b1    3a1 >    2b1    2b1 :   -0.0472237392
        0   2 >   0   1     :    1b1    3a1 >    2b1    1b1 :   -0.0370998751
        2   2 >   1   0     :    3a1    3a1 >    5a1    2b1 :   -0.0341836803
        0   2 >   0   0     :    1b2    3a1 >    2b2    2b1 :    0.0276031659
        0   1 >   0   1     :    1b2    2a1 >    2b2    1b1 :    0.0276006871
 RIJAB (libdpd indices)     : (cscf notation)
        0   0 >   0   0     :    1b2    1b1 >    2b2    4a1 :    0.0008668009
        0   1 >   0   0     :    1b2    2a1 >    2b2    2b1 :   -0.0007784126
        0   2 >   1   0     :    1b1    3a1 >    5a1    4a1 :    0.0007168148
        0   0 >   0   2     :    1b2    1b1 >    2b2    6a1 :    0.0005655989
        0   0 >   2   0     :    1b2    1b1 >    4b2    4a1 :    0.0005125951
 Rijab (libdpd indices)     : (cscf notation)
        0   2 >   0   0     :    1b2    3a1 >    2b2    2b1 :    0.0204983778
        0   2 >   2   0     :    1b2    3a1 >    4b2    2b1 :    0.0143015049
        0   2 >   1   0     :    1b2    3a1 >    3b2    2b1 :   -0.0128609961
        0   1 >   0   1     :    1b2    2a1 >    2b2    1b1 :    0.0118079672
        2   1 >   0   0     :    3a1    2a1 >    2b1    4a1 :    0.0115501885

	Putting into environment energy for root of R irrep 3 and root 1.
	Putting into environment CURRENT ENERGY:              -75.6285687303

	Total # of sigma evaluations: 12

*** tstop() called on psinet at Mon May 15 15:34:21 2017
Module time:
	user time   =       0.07 seconds =       0.00 minutes
	system time =       0.07 seconds =       0.00 minutes
	total time  =          0 seconds =       0.00 minutes
Total time:
	user time   =       0.93 seconds =       0.02 minutes
	system time =       0.92 seconds =       0.02 minutes
	total time  =          2 seconds =       0.03 minutes

  //>>>>>>>>>>>>>>>>>>>>>>>>>>>>>>>>>>>//
  //    Loading displacement 2 of 5    //
  //<<<<<<<<<<<<<<<<<<<<<<<<<<<<<<<<<<<//

*** tstart() called on psinet
*** at Mon May 15 15:34:21 2017

   => Loading Basis Set <=

    Name: DZ
    Role: ORBITAL
    Keyword: BASIS
    atoms 1, 3 entry H          line    11 file /home/psilocaluser/gits/hrw-direct/objdir4/stage/usr/local/psi4/share/psi4/basis/dz.gbs 
    atoms 2    entry O          line   106 file /home/psilocaluser/gits/hrw-direct/objdir4/stage/usr/local/psi4/share/psi4/basis/dz.gbs 


         ---------------------------------------------------------
                                   SCF
            by Justin Turney, Rob Parrish, and Andy Simmonett
                             ROHF Reference
                        1 Threads,    500 MiB Core
         ---------------------------------------------------------

  ==> Geometry <==

    Molecular point group: c2v
    Full point group: C2v

    Geometry (in Bohr), charge = 1, multiplicity = 2:

       Center              X                  Y                   Z               Mass       
    ------------   -----------------  -----------------  -----------------  -----------------
           H          0.000000000000    -1.440106136420     1.134274838578     1.007825032070
           O         -0.000000000000     0.000000000000    -0.142939253226    15.994914619560
           H         -0.000000000000     1.440106136420     1.134274838578     1.007825032070

  Running in c2v symmetry.

  Rotational constants: A =     20.61565  B =     14.40092  C =      8.47839 [cm^-1]
  Rotational constants: A = 618041.72688  B = 431728.57584  C = 254175.86482 [MHz]
  Nuclear repulsion =    8.659382348734434

  Charge       = 1
  Multiplicity = 2
  Electrons    = 9
  Nalpha       = 5
  Nbeta        = 4

  ==> Algorithm <==

  SCF Algorithm Type is PK.
  DIIS enabled.
  MOM disabled.
  Fractional occupation disabled.
  Guess Type is GWH.
  Energy threshold   = 1.00e-10
  Density threshold  = 1.00e-10
  Integral threshold = 0.00e+00

  ==> Primary Basis <==

  Basis Set: DZ
    Blend: DZ
    Number of shells: 10
    Number of basis function: 14
    Number of Cartesian functions: 14
    Spherical Harmonics?: false
    Max angular momentum: 1

  ==> Pre-Iterations <==

   -------------------------------------------------------
    Irrep   Nso     Nmo     Nalpha   Nbeta   Ndocc  Nsocc
   -------------------------------------------------------
     A1         8       8       0       0       0       0
     A2         0       0       0       0       0       0
     B1         2       2       0       0       0       0
     B2         4       4       0       0       0       0
   -------------------------------------------------------
    Total      14      14       5       4       4       1
   -------------------------------------------------------

  ==> Integral Setup <==

  Using in-core PK algorithm.
   Calculation information:
      Number of atoms:                   3
      Number of AO shells:              10
      Number of primitives:             22
      Number of atomic orbitals:        14
      Number of basis functions:        14

      Integral cutoff                 1.00e-12
      Number of threads:                 1

  Performing in-core PK
  Using 11130 doubles for integral storage.
  We computed 1540 shell quartets total.
  Whereas there are 1540 unique shell quartets.
  ==> DiskJK: Disk-Based J/K Matrices <==

    J tasked:                  Yes
    K tasked:                  Yes
    wK tasked:                  No
    Memory (MB):               375
    Schwarz Cutoff:          1E-12

    OpenMP threads:              1
  Minimum eigenvalue in the overlap matrix is 6.0565460892E-02.
  Using Symmetric Orthogonalization.

  SCF Guess: Generalized Wolfsberg-Helmholtz.

  ==> Iterations <==

                        Total Energy        Delta E     RMS |[F,P]|

   @ROHF iter   1:   -75.17058288696667   -7.51706e+01   1.92559e-01 
   @ROHF iter   2:   -75.55686367551432   -3.86281e-01   2.63083e-02 DIIS
   @ROHF iter   3:   -75.58964983699455   -3.27862e-02   9.81670e-03 DIIS
   @ROHF iter   4:   -75.59632739617483   -6.67756e-03   1.60377e-03 DIIS
   @ROHF iter   5:   -75.59659661752295   -2.69221e-04   1.84112e-04 DIIS
   @ROHF iter   6:   -75.59660306023297   -6.44271e-06   4.75072e-05 DIIS
   @ROHF iter   7:   -75.59660356179766   -5.01565e-07   7.61122e-06 DIIS
   @ROHF iter   8:   -75.59660357296669   -1.11690e-08   5.55570e-07 DIIS
   @ROHF iter   9:   -75.59660357303039   -6.37073e-11   4.30321e-08 DIIS
   @ROHF iter  10:   -75.59660357303065   -2.55795e-13   4.81173e-09 DIIS
   @ROHF iter  11:   -75.59660357303066   -1.42109e-14   2.33990e-10 DIIS
   @ROHF iter  12:   -75.59660357303069   -2.84217e-14   3.62760e-11 DIIS

  ==> Post-Iterations <==

    Orbital Energies (a.u.)
    -----------------------

    Doubly Occupied:                                                      

       1A1   -21.104308     2A1    -1.814430     1B2    -1.147755  
       3A1    -1.052639  

    Singly Occupied:                                                      

       1B1    -0.690438  

    Virtual:                                                              

       4A1    -0.141470     2B2    -0.063713     2B1     0.460250  
       5A1     0.501918     3B2     0.544344     4B2     0.757295  
       6A1     0.784415     7A1     1.244711     8A1    42.782257  

    Final Occupation by Irrep:
             A1    A2    B1    B2 
    DOCC [     3,    0,    0,    1 ]
    SOCC [     0,    0,    1,    0 ]

  Energy converged.

  @ROHF Final Energy:   -75.59660357303069

   => Energetics <=

    Nuclear Repulsion Energy =              8.6593823487344341
    One-Electron Energy =                -117.1586194842982991
    Two-Electron Energy =                  32.9026335625331541
    DFT Exchange-Correlation Energy =       0.0000000000000000
    Empirical Dispersion Energy =           0.0000000000000000
    PCM Polarization Energy =               0.0000000000000000
    EFP Energy =                            0.0000000000000000
    Total Energy =                        -75.5966035730307055



Properties will be evaluated at   0.000000,   0.000000,   0.000000 Bohr

Properties computed using the SCF density matrix

  Nuclear Dipole Moment: (a.u.)
     X:     0.0000      Y:     0.0000      Z:     1.1250

  Electronic Dipole Moment: (a.u.)
     X:     0.0000      Y:     0.0000      Z:     0.2134

  Dipole Moment: (a.u.)
     X:     0.0000      Y:     0.0000      Z:     1.3384     Total:     1.3384

  Dipole Moment: (Debye)
     X:     0.0000      Y:     0.0000      Z:     3.4019     Total:     3.4019


*** tstop() called on psinet at Mon May 15 15:34:21 2017
Module time:
	user time   =       0.11 seconds =       0.00 minutes
	system time =       0.02 seconds =       0.00 minutes
	total time  =          0 seconds =       0.00 minutes
Total time:
	user time   =       1.04 seconds =       0.02 minutes
	system time =       0.95 seconds =       0.02 minutes
	total time  =          2 seconds =       0.03 minutes
 MINTS: Wrapper to libmints.
   by Justin Turney

   Calculation information:
      Number of threads:                 1
      Number of atoms:                   3
      Number of AO shells:              10
      Number of SO shells:               8
      Number of primitives:             22
      Number of atomic orbitals:        14
      Number of basis functions:        14

      Number of irreps:                  4
      Integral cutoff                 0.00e+00
      Number of functions per irrep: [   8    0    2    4 ]

 OEINTS: Overlap, kinetic, potential, dipole, and quadrupole integrals
         stored in file 35.

      Computing two-electron integrals...done
      Computed 1709 non-zero two-electron integrals.
        Stored in file 33.


*** tstart() called on psinet
*** at Mon May 15 15:34:21 2017


	Wfn Parameters:
	--------------------
	Wavefunction         = CCSD
	Number of irreps     = 4
	Number of MOs        = 14
	Number of active MOs = 14
	AO-Basis             = NONE
	Semicanonical        = false
	Reference            = ROHF
	Print Level          = 1

	IRREP	# MOs	# FZDC	# DOCC	# SOCC	# VIRT	# FZVR
	-----	-----	------	------	------	------	------
	 A1	   8	    0	    3	    0	    5	    0
	 A2	   0	    0	    0	    0	    0	    0
	 B1	   2	    0	    0	    1	    1	    0
	 B2	   4	    0	    1	    0	    3	    0
	Transforming integrals...
	IWL integrals will be deleted.
	(OO|OO)...
	Presorting SO-basis two-electron integrals.
	Sorting File: SO Ints (nn|nn) nbuckets = 1
	Transforming the one-electron integrals and constructing Fock matrices
	Starting first half-transformation.
	Sorting half-transformed integrals.
	First half integral transformation complete.
[...]
    Empirical Dispersion Energy =           0.0000000000000000
    PCM Polarization Energy =               0.0000000000000000
    EFP Energy =                            0.0000000000000000
    Total Energy =                        -75.5966721150236225



Properties will be evaluated at   0.000000,   0.000000,   0.000000 Bohr

Properties computed using the SCF density matrix

  Nuclear Dipole Moment: (a.u.)
     X:     0.0000      Y:     0.0000      Z:     1.1250

  Electronic Dipole Moment: (a.u.)
     X:     0.0000      Y:     0.0000      Z:     0.2139

  Dipole Moment: (a.u.)
     X:     0.0000      Y:     0.0000      Z:     1.3389     Total:     1.3389

  Dipole Moment: (Debye)
     X:     0.0000      Y:     0.0000      Z:     3.4031     Total:     3.4031


*** tstop() called on psinet at Mon May 15 15:34:30 2017
Module time:
	user time   =       0.12 seconds =       0.00 minutes
	system time =       0.01 seconds =       0.00 minutes
	total time  =          0 seconds =       0.00 minutes
Total time:
	user time   =       4.99 seconds =       0.08 minutes
	system time =       4.45 seconds =       0.07 minutes
	total time  =         11 seconds =       0.18 minutes
 MINTS: Wrapper to libmints.
   by Justin Turney

   Calculation information:
      Number of threads:                 1
      Number of atoms:                   3
      Number of AO shells:              10
      Number of SO shells:               8
      Number of primitives:             22
      Number of atomic orbitals:        14
      Number of basis functions:        14

      Number of irreps:                  4
      Integral cutoff                 0.00e+00
      Number of functions per irrep: [   8    0    2    4 ]

 OEINTS: Overlap, kinetic, potential, dipole, and quadrupole integrals
         stored in file 35.

      Computing two-electron integrals...done
      Computed 1709 non-zero two-electron integrals.
        Stored in file 33.


*** tstart() called on psinet
*** at Mon May 15 15:34:30 2017


	Wfn Parameters:
	--------------------
	Wavefunction         = CCSD
	Number of irreps     = 4
	Number of MOs        = 14
	Number of active MOs = 14
	AO-Basis             = NONE
	Semicanonical        = false
	Reference            = ROHF
	Print Level          = 1

	IRREP	# MOs	# FZDC	# DOCC	# SOCC	# VIRT	# FZVR
	-----	-----	------	------	------	------	------
	 A1	   8	    0	    3	    0	    5	    0
	 A2	   0	    0	    0	    0	    0	    0
	 B1	   2	    0	    0	    1	    1	    0
	 B2	   4	    0	    1	    0	    3	    0
	Transforming integrals...
	IWL integrals will be deleted.
	(OO|OO)...
	Presorting SO-basis two-electron integrals.
	Sorting File: SO Ints (nn|nn) nbuckets = 1
	Transforming the one-electron integrals and constructing Fock matrices
	Starting first half-transformation.
	Sorting half-transformed integrals.
	First half integral transformation complete.
	Starting second half-transformation.
	Two-electron integral transformation complete.
	(OO|OV)...
	Starting second half-transformation.
	Two-electron integral transformation complete.
	(OO|VV)...
	Starting second half-transformation.
	Two-electron integral transformation complete.
	(OV|OO)...
	Starting first half-transformation.
	Sorting half-transformed integrals.
	First half integral transformation complete.
	Starting second half-transformation.
	Two-electron integral transformation complete.
	(OV|OV)...
	Starting second half-transformation.
	Two-electron integral transformation complete.
	(OV|VV)...
	Starting second half-transformation.
	Two-electron integral transformation complete.
	(VV|OO)...
	Starting first half-transformation.
	Sorting half-transformed integrals.
	First half integral transformation complete.
	Starting second half-transformation.
	Two-electron integral transformation complete.
	(VV|OV)...
	Starting second half-transformation.
	Two-electron integral transformation complete.
	(VV|VV)...
	Starting second half-transformation.
	Two-electron integral transformation complete.
	Frozen core energy     =      0.00000000000000

	Size of irrep 0 of <ab|cd> integrals:      0.001 (MW) /      0.012 (MB)
	Size of irrep 1 of <ab|cd> integrals:      0.000 (MW) /      0.001 (MB)
	Size of irrep 2 of <ab|cd> integrals:      0.000 (MW) /      0.003 (MB)
	Size of irrep 3 of <ab|cd> integrals:      0.001 (MW) /      0.007 (MB)
	Total:                                     0.003 (MW) /      0.023 (MB)

	Size of irrep 0 of <ia|bc> integrals:      0.001 (MW) /      0.006 (MB)
	Size of irrep 1 of <ia|bc> integrals:      0.000 (MW) /      0.000 (MB)
	Size of irrep 2 of <ia|bc> integrals:      0.000 (MW) /      0.002 (MB)
	Size of irrep 3 of <ia|bc> integrals:      0.000 (MW) /      0.003 (MB)
	Total:                                     0.001 (MW) /      0.012 (MB)

	Size of irrep 0 of tIjAb amplitudes:       0.000 (MW) /      0.003 (MB)
	Size of irrep 1 of tIjAb amplitudes:       0.000 (MW) /      0.000 (MB)
	Size of irrep 2 of tIjAb amplitudes:       0.000 (MW) /      0.001 (MB)
	Size of irrep 3 of tIjAb amplitudes:       0.000 (MW) /      0.001 (MB)
	Total:                                     0.001 (MW) /      0.006 (MB)

	Nuclear Rep. energy          =      8.64716688815186
	SCF energy                   =    -75.59667211502362
	One-electron energy          =   -117.14010978974406
	Two-electron (AA) energy     =      7.70651836116918
	Two-electron (BB) energy     =      4.66759374158321
	Two-electron (AB) energy     =     20.52215868381612
	Two-electron energy          =    -84.24383900317554
	Reference energy             =    -75.59667211502368

*** tstop() called on psinet at Mon May 15 15:34:30 2017
Module time:
	user time   =       0.01 seconds =       0.00 minutes
	system time =       0.03 seconds =       0.00 minutes
	total time  =          0 seconds =       0.00 minutes
Total time:
	user time   =       5.02 seconds =       0.08 minutes
	system time =       4.48 seconds =       0.07 minutes
	total time  =         11 seconds =       0.18 minutes

*** tstart() called on psinet
*** at Mon May 15 15:34:30 2017

            **************************
            *                        *
            *        CCENERGY        *
            *                        *
            **************************

    Nuclear Rep. energy (wfn)     =    8.647166888151858
    SCF energy          (wfn)     =  -75.596672115023622
    Reference energy    (file100) =  -75.596672115023679

    Input parameters:
    -----------------
    Wave function   =     CCSD
    Reference wfn   =     ROHF
    Brueckner       =     No
    Memory (Mbytes) =     524.3
    Maxiter         =     50
    R_Convergence   =     1.0e-07
    E_Convergence   =     1.0e-08
    Restart         =     Yes
    DIIS            =     Yes
    AO Basis        =     NONE
    ABCD            =     NEW
    Cache Level     =     2
    Cache Type      =     LOW
    Print Level     =     1
    Num. of threads =     1
    # Amps to Print =     10
    Print MP2 Amps? =     No
    Analyze T2 Amps =     No
    Print Pair Ener =     No
    Local CC        =     No
    SCS-MP2         =     False
    SCSN-MP2        =     False
    SCS-CCSD        =     False

    Using old T1 amplitudes.
    Using old T2 amplitudes.
                Solving CC Amplitude Equations
                ------------------------------
  Iter             Energy              RMS        T1Diag      D1Diag    New D1Diag    D2Diag
  ----     ---------------------    ---------   ----------  ----------  ----------   --------
     0        -0.062170164553090    0.000e+00    0.008326    0.016342    0.016342    0.000000
     1        -0.114628176879048    1.627e-01    0.008607    0.020114    0.020114    0.000000
     2        -0.116165888974002    3.386e-02    0.008837    0.017524    0.017524    0.000000
     3        -0.116967154817595    9.187e-03    0.008341    0.016254    0.016254    0.000000
     4        -0.117052745990821    2.782e-03    0.008295    0.016149    0.016149    0.000000
     5        -0.117128452190820    9.566e-04    0.008251    0.016098    0.016098    0.000000
     6        -0.117133839674115    2.423e-04    0.008257    0.016130    0.016130    0.000000
     7        -0.117136236851997    8.947e-05    0.008258    0.016136    0.016136    0.000000
     8        -0.117137879558390    4.391e-05    0.008259    0.016137    0.016137    0.000000
     9        -0.117138836601696    1.337e-05    0.008259    0.016136    0.016136    0.000000
    10        -0.117138974603816    2.619e-06    0.008259    0.016136    0.016136    0.000000
    11        -0.117138976288779    5.353e-07    0.008259    0.016136    0.016136    0.000000
    12        -0.117138978403052    1.512e-07    0.008259    0.016136    0.016136    0.000000
    13        -0.117138977672329    3.951e-08    0.008259    0.016136    0.016136    0.000000

    Iterations converged.


    Largest TIA Amplitudes:
              3   5        -0.0113988844
              1   0        -0.0102859054
              1   2        -0.0095030340
              2   0         0.0083153222
              4   8         0.0070960665
              4   9        -0.0070682567
              1   3         0.0034872582
              2   1         0.0031202499
              1   1         0.0027264719
              2   3         0.0024621908

    Largest Tia Amplitudes:
              4   7         0.0321062674
              1   0         0.0209978028
              2   0         0.0171925111
              2   1        -0.0168047645
              1   2         0.0147755311
              4   9         0.0101495527
              2   3         0.0063791869
              1   1         0.0051303935
              4   8         0.0039696045
              2   2         0.0020776857

    Largest TIJAB Amplitudes:
      3   2   5   1        -0.0233338243
      4   3   7   5         0.0195343676
      4   2   7   1         0.0177278255
      4   3   9   5         0.0147067247
      4   2   9   1         0.0134723398
      4   3   8   5        -0.0129131576
      3   2   5   0         0.0120955315
      4   2   8   1        -0.0113112139
      3   1   5   0         0.0111375516
      3   1   5   3        -0.0100753957

    Largest Tijab Amplitudes:
      4   2   7   1         0.0181308347
      4   2   9   1         0.0130073223
      4   2   8   1        -0.0108998958
      2   1   1   0         0.0091927993
      4   2   7   0        -0.0090597025
      2   1   3   1         0.0084860034
      4   1   8   0         0.0073286524
      4   1   7   0        -0.0071186233
      4   1   7   3         0.0064364904
      4   2   8   0         0.0062958850

    Largest TIjAb Amplitudes:
      4   4   7   7        -0.0526325717
      2   2   1   1        -0.0435528191
      4   4   9   7        -0.0352987188
      4   4   7   9        -0.0347954454
      3   4   7   6         0.0323852666
      3   2   5   1        -0.0313728255
      3   1   0   6         0.0301770100
      4   4   9   9        -0.0299912925
      2   4   1   7         0.0271710990
      4   2   7   1         0.0268068262

    SCF energy       (wfn)                    =  -75.596672115023622
    Reference energy (file100)                =  -75.596672115023679

    Opposite-spin CCSD correlation energy     =   -0.099142116946341
    Same-spin CCSD correlation energy         =   -0.016303560688748
    CCSD correlation energy                   =   -0.117138977672329
      * CCSD total energy                     =  -75.713811092696005


*** tstop() called on psinet at Mon May 15 15:34:31 2017
Module time:
	user time   =       0.12 seconds =       0.00 minutes
	system time =       0.21 seconds =       0.00 minutes
	total time  =          1 seconds =       0.02 minutes
Total time:
	user time   =       5.14 seconds =       0.09 minutes
	system time =       4.69 seconds =       0.08 minutes
	total time  =         12 seconds =       0.20 minutes

*** tstart() called on psinet
*** at Mon May 15 15:34:31 2017


			**************************
			*                        *
			*         CCHBAR         *
			*                        *
			**************************


*** tstop() called on psinet at Mon May 15 15:34:31 2017
Module time:
	user time   =       0.01 seconds =       0.00 minutes
	system time =       0.02 seconds =       0.00 minutes
	total time  =          0 seconds =       0.00 minutes
Total time:
	user time   =       5.15 seconds =       0.09 minutes
	system time =       4.71 seconds =       0.08 minutes
	total time  =         12 seconds =       0.20 minutes

*** tstart() called on psinet
*** at Mon May 15 15:34:31 2017


	**********************************************************
	*  CCEOM: An Equation of Motion Coupled Cluster Program  *
	**********************************************************

	Nuclear Rep. energy (wfn)     =    8.647166888151858
	SCF energy          (wfn)     =  -75.596672115023622
	Reference energy    (file100) =  -75.596672115023679
	CCSD energy         (file100) =   -0.117138977672329

	Input parameters:
	-----------------
	Reference wfn   =    ROHF
	Reference EOM wfn=    ROHF
	Memory (Mbytes) =  524.3
	ABCD            =     NEW
	Cache Level     =    2
	Cache Type      =     LRU
	Num. of threads =     1
	Local CC        =     No


	CCEOM parameters:
	-----------------
	States sought per irrep     = A1 1, A2 0, B1 0, B2 0,
	Max. number of iterations   =    80
	Vectors stored per root     =    12
	Print HbarSS iterations?    =     0
	Excitation range for HBarSS =     2
	Eigenvalue tolerance        = 1.0e-08
	Eigenvalue toleranceSS      = 1.0e-06
	Residual vector tolerance   = 1.0e-06
	Residual vector toleranceSS = 1.0e-06
	Complex tolerance           = 1.0e-12
	Root for properties         =     1
	Sym of state for properties =     B1
	Guess vectors taken from    = SINGLES
	Restart EOM CC3             = NO
	Collapse with last vector   = YES


Symmetry of ground state: B1
Symmetry of excited state: A1
Symmetry of right eigenvector: B1
Obtaining initial guess from singles-singles block of Hbar...Done.

Iter=1    L=1     Root    EOM Energy     Delta E   Res. Norm    Conv?
                     1   0.1189347957   1.19e-01    3.00e-01      N
Iter=2    L=2     Root    EOM Energy     Delta E   Res. Norm    Conv?
                     1   0.0864106106  -3.25e-02    5.95e-02      N
Iter=3    L=3     Root    EOM Energy     Delta E   Res. Norm    Conv?
                     1   0.0856473364  -7.63e-04    1.96e-02      N
Iter=4    L=4     Root    EOM Energy     Delta E   Res. Norm    Conv?
                     1   0.0856067899  -4.05e-05    9.38e-03      N
Iter=5    L=5     Root    EOM Energy     Delta E   Res. Norm    Conv?
                     1   0.0856102651   3.48e-06    3.26e-03      N
Iter=6    L=6     Root    EOM Energy     Delta E   Res. Norm    Conv?
                     1   0.0856229540   1.27e-05    9.65e-04      N
Iter=7    L=7     Root    EOM Energy     Delta E   Res. Norm    Conv?
                     1   0.0856268411   3.89e-06    3.20e-04      N
Iter=8    L=8     Root    EOM Energy     Delta E   Res. Norm    Conv?
                     1   0.0856273927   5.52e-07    6.91e-05      N
Iter=9    L=9     Root    EOM Energy     Delta E   Res. Norm    Conv?
                     1   0.0856275305   1.38e-07    1.93e-05      N
Iter=10   L=10    Root    EOM Energy     Delta E   Res. Norm    Conv?
                     1   0.0856275910   6.05e-08    6.26e-06      N
Iter=11   L=11    Root    EOM Energy     Delta E   Res. Norm    Conv?
                     1   0.0856276190   2.80e-08    1.89e-06      N
Iter=12   L=12    Root    EOM Energy     Delta E   Res. Norm    Conv?
                     1   0.0856276288   9.83e-09    5.12e-07      Y
Iter=13   L=2     Root    EOM Energy     Delta E   Res. Norm    Conv?
                     1   0.0856276288  -3.20e-13    5.12e-07      Y
Collapsing to only 1 vector(s).

Procedure converged for 1 root(s).
Energy written to CC_INFO:Etot  -75.6281834638
States per irrep written to CC_INFO.
<R|R> =   1.0000000000000000
EOM CCSD R0 for root 0 =   0.00000000000

Final Energetic Summary for Converged Roots of Irrep A1
                     Excitation Energy              Total Energy
                (eV)     (cm^-1)     (au)             (au)
EOM State 1      2.330    18793.1   0.0856276288   -75.628183463848

Largest components of excited wave function #1:
 RIA (libdpd indices) : (cscf notation)
         2 >   0      :       3a1 >    2b1 :   -0.0207129468
         0 >   1      :       1b1 >    5a1 :   -0.0107959481
         1 >   0      :       2a1 >    2b1 :    0.0089109243
         0 >   0      :       1b1 >    4a1 :   -0.0058672643
         0 >   2      :       1b1 >    6a1 :   -0.0047465047
 Ria (libdpd indices) : (cscf notation)
         2 >   1      :       3a1 >    1b1 :    0.9884955304
         2 >   0      :       3a1 >    2b1 :   -0.0697008275
         1 >   1      :       2a1 >    1b1 :   -0.0427350909
         1 >   0      :       2a1 >    2b1 :    0.0043932099
         0 >   0      :       1a1 >    2b1 :    0.0006441542
 RIjAb (libdpd indices)     : (cscf notation)
        0   2 >   0   0     :    1b1    3a1 >    2b1    2b1 :   -0.0472141549
        0   2 >   0   1     :    1b1    3a1 >    2b1    1b1 :   -0.0370733550
        2   2 >   1   0     :    3a1    3a1 >    5a1    2b1 :   -0.0341649908
        0   1 >   0   1     :    1b2    2a1 >    2b2    1b1 :    0.0275811207
        0   2 >   0   0     :    1b2    3a1 >    2b2    2b1 :    0.0275690353
 RIJAB (libdpd indices)     : (cscf notation)
        0   0 >   0   0     :    1b2    1b1 >    2b2    4a1 :    0.0008656787
        0   1 >   0   0     :    1b2    2a1 >    2b2    2b1 :   -0.0007774622
        0   2 >   1   0     :    1b1    3a1 >    5a1    4a1 :    0.0007181416
        0   0 >   0   2     :    1b2    1b1 >    2b2    6a1 :    0.0005666087
        0   0 >   2   0     :    1b2    1b1 >    4b2    4a1 :    0.0005131930
 Rijab (libdpd indices)     : (cscf notation)
        0   2 >   0   0     :    1b2    3a1 >    2b2    2b1 :    0.0204751698
        0   2 >   2   0     :    1b2    3a1 >    4b2    2b1 :    0.0143243349
        0   2 >   1   0     :    1b2    3a1 >    3b2    2b1 :   -0.0128385055
        0   1 >   0   1     :    1b2    2a1 >    2b2    1b1 :    0.0117854195
        2   1 >   0   0     :    3a1    2a1 >    2b1    4a1 :    0.0115494303

	Putting into environment energy for root of R irrep 3 and root 1.
	Putting into environment CURRENT ENERGY:              -75.6281834638

	Total # of sigma evaluations: 12

*** tstop() called on psinet at Mon May 15 15:34:31 2017
Module time:
	user time   =       0.06 seconds =       0.00 minutes
	system time =       0.07 seconds =       0.00 minutes
	total time  =          0 seconds =       0.00 minutes
Total time:
	user time   =       5.21 seconds =       0.09 minutes
	system time =       4.78 seconds =       0.08 minutes
	total time  =         12 seconds =       0.20 minutes

-------------------------------------------------------------

  Computing gradient from energies (fd_1_0).
	Using 5-point formula.
	Energy without displacement:  -75.6281834638
	Check energies below for precision!
	Forces are for mass-weighted, symmetry-adapted cartesians (in au).

	 Coord      Energy(-2)        Energy(-1)        Energy(+1)        Energy(+2)            Force
	    0    -75.6289453996    -75.6285687311    -75.6277895391    -75.6273868962      0.0779172072
	    1    -75.6289775896    -75.6285827270    -75.6277798316    -75.6273718576      0.0802905165

	Gradient written.

-------------------------------------------------------------
  Irrep: 1 Size: 3 x 3

                 1                   2                   3

    1     0.00000000000000     0.05531092867091     0.05371172777695
    2     0.00000000000000     0.00000000000000    -0.10742345555390
    3     0.00000000000000    -0.05531092867091     0.05371172777695



	ROHF-EOM-CCSD findif (5-pt.) vs. analytic gradient to 10^-7.......PASSED

*** Psi4 exiting successfully. Buy a developer a beer!
