    -----------------------------------------------------------------------
          PSI4: An Open-Source Ab Initio Electronic Structure Package
                              PSI 4.0.0-beta4+ Driver

               Git: Rev {c4} 65f6d194f59139e980683c60539dc41ecd62d4d0

    J. M. Turney, A. C. Simmonett, R. M. Parrish, E. G. Hohenstein,
    F. A. Evangelista, J. T. Fermann, B. J. Mintz, L. A. Burns, J. J. Wilke,
    M. L. Abrams, N. J. Russ, M. L. Leininger, C. L. Janssen, E. T. Seidl,
    W. D. Allen, H. F. Schaefer, R. A. King, E. F. Valeev, C. D. Sherrill,
    and T. D. Crawford, WIREs Comput. Mol. Sci., (2011) (doi: 10.1002/wcms.93)

                         Additional Contributions by
    A. E. DePrince, M. Saitow, U. Bozkaya, A. Yu. Sokolov
    -----------------------------------------------------------------------

    Process ID:  21158
    PSI4DATADIR: /theoryfs2/ds/loriab/chem/psi4_trials/c4/psi4/lib

    Using LocalCommunicator (Number of processes = 1)

    Memory level set to 256.000 MB

  ==> Input File <==

--------------------------------------------------------------------------
import qcdb
print 'mem'
print get_memory()


set cfour_calc_level scf
set cfour_basis 4-31g

#! Tests to determine full point group symmetry.  Currently, these only matter
#! for the rotational symmetry number in thermodynamic computations.


molecule HOCl {
  H
  O 1 r1
  Cl 2 r2 1 a1
r1 = 1.0
r2 = 1.7
a1 = 110.0
}

HOCl.update_geometry()
nre = HOCl.nuclear_repulsion_energy()
energy('cfour')
compare_values(nre, get_variable('nuclear repulsion energy'), 3, '[1]  NRE: zmat, external values')


molecule NH3  {
  X
  N 1 rX
  H 2 rNH 1 aXNH
  H 2 rNH 1 aXNH 3 a1
  H 2 rNH 1 aXNH 4 a1

  rX = 1.0
  rNH = 0.95
  aXNH = 115.0
  a1 = 120.0
}
NH3.update_geometry()
nre = NH3.nuclear_repulsion_energy()
energy('cfour')
compare_values(nre, get_variable('nuclear repulsion energy'), 3, '[2]  NRE: zmat, external values, w/dummy')


molecule HCCCl  {
  H  0 0 -1.0
  C  0 0  0.0
  C  0 0  1.1
  Cl 0 0  2.6
}
HCCCl.update_geometry()
nre = HCCCl.nuclear_repulsion_energy()
energy('cfour')
compare_values(nre, get_variable('nuclear repulsion energy'), 3, '[3]  NRE: cartesian, pure')


molecule C2H2 {
  C 0 0  r1
  C 0 0 -r1
  H 0 0  r2
  H 0 0 -r2
  r1 = 0.65
  r2 = 1.75
}
C2H2.update_geometry()
nre = C2H2.nuclear_repulsion_energy()
energy('cfour')
compare_values(nre, get_variable('nuclear repulsion energy'), 3, '[4]  NRE: cartesian, external values, +/-')


molecule N2 {
  N 0.0 0.0 0.0
  N 0.0 0.0 r
  r = 1.1
}

N2.update_geometry()
nre = N2.nuclear_repulsion_energy()
energy('cfour')
compare_values(nre, get_variable('nuclear repulsion energy'), 3, '[5]  NRE: cartesian, external values')


molecule CN  {
  0 2
  C 0.0 0.0 0.0
  N 0.0 0.0 r
  r = 1.4
}
CN.update_geometry()
nre = CN.nuclear_repulsion_energy()
energy('cfour')
compare_values(nre, get_variable('nuclear repulsion energy'), 3, '[6]  NRE: cartesian, external values')


molecule CHFClBr  {
  H
  C  1 1.0
  F  2 1.0 1 105.0
  Cl 2 1.0 1 105.0 3  120.0
  Br 2 1.0 1 105.0 3 -120.0
}
CHFClBr.update_geometry()
nre = CHFClBr.nuclear_repulsion_energy()
set cfour_basis sto-3g
energy('cfour')
compare_values(nre, get_variable('nuclear repulsion energy'), 3, '[7]  NRE: zmat, internal values')


molecule CH2ClBr  {
  Cl
  C  1 1.0
  Br 2 1.0 1 105.0
  H  2 1.0 1 105.0 3  120.0
  H  2 1.0 1 105.0 3 -120.0
}
CH2ClBr.update_geometry()
nre = CH2ClBr.nuclear_repulsion_energy()
energy('cfour')
compare_values(nre, get_variable('nuclear repulsion energy'), 3, '[8]  NRE: zmat, internal values')


molecule CH2ClBr  {
  Cl
  C  1 1.0
  Br 2 1.0 1 105.0
  H  2 1.0 1 105.0 3  D1
  H  2 1.0 1 105.0 3 -D1
    D1 = 120.0
}
CH2ClBr.update_geometry()
nre = CH2ClBr.nuclear_repulsion_energy()
energy('cfour')
compare_values(nre, get_variable('nuclear repulsion energy'), 3, '[8b]  NRE: zmat, external and internal values, +/-')


molecule HOCl  {
  H
  O 1 1.0
  Cl 2 1.7 1 110.0
}
HOCl.update_geometry()
nre = HOCl.nuclear_repulsion_energy()
energy('cfour')
compare_values(nre, get_variable('nuclear repulsion energy'), 3, '[9]  NRE: zmat, internal values')


molecule C4H4Cl2F2  {
  units    bohr
  C     0.432781050498     1.898774028282     0.810337938486
  C    -1.658744642774     0.805191018766    -0.984829058337
  C     1.658744642774    -0.805191018766     0.984829058337
  C    -0.432781050498    -1.898774028282    -0.810337938486
  H    -0.317971784026     2.532165941971     2.640915161238
  H    -1.615729990528     1.614062700629    -2.881498569657
  H     1.615729990528    -1.614062700629     2.881498569657
  H     0.317971784026    -2.532165941971    -2.640915161238
  Cl   -4.852178875691     1.024620478757     0.190249941464
  Cl    4.852178875691    -1.024620478757    -0.190249941464
  F    -1.913713787211    -3.739567959534     0.258534542158
  F     1.913713787211     3.739567959534    -0.258534542158
}
C4H4Cl2F2.update_geometry()
nre = C4H4Cl2F2.nuclear_repulsion_energy()
energy('cfour')
compare_values(nre, get_variable('nuclear repulsion energy'), 3, '[10] NRE: cartesian, pure, bohr')


molecule HOOH_dimer  {
  H   0.9911262285  -1.7979226333   0.1465182515
  O   2.7691093095  -1.3485218649  -0.0071557684
  O   2.5178030311   1.3808374923  -0.1154058014
  H   3.2883200453   1.8308595095   1.4757706825
  H  -3.2883200453  -1.8308595095  -1.4757706825
  O  -2.5178030311  -1.3808374923   0.1154058014
  O  -2.7691093095   1.3485218649   0.0071557684
  H  -0.9911262285   1.7979226333  -0.1465182515
}
HOOH_dimer.update_geometry()
nre = HOOH_dimer.nuclear_repulsion_energy()
energy('cfour')
compare_values(nre, get_variable('nuclear repulsion energy'), 3, '[11] NRE: cartesian, pure')


molecule HOOH  {
  H
  O 1 1.0 
  O 2 1.5 1 110.0
  H 3 1.0 2 110.0 1 60.0
}
HOOH.update_geometry()
nre = HOOH.nuclear_repulsion_energy()
energy('cfour')
compare_values(nre, get_variable('nuclear repulsion energy'), 3, '[12] NRE: zmat, internal values')


#molecule NOHOHOH  {
#  X
#  N 1 1.0
#  O 2 1.5 1 100.0
#  O 2 1.5 1 100.0  3  120.0
#  O 2 1.5 1 100.0  3 -120.0
#  H 3 1.0 2 110.0 4 0.0
#  H 4 1.0 2 110.0 5 0.0
#  H 5 1.0 2 110.0 3 0.0
#}
#NOHOHOH.update_geometry()
#nre = NOHOHOH.nuclear_repulsion_energy()
#energy('cfour')
#compare_values(nre, get_variable('nuclear repulsion energy'), 3, '[13] NRE: zmat, internal values, w/dummy')


molecule H2O  {
  H
  O 1 1.0
  H 2 1.0 1 109.5
}
H2O.update_geometry()
nre = H2O.nuclear_repulsion_energy()
energy('cfour')
compare_values(nre, get_variable('nuclear repulsion energy'), 3, '[14] NRE: zmat, internal values')


molecule CH2F2  {
  units au
  C     0.0000000000  -0.0000000000   1.0890958457
  F     0.0000000000  -2.1223155812  -0.4598161475
  F    -0.0000000000   2.1223155812  -0.4598161475
  H     1.7084139850   0.0000000000   2.1841068002
  H    -1.7084139850  -0.0000000000   2.1841068002
}
CH2F2.update_geometry()
nre = CH2F2.nuclear_repulsion_energy()
energy('cfour')
compare_values(nre, get_variable('nuclear repulsion energy'), 3, '[15] NRE: cartesian, pure, bohr')


molecule NH3  {
  X
  N 1 1.0
  H 2 rNH 1 aXNH
  H 2 rNH 1 aXNH 3 120.0
  H 2 rNH 1 aXNH 4 120.0

  rNH = 0.95
  aXNH = 115.0
}
NH3.update_geometry()
nre = NH3.nuclear_repulsion_energy()
energy('cfour')
compare_values(nre, get_variable('nuclear repulsion energy'), 3, '[16] NRE: zmat, external & internal values, w/dummy')


molecule BrF5  {
 F
 Br 1 r
 F  2 r 1 90.0
 F  2 r 3 90.0 1  90.0
 F  2 r 3 90.0 1 -90.0
 F  2 r 1 90.0 3 180.0
 r = 1.7
}
BrF5.update_geometry()
nre = BrF5.nuclear_repulsion_energy()
energy('cfour')
compare_values(nre, get_variable('nuclear repulsion energy'), 3, '[17] NRE: zmat, external & internal values')


molecule N2H2  {
  N
  N 1 rNN
  H 1 rNH 2 aHNN
  H 2 rNH 1 aHNN 3 180.0
  rNH  = 1.0
  rNN  = 1.4
  aHNN = 140.0
}
N2H2.update_geometry()
nre = N2H2.nuclear_repulsion_energy()
energy('cfour')
compare_values(nre, get_variable('nuclear repulsion energy'), 3, '[18] NRE: zmat, external values')


#molecule NOHOHOH  {
#  X
#  N 1 1.0
#  O 2 1.5 1 90.0
#  O 2 1.5 1 90.0  3  120.0
#  O 2 1.5 1 90.0  3 -120.0
#  H 3 1.0 2 110.0 4 0.0
#  H 4 1.0 2 110.0 5 0.0
#  H 5 1.0 2 110.0 3 0.0
#}
#NOHOHOH.update_geometry()
#nre = NOHOHOH.nuclear_repulsion_energy()
#energy('cfour')
#compare_values(nre, get_variable('nuclear repulsion energy'), 3, '[19] NRE: zmat, internal values, w/dummy')


molecule TFCOT {
  C       -1.618188     -0.437140     -0.409373
  C       -1.394411      0.896360     -0.429596
  C       -0.896360     -1.394411      0.429596
  C       -0.437140      1.618188      0.409373
  C        0.437140     -1.618188      0.409373
  C        0.896360      1.394411      0.429596
  C        1.394411     -0.896360     -0.429596
  C        1.618188      0.437140     -0.409373
  F        2.147277     -1.690111     -1.235043
  F        1.690111      2.147277      1.235043
  F       -2.147277      1.690111     -1.235043
  F       -1.690111     -2.147277      1.235043
  H        0.878010     -2.418132      1.029595
  H       -2.418132     -0.878010     -1.029595
  H       -0.878010      2.418132      1.029595
  H        2.418132      0.878010     -1.029595
}
TFCOT.update_geometry()
nre = TFCOT.nuclear_repulsion_energy()
energy('cfour')
compare_values(nre, get_variable('nuclear repulsion energy'), 3, '[20] NRE: cartesian, pure')


molecule Li_H2O_4_p  {
   1 1
   X
   Li 1 1.0
   X 2 1.0 1 90.0
   X 2 1.0 3 90.0 1 180.0
   O 2 oli 1 olix 3 -90.0
   O 2 oli 1 olix 3 90.0
   O 2 oli 4 olix 3 0.0
   O 2 oli 4 olix 3 180.0
   H 5 oh1 2 lioh1 1 xlioh1
   H 5 oh2 2 lioh2 1 xlioh2
   H 6 oh1 2 lioh1 1 xlioh1
   H 6 oh2 2 lioh2 1 xlioh2
   H 7 oh1 2 lioh1 4 -xlioh1
   H 7 oh2 2 lioh2 4 -xlioh2
   H 8 oh1 2 lioh1 4 -xlioh1
   H 8 oh2 2 lioh2 4 -xlioh2
   olix=52.0
   oli=1.9
   oh1=0.952
   oh2=0.950
   lioh1=125.4
   lioh2=124.8
   xlioh1=-40.0
   xlioh2=135.0
}
Li_H2O_4_p.update_geometry()
nre = Li_H2O_4_p.nuclear_repulsion_energy()
energy('cfour')
compare_values(nre, get_variable('nuclear repulsion energy'), 3, '[21] NRE: zmat, external and internal values, +/-, w/dummy')


molecule ethylene_cation  {
  C1
  C2 C1 rCC
  H1 C1 rCH C2 aHCC
  H2 C1 rCH C2 aHCC H1 180.0
  H3 C2 rCH C1 aHCC H1 D
  H4 C2 rCH C1 aHCC H3 180.0
  rCC  = 1.41
  rCH  = 1.09
  aHCC = 122.0
  D    = 45.0
}
ethylene_cation.update_geometry()
nre = ethylene_cation.nuclear_repulsion_energy()
energy('cfour')
compare_values(nre, get_variable('nuclear repulsion energy'), 3, '[22] NRE: zmat, external values')


molecule ethane_gauche  {
  H
  C 1 1.0
  C 2 1.5 1 110.0
  H 3 1.0 2 110.0 1   20.0
  H 3 1.0 2 110.0 1  140.0
  H 3 1.0 2 110.0 1 -100.0
  H 2 1.0 3 110.0 1  120.0
  H 2 1.0 3 110.0 1 -120.0
}
ethane_gauche.update_geometry()
nre = ethane_gauche.nuclear_repulsion_energy()
energy('cfour')
compare_values(nre, get_variable('nuclear repulsion energy'), 3, '[23] NRE: zmat, internal values')


#molecule triplet_ethylene  {
#  C1
#  C2 C1 rCC
#  H1 C1 rCH C2 aHCC
#  H2 C1 rCH C2 aHCC H1 180.0
#  H3 C2 rCH C1 aHCC H1 D
#  H4 C2 rCH C1 aHCC H3 180.0
#  rCC  = 1.41
#  rCH  = 1.09
# aHCC = 122.0
#  D    = 90.0
#}
#triplet_ethylene.update_geometry()
#nre = triplet_ethylene.nuclear_repulsion_energy()
#energy('cfour')
#compare_values(nre, get_variable('nuclear repulsion energy'), 3, '[24] NRE: zmat, external values')


molecule allene  {
  H -2.0  0.0  1.0
  H -2.0  0.0 -1.0
  C -1.5  0.0  0.0
  C  0.0  0.0  0.0
  C  1.5  0.0  0.0
  H  2.0  1.0  0.0
  H  2.0 -1.0  0.0
}
allene.update_geometry()
nre = allene.nuclear_repulsion_energy()
energy('cfour')
compare_values(nre, get_variable('nuclear repulsion energy'), 3, '[25] NRE: cartesian, pure')


molecule ethane_staggered  {
  H
  C 1 1.0
  C 2 1.5 1 110.0
  H 3 1.0 2 110.0 1   60.0
  H 3 1.0 2 110.0 1  -60.0
  H 3 1.0 2 110.0 1  180.0
  H 2 1.0 3 110.0 1  120.0
  H 2 1.0 3 110.0 1 -120.0
}
ethane_staggered.update_geometry()
nre = ethane_staggered.nuclear_repulsion_energy()
energy('cfour')
compare_values(nre, get_variable('nuclear repulsion energy'), 3, '[26] NRE: zmat, internal values')


molecule singlet_ethylene  {
    C1
    C2 C1 rCC
    H1 C1 rCH C2 aHCC
    H2 C1 rCH C2 aHCC H1 180.0
    H3 C2 rCH C1 aHCC H1 D
    H4 C2 rCH C1 aHCC H3 180.0
    rCC  = 1.41
    rCH  = 1.09
    aHCC = 122.0
    D    = 0.0
}
singlet_ethylene.update_geometry()
nre = singlet_ethylene.nuclear_repulsion_energy()
energy('cfour')
compare_values(nre, get_variable('nuclear repulsion energy'), 3, '[27] NRE: zmat, external values')


molecule ethane_eclipsed  {
  H
  C 1 1.0
  C 2 1.5 1 110.0
  H 3 1.0 2 110.0 1   00.0
  H 3 1.0 2 110.0 1  120.0
  H 3 1.0 2 110.0 1 -120.0
  H 2 1.0 3 110.0 1  120.0
  H 2 1.0 3 110.0 1 -120.0
}
ethane_eclipsed.update_geometry()
nre = ethane_eclipsed.nuclear_repulsion_energy()
energy('cfour')
compare_values(nre, get_variable('nuclear repulsion energy'), 3, '[28] NRE: zmat, internal values')


#molecule BH4p  {
# 1 1
# X
# B 1 1.0
# H 2 1.0 1 90.0
# H 2 1.0 1 90.0 3  90.0
# H 2 1.0 1 90.0 3 180.0
# H 2 1.0 1 90.0 3 -90.0
#}
#BH4p.update_geometry()
#nre = BH4p.nuclear_repulsion_energy()
#energy('cfour')
#compare_values(nre, get_variable('nuclear repulsion energy'), 3, '[29] NRE: zmat, internal values, w/dummy')


molecule CH4  {
   C
   H 1 r
   H 1 r 2 TDA
   H 1 r 2 TDA 3 120
   H 1 r 2 TDA 4 120
   r = 1.09
}
CH4.update_geometry()
nre = CH4.nuclear_repulsion_energy()
energy('cfour')
compare_values(nre, get_variable('nuclear repulsion energy'), 3, '[30] NRE: zmat, external and internal values, w/TDA')


molecule SF6  {
  F
  S 1 r
  F 2 r 1 90.0
  F 2 r 1 90.0 3  90.0
  F 2 r 1 90.0 3 180.0
  F 2 r 1 90.0 3 -90.0
  F 2 r 5 90.0 1 180.0 
  r = 1.8
}
SF6.update_geometry()
nre = SF6.nuclear_repulsion_energy()
energy('cfour')
compare_values(nre, get_variable('nuclear repulsion energy'), 3, '[31] NRE: zmat, external and internal values')


molecule Ih  {
  unit = au
  0 1
  H   0   1   x
  H   0  -1   x
  H   0   1  -x
  H   0  -1  -x
  H   1   x   0
  H  -1   x   0
  H   1  -x   0
  H  -1  -x   0
  H   x   0   1
  H   x   0  -1
  H  -x   0   1
  H  -x   0  -1
  x = 1.618033988749894848
}
Ih.update_geometry()
nre = Ih.nuclear_repulsion_energy()
energy('cfour')
compare_values(nre, get_variable('nuclear repulsion energy'), 3, '[32] NRE: cartesian, external and internal, +/-')


--------------------------------------------------------------------------

  GENBAS loaded from /theoryfs2/ds/loriab/bin/GENBAS
  CFOUR to be run from /scratch/loriab//psi.21158.HOCl.cfour.97050

====== Begin ZMAT input for CFOUR ======
auto-generated by qcdb from molecule HOCl
H    -1.074855537230    1.371823577282    0.000000000000
O    -1.074855537230    0.371823577282    0.000000000000
CL    0.522621918106   -0.209610666372    0.000000000000

*CFOUR(BASIS=4-31G
MULTIPLICITY=1
COORDINATES=CARTESIAN
UNITS=ANGSTROM
CALC_LEVEL=SCF
CHARGE=0)

======= End ZMAT input for CFOUR =======

 --invoking executable xjoda


   *************************************************************************
         <<<     CCCCCC     CCCCCC   |||     CCCCCC     CCCCCC   >>>
       <<<      CCC        CCC       |||    CCC        CCC         >>>
      <<<      CCC        CCC        |||   CCC        CCC            >>>
    <<<        CCC        CCC        |||   CCC        CCC              >>>
      <<<      CCC        CCC        |||   CCC        CCC            >>>
       <<<      CCC        CCC       |||    CCC        CCC         >>>
         <<<     CCCCCC     CCCCCC   |||     CCCCCC     CCCCCC   >>>
   *************************************************************************

     ****************************************************************
     * CFOUR Coupled-Cluster techniques for Computational Chemistry *
     ****************************************************************
 

   Department of Chemistry                Institut fuer Physikalische Chemie
   University of Texas at Austin          Universitaet Mainz
   Austin, TX  48792, USA                 D-55099 Mainz, Germany
 
                       version 1.2
 
                     john3                                             
                     Mon Sep 16 12:14:39 EDT 2013                      
                     integer*8 version is running
 
    -------------------------------------------------------------------
                    Input from ZMAT file
    -------------------------------------------------------------------
 
 auto-generated by qcdb from molecule HOCl                                      
 H    -1.074855537230    1.371823577282    0.000000000000                       
 O    -1.074855537230    0.371823577282    0.000000000000                       
 CL    0.522621918106   -0.209610666372    0.000000000000                       
                                                                                
 *CFOUR(BASIS=4-31G                                                             
 MULTIPLICITY=1                                                                 
 COORDINATES=CARTESIAN                                                          
 UNITS=ANGSTROM                                                                 
 CALC_LEVEL=SCF                                                                 
 CHARGE=0)                                                                      
                                                                                
 
    -------------------------------------------------------------------
                    CFOUR Control Parameters 
    -------------------------------------------------------------------
        External           Internal           Value            Units
          Name               Name
    -------------------------------------------------------------------
       PRINT                IPRNT               0               ***   
       CALCLEVEL            ICLLVL           SCF        [  0]   ***   
       DERIV_LEV            IDRLVL            ZERO      [  0]   ***   
       CC_CONV              ICCCNV          10D-  7             ***   
       SCF_CONV             ISCFCV          10D-  7             ***   
       XFORM_TOL            IXFTOL          10D- 11             ***   
       CC_MAXCYC            ICCCYC              0              cycles 
       LINDEP_TOL           ILINDP              8               ***   
       RDO                  IRDOFM             OFF      [  0]   ***   
  
       SCF_EXTRAPO          IRPP                ON      [  1]   ***   
       REFERENCE            IREFNC             RHF      [  0]   ***   
       CC_EXPORDER          ICCEOR              0               ***   
       TAMP_SUM             IEVERY              0               ***   
       NTOP_TAMP            ITOPT2             15               ***   
       CCORBOPT             ICCORB             OFF      [  0] x 0.01  
       SCF_MAXCYC           ISCFCY            150              cycles 
       OCCUPATION           IOCCU   ESTIMATED BY SCF 
       PROPS                IPROPS             OFF      [  0]   ***   
       RELAX_DENS           IRDENS             OFF      [  0]   ***   
  
       SCF_EXPORDE          IRPPOR              6               ***   
       CC_EXTRAPOL          ICCEXT             DIIS     [  1]   ***   
       BRUECKNER            IBRKNR             OFF      [  0]   ***   
       XFIELD               IXEFLD              0             x 10-6  
       YFIELD               IYEFLD              0             x 10-6  
       ZFIELD               IZEFLD              0             x 10-6  
       SAVE_INTS            ISVINT             OFF      [  0]   ***   
       DROPMO               IDRPMO      NONE         
       CHARGE               ICHRGE              0               ***   
       MULTIPLICTY          IMULTP              1               ***   
  
       CPHF_CONVER          ICPHFT          10D- 16             ***   
       CPHF_MAXCYC          ICPHFC             64              cycles 
       INCORE               INCORE             OFF      [  0]   ***   
       MEMORY_SIZE          IMEMSZ         100000000           words  
       FILE_RECSIZ          IFLREC              4096           words  
       NON-HF               INONHF             OFF      [  0]   ***   
       ORBITALS             IORBTP           STANDARD   [  0]   ***   
  
       SCF_EXPSTAR          IRPPLS              8               ***   
       LOCK_ORBOCC          ILOCOC             OFF      [  0]   ***   
       HBAR                 IHBAR              OFF      [  0]   ***   
       CACHE_RECS           ICHREC             10               ***   
       GUESS                IGUESS            MOREAD    [  0]   ***   
       JODA_PRINT           IJPRNT              0               ***   
       GEO_METHOD           INR            SINGLE_POINT [  5]   ***   
       GEO_CONV             ICONTL              5              H/bohr 
       EIGENVECTOR          IVEC                1               ***   
  
       NEGEVAL              IDIE             ABORT      [  0]   ***   
       CURVILINEAR          ICURVY            OFF       [  0]   ***   
       SCALE_ON             ISTCRT              0               ***   
       GEO_MAXSTEP          IMXSTP            300            millibohr
       VIBRATION            IVIB              NO        [  0]   ***   
       EVAL_HESS            IRECAL              0            # of cyc.
       INTEGRALS            INTTYP             VMOL     [  1]   ***   
       FD_STEPSIZE          IDISFD              0            10-4 bohr
       POINTS               IGRDFD              0               ***   
       CONTRACTION          ICNTYP          GENERAL     [  1]   ***   
  
       SYMMETRY             ISYM             ON         [  0]   ***   
       BASIS                IBASIS         4-31G        [  7]   ***   
       SPHERICAL            IDFGHI             ON       [  1]   ***   
       RESET_FLAGS          IRESET             OFF      [  0]   ***   
       PERT_ORB             IPTORB         STANDARD     [  0]   ***   
       GENBAS_1             IGNBS1              0               ***   
       GENBAS_2             IGNBS2              0               ***   
       GENBAS_3             IGNBS3              0               ***   
       COORDINATES          ICOORD         CARTESIAN    [  1]   ***   
       SYM_CHECK            ISYMCK         OVERRIDE     [  1]   ***   
  
       SCF_PRINT            ISCFPR              0               ***   
       ECP                  IECP           OFF          [  0]   ***   
       RESTART_CC           ICCRES         OFF          [  0]   ***   
       TRANS_INV            ITRAIN         USE          [  0]   ***   
       HFSTABILITY          ISTABL         OFF          [  0]   ***   
       ROT_EVEC             ROTVEC              0               ***   
       BRUCK_CONV           IBRTOL          10D-  4             ***   
       UNITS                IUNITS         ANGSTROM     [  0]   ***   
       FD_USEGROUP          IFDGRP         FULL         [  0]   ***   
  
       FD_PROJECT           IFDPRJ         ON           [  0]   ***   
       FD_CALTYPE           IFDCAL         GRADONLY     [  0]   ***   
       VTRAN                IVTRAN         FULL/PARTIAL [  0]   ***   
       HF2_FILE             IHF2Fl         USE          [  1]   ***   
       SUBGROUP             ISUBGP         DEFAULT      [  0]   ***   
       SUBGRPAXIS           ISBXYZ         X            [  0]   ***   
       EXCITE               IEXCIT         NONE         [  0]   ***   
       LINEQ_CONV           IZTACN          10D-  7           cycles  
  
       TREAT_PERT           ITREAT         SIMULTANEOUS [  0]   ***   
       ESTATE_PROP          IEXPRP         OFF          [  0]   ***   
       GEO_MAXCYC           IOPTCY             50               ***   
       ABCDTYPE             IABCDT         STANDARD     [  0]   ***   
       AO_LADDERS           IAOLAD         SINGLEPASS   [  1]   ***   
       FOCK                 IFOCK          AO           [  1]   ***   
       ESTATE_MAXC          IEXMXC             20               ***   
       ESTATE_CONV          IEXTOL          10D-  5             ***   
       DIRECT               IDIRCT         OFF          [  0]   ***   
  
       GAMMA_ABCD           IGABCD         STORE        [  0]   ***   
       LINEQ_TYPE           ILTYPE         DIIS         [  1]   ***   
       LINEQ_MAXCY          ILMAXC             50               ***   
       TRANGRAD             IRESRM         OFF          [  0]   ***   
       PSI                  IPSI           OFF          [  0]   ***   
       GAMMA_ABCI           IGABCI         STORE        [  0]   ***   
       ESTATE_DIAG          IEXDIG         ITERATIVE    [  0]   ***   
       FC_FIELD             IFINFC              0             x 10-6  
       SD_FIELD             IFINSD              0             x 10-6  
       DIFF_TYPE            IDIFTY         RELAXED      [  0]   ***   
  
       LINEQ_EXPOR          ILMAXD              5               ***   
       FINITE_PERT          IFIPER              0             x 10-6  
       ANHARMONIC           IANHAR         OFF          [  0]   ***   
       CC_PROGRAM           ICCPRO         VCC          [  0]   ***   
       OPEN-SHELL           IOPEN          SPIN-ORBITAL [  0]   ***   
       UIJ_THRESHO          IUIJTH             25               ***   
       SCF_DAMPING          IDAMP               0             x 10-3  
       PROP_INTEGR          IINTYP         INTERNAL     [  0]   ***   
       ANH_SYMMETR          IANHSM         ABELIAN      [  0]   ***   
       ANH_ALGORIT          IANALG         STANDARD     [  0]   ***   
  
       EOM_NONIT            EOMNON         OFF          [  0]   ***   
       VIB_ALGORIT          IGEALG         STANDARD     [  0]   ***   
       ANH_DERIVAT          IANDER         SECOND       [  1]   ***   
       SPINROTATIO          ISRCON         OFF          [  0]   ***   
       CIS_CONV             ICISTL              5               ***   
       ANH_STEPSIZ          ICUBST             50000          x 10-6  
       SPIN_FLIP            ISPFLP         OFF          [  0]   ***   
       GRID                 IGRID          OFF          [  0]   ***   
  
       DBOC                 IDBOC          OFF          [  0]   ***   
       EOMFOLLOW            IEOMSR         ENERGY       [  0]   ***   
       T3_EXTRAPOL          IT3EXT         OFF          [  0]   ***   
       ESTATE_LOCK          IESLOC         OFF          [  0]   ***   
       UNOS                 IUNOS          OFF          [  0]   ***   
       FREQ_ALGORI          IVIALG         STANDARD     [  0]   ***   
       RELATIVIST           IRELAT         OFF          [  0]   ***   
       FROZEN_CORE          IFROCO         OFF          [  0]   ***   
       EXCITATION           IEXCIT              0               ***   
       INPUT_MRCC           IMRCC          ON           [  1]   ***   
  
       GIAO                 IGIAO          OFF          [  1]   ***   
       EOM_NSING            IEOMSI          10D-  0             ***   
       EOM_NTRIP            IEOMTR          10D-  0             ***   
       EOM_NSTATES          IMRCCD         DAVIDSON     [  0]   ***   
       DIAG_MRCC            IEOMST          10D-  0             ***   
       NEWNORM              INEWNO         OFF          [  0]   ***   
       TESTSUITE            ITESTS         OFF          [  0]   ***   
       BUFFERSIZE           IBUFFS            600               ***   
       SPINORBIT            ISOCAL         OFF          [  0]   ***   
       DCT                  IDCT           OFF          [  0]   ***   
  
       PARALLEL             IPARAL         ON           [  1]   ***   
       PARA_PRINT           IPPRIN              0               ***   
       COMM_SIZE            IPSIZE            ***               ***   
       PARA_INT             IPINTS         ON           [  1]   ***   
       RAMAN_INT            IRAMIN         OFF          [  0]   ***   
       RAMAN_ORB            IRAMRE         UNRELAXED    [  0]   ***   
       BREIT                IBREIT         OFF          [  0]   ***   
       MEM_UNIT             IMEMU          INTEGERWORDS [  0]   ***   
       SPIN_ORBIT           ISPORB         OFF          [  0]   ***   
       GENBAS_4             IGNBS4              0               ***   
  
       SPIN_SCAL            ISCSMP         OFF          [  0]   ***   
       GRID_ALGO            IGALGO         SERIAL       [  0]   ***   
       VIBPHASE             ISETPH         STANDARD     [  0]   ***   
       SEQUENCE             ISEQUE         OFF          [  0]   ***   
       HESS_TYPE            IHESTP         SCF          [  0]   ***   
       CONTINUUM            ICONTU         NONE         [  0]   ***   
       SCF_NOSTOP           ISCFST         OFF          [  0]   ***   
       CONSTANT             ICONST         OLD          [  1]   ***   
  
       EOM_MRCC             IMRCCE         OLD          [  0]   ***   
       EOM_ORDER            IEXORD         ENERGY       [  0]   ***   
       GIMIC                IGIMIC         OFF          [  0]   ***   
    -------------------------------------------------------------------
  @GETXYZ-I,     3 atoms read from ZMAT.
  1  H          1     1.00783
  2  O          8    15.99491
  3  CL        17    34.96885
  1  H          1     1.00783
  2  O          8    15.99491
  3  CL        17    34.96885
   Rotational constants (in cm-1): 
          0.4838715622             0.4954398970            20.7228855723
   Rotational constants (in MHz): 
      14506.1065318580         14852.9165308970        621256.5672934608
********************************************************************************
   The full molecular point group is C s .
   The largest Abelian subgroup of the full molecular point group is C s .
   The computational point group is C s .
********************************************************************************
 ----------------------------------------------------------------
 Z-matrix   Atomic            Coordinates (in bohr)
  Symbol    Number           X              Y              Z
 ----------------------------------------------------------------
     H         1        -2.86635378     1.62176136     0.00000000
     O         8        -2.14563661    -0.12513105     0.00000000
     CL       17         1.06403427     0.01049531     0.00000000
 ----------------------------------------------------------------
   Interatomic distance matrix (Angstroms) 
 
                 H             O             CL   
                [ 1]        [ 2]        [ 3]
  H    [ 1]     0.00000
  O    [ 2]     1.00000     0.00000
  CL   [ 3]     2.24786     1.70000     0.00000
   Rotational constants (in cm-1): 
         20.7228855723             0.4954398970             0.4838715622
   Rotational constants (in MHz): 
     621256.5672934630         14852.9165308970         14506.1065318580
  There are   24 basis functions.
 @GEOPT-W, Archive file not created for single-point calculation.
                0.12 seconds walltime passed
 --executable xjoda finished with status            0
  flag is                      5
 --invoking executable xvmol
 Serial version of molecule started
 
    -------------------------------------------------------------------
                    Input from MOL file
    -------------------------------------------------------------------
 INTGRL        1    0    1    0    0    0    0    0    0                        
          *** CFOUR Program System (Release V0.1) ***                           
 auto-generated by qcdb from molecule HOCl                                      
     3    1 Z          0.10E-08              0    0                             
    9999.00      3.00                                                           
           1.00000000    1    1    1                                            
 H #1     -2.866353779363      1.621761358617      0.000000000000               
     4    2                                                                     
    18.7311370000000       3.349460000000000E-002  0.000000000000000E+000       
    2.82539440000000       0.234727000000000       0.000000000000000E+000       
   0.640121700000000       0.813757300000000       0.000000000000000E+000       
   0.161277800000000       0.000000000000000E+000   1.00000000000000            
           8.00000000    1    2    1    1                                       
 O #2     -2.145636614178     -0.125131050985      0.000000000000               
     8    3                                                                     
    883.272860000000       1.755060000000000E-002  0.000000000000000E+000       
   0.000000000000000E+000                                                       
    133.129280000000       0.122829200000000       0.000000000000000E+000       
   0.000000000000000E+000                                                       
    29.9064079000000       0.434883600000000       0.000000000000000E+000       
   0.000000000000000E+000                                                       
    7.97867720000000       0.560010800000000       0.000000000000000E+000       
   0.000000000000000E+000                                                       
    16.1944466000000       0.000000000000000E+000 -0.113401000000000            
   0.000000000000000E+000                                                       
    3.78008600000000       0.000000000000000E+000 -0.177286500000000            
   0.000000000000000E+000                                                       
    1.07098360000000       0.000000000000000E+000   1.15040790000000            
   0.000000000000000E+000                                                       
   0.283879800000000       0.000000000000000E+000  0.000000000000000E+000       
    1.00000000000000                                                            
     4    2                                                                     
    16.1944466000000       6.854530000000000E-002  0.000000000000000E+000       
    3.78008600000000       0.331225400000000       0.000000000000000E+000       
    1.07098360000000       0.734607900000000       0.000000000000000E+000       
   0.283879800000000       0.000000000000000E+000   1.00000000000000            
          17.00000000    1    2    2    1                                       
 CL#3      1.064034266885      0.010495305150      0.000000000000               
     4    1                                                                     
    3910.30269000000       1.837940000000000E-002                               
    589.551807000000       0.129140100000000                                    
    132.593924000000       0.454044900000000                                    
    35.9035425000000       0.534439400000000                                    
     8    3                                                                     
    147.765353000000      -2.674330000000000E-002  0.000000000000000E+000       
   0.000000000000000E+000                                                       
    34.5060753000000      -0.144691200000000       0.000000000000000E+000       
   0.000000000000000E+000                                                       
    10.2864715000000       0.251703600000000       0.000000000000000E+000       
   0.000000000000000E+000                                                       
    3.31114740000000       0.859820400000000       0.000000000000000E+000       
   0.000000000000000E+000                                                       
    4.28028490000000       0.000000000000000E+000 -0.270396300000000            
   0.000000000000000E+000                                                       
    1.64101670000000       0.000000000000000E+000 -0.341629700000000            
   0.000000000000000E+000                                                       
   0.614478500000000       0.000000000000000E+000   1.35002450000000            
   0.000000000000000E+000                                                       
   0.199592200000000       0.000000000000000E+000  0.000000000000000E+000       
    1.00000000000000                                                            
     8    3                                                                     
    147.765353000000       2.886450000000000E-002  0.000000000000000E+000       
   0.000000000000000E+000                                                       
    34.5060753000000       0.177964700000000       0.000000000000000E+000       
   0.000000000000000E+000                                                       
    10.2864715000000       0.486999800000000       0.000000000000000E+000       
   0.000000000000000E+000                                                       
    3.31114740000000       0.489018500000000       0.000000000000000E+000       
   0.000000000000000E+000                                                       
    4.28028490000000       0.000000000000000E+000 -3.670290000000000E-002       
   0.000000000000000E+000                                                       
    1.64101670000000       0.000000000000000E+000  0.191849200000000            
   0.000000000000000E+000                                                       
   0.614478500000000       0.000000000000000E+000  0.864337700000000            
   0.000000000000000E+000                                                       
   0.199592200000000       0.000000000000000E+000  0.000000000000000E+000       
    1.00000000000000                                                            
 FINISH                                                                         
 
    -------------------------------------------------------------------
 
 One- and two-electron integrals over symmetry-adapted AOs are calculated.

  Spherical harmonics are used.
  
  Integrals less than  0.10E-13 are neglected.

  Nuclear repulsion energy :   50.5696205688 a.u.
  required memory for a1 array                3010242  words 
  required memory for a2 array                2051693  words 
 basis number:   1     2
 basis number:   8     9
 basis number:  17    13
  @MOLECU-I, One electron integrals required         0.00000 seconds.
  @TWOEL-I,      16617 integrals of symmetry type  I I I I
  @TWOEL-I,       4149 integrals of symmetry type  I J I J
  @TWOEL-I,       2586 integrals of symmetry type  I I J J
  @TWOEL-I, Total number of 2-e integrals      23352.
  @MOLECU-I, Two electron integrals required         0.05000 seconds.
  @CHECKOUT-I, Total execution time :       0.0500 seconds.
                0.00 seconds walltime passed
 --executable xvmol finished with status            0
 --invoking executable xvmol2ja
  @CHECKOUT-I, Total execution time :       0.0000 seconds.
                0.00 seconds walltime passed
 --executable xvmol2ja finished with status            0
 --invoking executable xvscf
 NSOSCF                     0
  There are   24 functions in the AO basis.

  There are 2 irreducible representations.

       Irrep        # of functions
         1                 19
         2                  5


  Parameters for SCF calculation: 
        SCF reference function:  RHF  
  Maximum number of iterations:  150
     Full symmetry point group: C s 
     Computational point group: C s 
        Initial density matrix: MOREAD                 
     SCF convergence tolerance: 10**(- 7)
  DIIS convergence acceleration:  ON
          Latest start for DIIS:   8
                     DIIS order:   6

  Memory information:      63011 words required.
  Fock matrices are constructed from AO integral file.
  Initialization and symmetry analysis required      0.000 seconds.

  @INITGES-I, Occupancies from core Hamiltonian:

          Alpha population by irrep:  10    3
           Beta population by irrep:  10    3


 total no. of electrons in initial guess :  0.000000000000000E+000
  --------------------------------------------------------------------
  Iteration         Total Energy            Largest Density Difference
  --------------------------------------------------------------------
       0            50.569620568814869              0.0000000000D+00
   current occupation vector 
    10  3
    10  3
       1          -524.696472593123190              0.3613455596D+01
   current occupation vector 
    10  3
    10  3
       2          -531.185042668745041              0.5054319346D+01
   current occupation vector 
    11  2
    11  2
       3          -533.337551379850083              0.5065720983D+01
   current occupation vector 
    10  3
    10  3
       4          -534.056232281468169              0.9226743676D+00
   current occupation vector 
    10  3
    10  3
       5          -534.173333431559854              0.4296135759D+00
   current occupation vector 
    10  3
    10  3
       6          -534.208022885264313              0.1966924130D+00
   current occupation vector 
    10  3
    10  3
       7          -534.224363548014821              0.1434535067D+00
   current occupation vector 
    10  3
    10  3
       8          -534.232539645475072              0.1060441815D+00
   current occupation vector 
    10  3
    10  3
       9          -534.241383416037820              0.4452564675D-01
   current occupation vector 
    10  3
    10  3
      10          -534.241385073213792              0.6031347995D-03
   current occupation vector 
    10  3
    10  3
      11          -534.241385379740791              0.3374652556D-03
   current occupation vector 
    10  3
    10  3
      12          -534.241385395569296              0.7857497220D-04
   current occupation vector 
    10  3
    10  3
      13          -534.241385396921601              0.2541049993D-04
   current occupation vector 
    10  3
    10  3
      14          -534.241385397053705              0.1046487081D-04
   current occupation vector 
    10  3
    10  3
      15          -534.241385397053932              0.7393958115D-06
   current occupation vector 
    10  3
    10  3
      16          -534.241385397053932              0.1989183612D-06
   current occupation vector 
    10  3
    10  3

  SCF has converged.

 save density matrix on hard disk
 total electron number:   26.0000000000000     
     E(SCF)=      -534.241385397054728              0.6391509455D-07

  Eigenvector printing suppressed.

 @PUTMOS-I, Writing converged MOs to NEWMOS. 
 @PUTMOS-I, Symmetry   1 Full   4 Partial   3
 @PUTMOS-I, Symmetry   2 Full   1 Partial   1


 
  ORBITAL EIGENVALUES (ALPHA)  (1H = 27.2113838 eV)

       MO #        E(hartree)               E(eV)           FULLSYM    COMPSYM
       ----   --------------------   --------------------   -------   ---------
    1     1        -104.7000772362       -2849.0339876139     A'        A'  (1)
    2     2         -20.6068551041        -560.7410435523     A'        A'  (1)
    3     3         -10.5836607421        -287.9960546700     A'        A'  (1)
    4     4          -8.0584690614        -219.2820946291     A'        A'  (1)
    5     5          -8.0527726466        -219.1270872990     A'        A'  (1)
    6    20          -8.0525280070        -219.1204303162     A''       A'' (2)
    7     6          -1.4054324711         -38.2437624032     A'        A'  (1)
    8     7          -1.0606964727         -28.8630188360     A'        A'  (1)
    9     8          -0.6991611161         -19.0251414822     A'        A'  (1)
   10    21          -0.6064912596         -16.5034664478     A''       A'' (2)
   11     9          -0.5765484981         -15.6886824729     A'        A'  (1)
   12    10          -0.4647991717         -12.6478286615     A'        A'  (1)
   13    22          -0.4450275315         -12.1098149706     A''       A'' (2)
  +++++++++++++++++++++++++++++++++++++++++++++++++++++++++++++++++++++++++++++
   14    11           0.1037151124           2.8222317307     A'        A'  (1)
   15    12           0.2323773974           6.3233105508     A'        A'  (1)
   16    13           0.9192269080          25.0134362110     A'        A'  (1)
   17    14           0.9659860293          26.2858166066     A'        A'  (1)
   18    23           0.9837632218          26.7695586168     A''       A'' (2)
   19    15           0.9851638264          26.8076710056     A'        A'  (1)
   20    16           1.1088360593          30.1729636025     A'        A'  (1)
   21    24           1.2255857971          33.3498855297     A''       A'' (2)
   22    17           1.3027053947          35.4484164982     A'        A'  (1)
   23    18           1.4423241105          39.2476349624     A'        A'  (1)
   24    19           1.7675372386          48.0971342143     A'        A'  (1)


  VSCF finished.

  @CHECKOUT-I, Total execution time :       0.0100 seconds.
                0.12 seconds walltime passed
 --executable xvscf finished with status            0




  Variable Map:
  ----------------------------------------------------------------------------
  "CURRENT ENERGY"           =>    -534.241385397055
  "CURRENT REFERENCE ENERGY" =>    -534.241385397055
  "NUCLEAR REPULSION ENERGY" =>      50.569620568800
  "SCF TOTAL ENERGY"         =>    -534.241385397055



  GENBAS loaded from /theoryfs2/ds/loriab/bin/GENBAS
  CFOUR to be run from /scratch/loriab//psi.21158.NH3.cfour.82462

====== Begin ZMAT input for CFOUR ======
auto-generated by qcdb from molecule NH3
N    -0.000000000000   -0.071293777318    0.000000000000
H    -0.430496198842    0.330193571336   -0.745641288860
H    -0.430496198842    0.330193571336    0.745641288860
H     0.860992397685    0.330193571336    0.000000000000

*CFOUR(BASIS=4-31G
MULTIPLICITY=1
COORDINATES=CARTESIAN
UNITS=ANGSTROM
CALC_LEVEL=SCF
CHARGE=0)

======= End ZMAT input for CFOUR =======

 --invoking executable xjoda


   *************************************************************************
         <<<     CCCCCC     CCCCCC   |||     CCCCCC     CCCCCC   >>>
       <<<      CCC        CCC       |||    CCC        CCC         >>>
      <<<      CCC        CCC        |||   CCC        CCC            >>>
    <<<        CCC        CCC        |||   CCC        CCC              >>>
      <<<      CCC        CCC        |||   CCC        CCC            >>>
       <<<      CCC        CCC       |||    CCC        CCC         >>>
         <<<     CCCCCC     CCCCCC   |||     CCCCCC     CCCCCC   >>>
   *************************************************************************

     ****************************************************************
     * CFOUR Coupled-Cluster techniques for Computational Chemistry *
     ****************************************************************
 

   Department of Chemistry                Institut fuer Physikalische Chemie
   University of Texas at Austin          Universitaet Mainz
   Austin, TX  48792, USA                 D-55099 Mainz, Germany
 
                       version 1.2
 
                     john3                                             
                     Mon Sep 16 12:14:44 EDT 2013                      
                     integer*8 version is running
 
    -------------------------------------------------------------------
                    Input from ZMAT file
    -------------------------------------------------------------------
 
 auto-generated by qcdb from molecule NH3                                       
 N    -0.000000000000   -0.071293777318    0.000000000000                       
 H    -0.430496198842    0.330193571336   -0.745641288860                       
 H    -0.430496198842    0.330193571336    0.745641288860                       
 H     0.860992397685    0.330193571336    0.000000000000                       
                                                                                
 *CFOUR(BASIS=4-31G                                                             
 MULTIPLICITY=1                                                                 
 COORDINATES=CARTESIAN                                                          
 UNITS=ANGSTROM                                                                 
 CALC_LEVEL=SCF                                                                 
 CHARGE=0)                                                                      
                                                                                
 
    -------------------------------------------------------------------
                    CFOUR Control Parameters 
    -------------------------------------------------------------------
        External           Internal           Value            Units
          Name               Name
    -------------------------------------------------------------------
       PRINT                IPRNT               0               ***   
       CALCLEVEL            ICLLVL           SCF        [  0]   ***   
       DERIV_LEV            IDRLVL            ZERO      [  0]   ***   
       CC_CONV              ICCCNV          10D-  7             ***   
       SCF_CONV             ISCFCV          10D-  7             ***   
       XFORM_TOL            IXFTOL          10D- 11             ***   
       CC_MAXCYC            ICCCYC              0              cycles 
       LINDEP_TOL           ILINDP              8               ***   
       RDO                  IRDOFM             OFF      [  0]   ***   
  
       SCF_EXTRAPO          IRPP                ON      [  1]   ***   
       REFERENCE            IREFNC             RHF      [  0]   ***   
       CC_EXPORDER          ICCEOR              0               ***   
       TAMP_SUM             IEVERY              0               ***   
       NTOP_TAMP            ITOPT2             15               ***   
       CCORBOPT             ICCORB             OFF      [  0] x 0.01  
       SCF_MAXCYC           ISCFCY            150              cycles 
       OCCUPATION           IOCCU   ESTIMATED BY SCF 
       PROPS                IPROPS             OFF      [  0]   ***   
       RELAX_DENS           IRDENS             OFF      [  0]   ***   
  
       SCF_EXPORDE          IRPPOR              6               ***   
       CC_EXTRAPOL          ICCEXT             DIIS     [  1]   ***   
       BRUECKNER            IBRKNR             OFF      [  0]   ***   
       XFIELD               IXEFLD              0             x 10-6  
       YFIELD               IYEFLD              0             x 10-6  
       ZFIELD               IZEFLD              0             x 10-6  
       SAVE_INTS            ISVINT             OFF      [  0]   ***   
       DROPMO               IDRPMO      NONE         
       CHARGE               ICHRGE              0               ***   
       MULTIPLICTY          IMULTP              1               ***   
  
       CPHF_CONVER          ICPHFT          10D- 16             ***   
       CPHF_MAXCYC          ICPHFC             64              cycles 
       INCORE               INCORE             OFF      [  0]   ***   
       MEMORY_SIZE          IMEMSZ         100000000           words  
       FILE_RECSIZ          IFLREC              4096           words  
       NON-HF               INONHF             OFF      [  0]   ***   
       ORBITALS             IORBTP           STANDARD   [  0]   ***   
  
       SCF_EXPSTAR          IRPPLS              8               ***   
       LOCK_ORBOCC          ILOCOC             OFF      [  0]   ***   
       HBAR                 IHBAR              OFF      [  0]   ***   
       CACHE_RECS           ICHREC             10               ***   
       GUESS                IGUESS            MOREAD    [  0]   ***   
       JODA_PRINT           IJPRNT              0               ***   
       GEO_METHOD           INR            SINGLE_POINT [  5]   ***   
       GEO_CONV             ICONTL              5              H/bohr 
       EIGENVECTOR          IVEC                1               ***   
  
       NEGEVAL              IDIE             ABORT      [  0]   ***   
       CURVILINEAR          ICURVY            OFF       [  0]   ***   
       SCALE_ON             ISTCRT              0               ***   
       GEO_MAXSTEP          IMXSTP            300            millibohr
       VIBRATION            IVIB              NO        [  0]   ***   
       EVAL_HESS            IRECAL              0            # of cyc.
       INTEGRALS            INTTYP             VMOL     [  1]   ***   
       FD_STEPSIZE          IDISFD              0            10-4 bohr
       POINTS               IGRDFD              0               ***   
       CONTRACTION          ICNTYP          GENERAL     [  1]   ***   
  
       SYMMETRY             ISYM             ON         [  0]   ***   
       BASIS                IBASIS         4-31G        [  7]   ***   
       SPHERICAL            IDFGHI             ON       [  1]   ***   
       RESET_FLAGS          IRESET             OFF      [  0]   ***   
       PERT_ORB             IPTORB         STANDARD     [  0]   ***   
       GENBAS_1             IGNBS1              0               ***   
       GENBAS_2             IGNBS2              0               ***   
       GENBAS_3             IGNBS3              0               ***   
       COORDINATES          ICOORD         CARTESIAN    [  1]   ***   
       SYM_CHECK            ISYMCK         OVERRIDE     [  1]   ***   
  
       SCF_PRINT            ISCFPR              0               ***   
       ECP                  IECP           OFF          [  0]   ***   
       RESTART_CC           ICCRES         OFF          [  0]   ***   
       TRANS_INV            ITRAIN         USE          [  0]   ***   
       HFSTABILITY          ISTABL         OFF          [  0]   ***   
       ROT_EVEC             ROTVEC              0               ***   
       BRUCK_CONV           IBRTOL          10D-  4             ***   
       UNITS                IUNITS         ANGSTROM     [  0]   ***   
       FD_USEGROUP          IFDGRP         FULL         [  0]   ***   
  
       FD_PROJECT           IFDPRJ         ON           [  0]   ***   
       FD_CALTYPE           IFDCAL         GRADONLY     [  0]   ***   
       VTRAN                IVTRAN         FULL/PARTIAL [  0]   ***   
       HF2_FILE             IHF2Fl         USE          [  1]   ***   
       SUBGROUP             ISUBGP         DEFAULT      [  0]   ***   
       SUBGRPAXIS           ISBXYZ         X            [  0]   ***   
       EXCITE               IEXCIT         NONE         [  0]   ***   
       LINEQ_CONV           IZTACN          10D-  7           cycles  
  
       TREAT_PERT           ITREAT         SIMULTANEOUS [  0]   ***   
       ESTATE_PROP          IEXPRP         OFF          [  0]   ***   
       GEO_MAXCYC           IOPTCY             50               ***   
       ABCDTYPE             IABCDT         STANDARD     [  0]   ***   
       AO_LADDERS           IAOLAD         SINGLEPASS   [  1]   ***   
       FOCK                 IFOCK          AO           [  1]   ***   
       ESTATE_MAXC          IEXMXC             20               ***   
       ESTATE_CONV          IEXTOL          10D-  5             ***   
       DIRECT               IDIRCT         OFF          [  0]   ***   
  
       GAMMA_ABCD           IGABCD         STORE        [  0]   ***   
       LINEQ_TYPE           ILTYPE         DIIS         [  1]   ***   
       LINEQ_MAXCY          ILMAXC             50               ***   
       TRANGRAD             IRESRM         OFF          [  0]   ***   
       PSI                  IPSI           OFF          [  0]   ***   
       GAMMA_ABCI           IGABCI         STORE        [  0]   ***   
       ESTATE_DIAG          IEXDIG         ITERATIVE    [  0]   ***   
       FC_FIELD             IFINFC              0             x 10-6  
       SD_FIELD             IFINSD              0             x 10-6  
       DIFF_TYPE            IDIFTY         RELAXED      [  0]   ***   
  
       LINEQ_EXPOR          ILMAXD              5               ***   
       FINITE_PERT          IFIPER              0             x 10-6  
       ANHARMONIC           IANHAR         OFF          [  0]   ***   
       CC_PROGRAM           ICCPRO         VCC          [  0]   ***   
       OPEN-SHELL           IOPEN          SPIN-ORBITAL [  0]   ***   
       UIJ_THRESHO          IUIJTH             25               ***   
       SCF_DAMPING          IDAMP               0             x 10-3  
       PROP_INTEGR          IINTYP         INTERNAL     [  0]   ***   
       ANH_SYMMETR          IANHSM         ABELIAN      [  0]   ***   
       ANH_ALGORIT          IANALG         STANDARD     [  0]   ***   
  
       EOM_NONIT            EOMNON         OFF          [  0]   ***   
       VIB_ALGORIT          IGEALG         STANDARD     [  0]   ***   
       ANH_DERIVAT          IANDER         SECOND       [  1]   ***   
       SPINROTATIO          ISRCON         OFF          [  0]   ***   
       CIS_CONV             ICISTL              5               ***   
       ANH_STEPSIZ          ICUBST             50000          x 10-6  
       SPIN_FLIP            ISPFLP         OFF          [  0]   ***   
       GRID                 IGRID          OFF          [  0]   ***   
  
       DBOC                 IDBOC          OFF          [  0]   ***   
       EOMFOLLOW            IEOMSR         ENERGY       [  0]   ***   
       T3_EXTRAPOL          IT3EXT         OFF          [  0]   ***   
       ESTATE_LOCK          IESLOC         OFF          [  0]   ***   
       UNOS                 IUNOS          OFF          [  0]   ***   
       FREQ_ALGORI          IVIALG         STANDARD     [  0]   ***   
       RELATIVIST           IRELAT         OFF          [  0]   ***   
       FROZEN_CORE          IFROCO         OFF          [  0]   ***   
       EXCITATION           IEXCIT              0               ***   
       INPUT_MRCC           IMRCC          ON           [  1]   ***   
  
       GIAO                 IGIAO          OFF          [  1]   ***   
       EOM_NSING            IEOMSI          10D-  0             ***   
       EOM_NTRIP            IEOMTR          10D-  0             ***   
       EOM_NSTATES          IMRCCD         DAVIDSON     [  0]   ***   
       DIAG_MRCC            IEOMST          10D-  0             ***   
       NEWNORM              INEWNO         OFF          [  0]   ***   
       TESTSUITE            ITESTS         OFF          [  0]   ***   
       BUFFERSIZE           IBUFFS            600               ***   
       SPINORBIT            ISOCAL         OFF          [  0]   ***   
       DCT                  IDCT           OFF          [  0]   ***   
  
       PARALLEL             IPARAL         ON           [  1]   ***   
       PARA_PRINT           IPPRIN              0               ***   
       COMM_SIZE            IPSIZE            ***               ***   
       PARA_INT             IPINTS         ON           [  1]   ***   
       RAMAN_INT            IRAMIN         OFF          [  0]   ***   
       RAMAN_ORB            IRAMRE         UNRELAXED    [  0]   ***   
       BREIT                IBREIT         OFF          [  0]   ***   
       MEM_UNIT             IMEMU          INTEGERWORDS [  0]   ***   
       SPIN_ORBIT           ISPORB         OFF          [  0]   ***   
       GENBAS_4             IGNBS4              0               ***   
  
       SPIN_SCAL            ISCSMP         OFF          [  0]   ***   
       GRID_ALGO            IGALGO         SERIAL       [  0]   ***   
       VIBPHASE             ISETPH         STANDARD     [  0]   ***   
       SEQUENCE             ISEQUE         OFF          [  0]   ***   
       HESS_TYPE            IHESTP         SCF          [  0]   ***   
       CONTINUUM            ICONTU         NONE         [  0]   ***   
       SCF_NOSTOP           ISCFST         OFF          [  0]   ***   
       CONSTANT             ICONST         OLD          [  1]   ***   
  
       EOM_MRCC             IMRCCE         OLD          [  0]   ***   
       EOM_ORDER            IEXORD         ENERGY       [  0]   ***   
       GIMIC                IGIMIC         OFF          [  0]   ***   
    -------------------------------------------------------------------
  @GETXYZ-I,     4 atoms read from ZMAT.
  1  N          7    14.00307
  2  H          1     1.00783
  3  H          1     1.00783
  4  H          1     1.00783
  1  N          7    14.00307
  2  H          1     1.00783
  3  H          1     1.00783
  4  H          1     1.00783
   Rotational constants (in cm-1): 
          7.5212759792            11.0797538147            11.0797538147
   Rotational constants (in MHz): 
     225482.2128987940        332162.7095499001        332162.7095500284
********************************************************************************
   The full molecular point group is C3v .
   The largest Abelian subgroup of the full molecular point group is C s .
   The computational point group is C s .
********************************************************************************
 ----------------------------------------------------------------
 Z-matrix   Atomic            Coordinates (in bohr)
  Symbol    Number           X              Y              Z
 ----------------------------------------------------------------
     N         7        -0.13472574     0.00000000     0.00000000
     H         1         0.62397555    -0.81352008    -1.40905812
     H         1         0.62397555     1.62704017     0.00000000
     H         1         0.62397555    -0.81352008     1.40905812
 ----------------------------------------------------------------
   Interatomic distance matrix (Angstroms) 
 
                 N             H             H             H    
                [ 1]        [ 2]        [ 3]        [ 4]
  N    [ 1]     0.00000
  H    [ 2]     0.95000     0.00000
  H    [ 3]     0.95000     1.49128     0.00000
  H    [ 4]     0.95000     1.49128     1.49128     0.00000
   Rotational constants (in cm-1): 
          7.5212759792            11.0797538147            11.0797538147
   Rotational constants (in MHz): 
     225482.2128987939        332162.7095499320        332162.7095499962
  There are   15 basis functions.
 @GEOPT-W, Archive file not created for single-point calculation.
                0.12 seconds walltime passed
 --executable xjoda finished with status            0
  flag is                      5
 --invoking executable xvmol
 Serial version of molecule started
 
    -------------------------------------------------------------------
                    Input from MOL file
    -------------------------------------------------------------------
 INTGRL        1    0    1    0    0    0    0    0    0                        
          *** CFOUR Program System (Release V0.1) ***                           
 auto-generated by qcdb from molecule NH3                                       
     3    1 Z          0.10E-08              0    0                             
    9999.00      3.00                                                           
           7.00000000    1    2    1    1                                       
 N #1     -0.134725742100      0.000000000000      0.000000000000               
     8    3                                                                     
    671.279503000000       1.759830000000000E-002  0.000000000000000E+000       
   0.000000000000000E+000                                                       
    101.201662000000       0.122846200000000       0.000000000000000E+000       
   0.000000000000000E+000                                                       
    22.6999659000000       0.433782100000000       0.000000000000000E+000       
   0.000000000000000E+000                                                       
    6.04060900000000       0.561418200000000       0.000000000000000E+000       
   0.000000000000000E+000                                                       
    12.3935997000000       0.000000000000000E+000 -0.117489300000000            
   0.000000000000000E+000                                                       
    2.92238280000000       0.000000000000000E+000 -0.213994000000000            
   0.000000000000000E+000                                                       
   0.832528100000000       0.000000000000000E+000   1.17450210000000            
   0.000000000000000E+000                                                       
   0.225964200000000       0.000000000000000E+000  0.000000000000000E+000       
    1.00000000000000                                                            
     4    2                                                                     
    12.3935997000000       6.402030000000000E-002  0.000000000000000E+000       
    2.92238280000000       0.311202600000000       0.000000000000000E+000       
   0.832528100000000       0.752748200000000       0.000000000000000E+000       
   0.225964200000000       0.000000000000000E+000   1.00000000000000            
           1.00000000    1    1    1                                            
 H #2      0.623975548364     -0.813520083999     -1.409058118463               
     4    2                                                                     
    18.7311370000000       3.349460000000000E-002  0.000000000000000E+000       
    2.82539440000000       0.234727000000000       0.000000000000000E+000       
   0.640121700000000       0.813757300000000       0.000000000000000E+000       
   0.161277800000000       0.000000000000000E+000   1.00000000000000            
           1.00000000    1    1    1                                            
 H #3      0.623975548364      1.627040167997      0.000000000000               
     4    2                                                                     
    18.7311370000000       3.349460000000000E-002  0.000000000000000E+000       
    2.82539440000000       0.234727000000000       0.000000000000000E+000       
   0.640121700000000       0.813757300000000       0.000000000000000E+000       
   0.161277800000000       0.000000000000000E+000   1.00000000000000            
 FINISH                                                                         
 
    -------------------------------------------------------------------
 
 One- and two-electron integrals over symmetry-adapted AOs are calculated.

  Spherical harmonics are used.
  
  Integrals less than  0.10E-13 are neglected.

  Nuclear repulsion energy :   12.7621399544 a.u.
  required memory for a1 array                3008274  words 
  required memory for a2 array                2028805  words 
 basis number:   7     9
 basis number:   1     2
 basis number:   1     2
  @MOLECU-I, One electron integrals required         0.00000 seconds.
  @TWOEL-I,       1990 integrals of symmetry type  I I I I
  @TWOEL-I,        926 integrals of symmetry type  I J I J
  @TWOEL-I,        612 integrals of symmetry type  I I J J
  @TWOEL-I, Total number of 2-e integrals       3528.
  @MOLECU-I, Two electron integrals required         0.01000 seconds.
  @CHECKOUT-I, Total execution time :       0.0100 seconds.
                0.00 seconds walltime passed
 --executable xvmol finished with status            0
 --invoking executable xvmol2ja
  @CHECKOUT-I, Total execution time :       0.0000 seconds.
                0.00 seconds walltime passed
 --executable xvmol2ja finished with status            0
 --invoking executable xvscf
 NSOSCF                     0
  There are   15 functions in the AO basis.

  There are 2 irreducible representations.

       Irrep        # of functions
         1                 11
         2                  4


  Parameters for SCF calculation: 
        SCF reference function:  RHF  
  Maximum number of iterations:  150
     Full symmetry point group: C3v 
     Computational point group: C s 
        Initial density matrix: MOREAD                 
     SCF convergence tolerance: 10**(- 7)
  DIIS convergence acceleration:  ON
          Latest start for DIIS:   8
                     DIIS order:   6

  Memory information:      49531 words required.
  Fock matrices are constructed from AO integral file.
  Initialization and symmetry analysis required      0.000 seconds.

  @INITGES-I, Occupancies from core Hamiltonian:

          Alpha population by irrep:   4    1
           Beta population by irrep:   4    1


 total no. of electrons in initial guess :  0.000000000000000E+000
  --------------------------------------------------------------------
  Iteration         Total Energy            Largest Density Difference
  --------------------------------------------------------------------
       0            12.762139954353158              0.0000000000D+00
   current occupation vector 
     4  1
     4  1
       1           -49.233319993927140              0.2355281099D+01
   current occupation vector 
     4  1
     4  1
       2           -51.938763953349365              0.1132277392D+02
   current occupation vector 
     4  1
     4  1
       3           -54.169958671773458              0.1107053503D+02
   current occupation vector 
     4  1
     4  1
       4           -55.490427969853101              0.1314126623D+01
   current occupation vector 
     4  1
     4  1
       5           -55.918554507628457              0.8436235604D+00
   current occupation vector 
     4  1
     4  1
       6           -56.045604589019717              0.3493537361D+00
   current occupation vector 
     4  1
     4  1
       7           -56.077889998899707              0.1755165195D+00
   current occupation vector 
     4  1
     4  1
       8           -56.086061814657555              0.8584995675D-01
   current occupation vector 
     4  1
     4  1
       9           -56.088754549158821              0.3176066587D-01
   current occupation vector 
     4  1
     4  1
      10           -56.088754806515510              0.8069948719D-03
   current occupation vector 
     4  1
     4  1
      11           -56.088754812351368              0.5165448000D-04
   current occupation vector 
     4  1
     4  1
      12           -56.088754812364016              0.3144170610D-05
   current occupation vector 
     4  1
     4  1
      13           -56.088754812364243              0.6993741340D-06
   current occupation vector 
     4  1
     4  1
      14           -56.088754812364442              0.1260943302D-06
   current occupation vector 
     4  1
     4  1

  SCF has converged.

 save density matrix on hard disk
 total electron number:   10.0000000000000     
     E(SCF)=       -56.088754812364357              0.7095694698D-08

  Eigenvector printing suppressed.

 @PUTMOS-I, Writing converged MOs to NEWMOS. 
 @PUTMOS-I, Symmetry   1 Full   2 Partial   3
 @PUTMOS-I, Symmetry   2 Full   1 Partial   0


 
  ORBITAL EIGENVALUES (ALPHA)  (1H = 27.2113838 eV)

       MO #        E(hartree)               E(eV)           FULLSYM    COMPSYM
       ----   --------------------   --------------------   -------   ---------
    1     1         -15.4912468690        -421.5382643953      A1       A'  (1)
    2     2          -1.1907718377         -32.4025495166      A1       A'  (1)
    3     3          -0.6460607514         -17.5802070758       E       A'  (1)
    4    12          -0.6460607514         -17.5802070758       E       A'' (2)
    5     4          -0.4235052342         -11.5241634788      A1       A'  (1)
  +++++++++++++++++++++++++++++++++++++++++++++++++++++++++++++++++++++++++++++
    6     5           0.2298291576           6.2539694203      A1       A'  (1)
    7     6           0.3367006342           9.1620901904       E       A'  (1)
    8    13           0.3367006342           9.1620901904       E       A'' (2)
    9    14           0.9448011643          25.7093471155       E       A'' (2)
   10     7           0.9448011643          25.7093471156       E       A'  (1)
   11     8           1.0593546820          28.8265068532      A1       A'  (1)
   12    15           1.3339822490          36.2995029847       E       A'' (2)
   13     9           1.3339822490          36.2995029847       E       A'  (1)
   14    10           1.4018811757          38.1471267407      A1       A'  (1)
   15    11           1.7088736012          46.5008154618      A1       A'  (1)


  VSCF finished.

  @CHECKOUT-I, Total execution time :       0.0000 seconds.
                0.00 seconds walltime passed
 --executable xvscf finished with status            0




  Variable Map:
  ----------------------------------------------------------------------------
  "CFOUR ERROR CODE"         =>       0.000000000000
  "CURRENT ENERGY"           =>     -56.088754812364
  "CURRENT REFERENCE ENERGY" =>     -56.088754812364
  "NUCLEAR REPULSION ENERGY" =>      12.762139954400
  "SCF TOTAL ENERGY"         =>     -56.088754812364



  GENBAS loaded from /theoryfs2/ds/loriab/bin/GENBAS
  CFOUR to be run from /scratch/loriab//psi.21158.HCCCl.cfour.16746

====== Begin ZMAT input for CFOUR ======
auto-generated by qcdb from molecule HCCCl
H     0.000000000000    0.000000000000   -2.719188122301
C     0.000000000000    0.000000000000   -1.719188122301
C     0.000000000000    0.000000000000   -0.619188122301
CL    0.000000000000    0.000000000000    0.880811877699

*CFOUR(BASIS=4-31G
MULTIPLICITY=1
COORDINATES=CARTESIAN
UNITS=ANGSTROM
CALC_LEVEL=SCF
CHARGE=0)

======= End ZMAT input for CFOUR =======

 --invoking executable xjoda


   *************************************************************************
         <<<     CCCCCC     CCCCCC   |||     CCCCCC     CCCCCC   >>>
       <<<      CCC        CCC       |||    CCC        CCC         >>>
      <<<      CCC        CCC        |||   CCC        CCC            >>>
    <<<        CCC        CCC        |||   CCC        CCC              >>>
      <<<      CCC        CCC        |||   CCC        CCC            >>>
       <<<      CCC        CCC       |||    CCC        CCC         >>>
         <<<     CCCCCC     CCCCCC   |||     CCCCCC     CCCCCC   >>>
   *************************************************************************

     ****************************************************************
     * CFOUR Coupled-Cluster techniques for Computational Chemistry *
     ****************************************************************
 

   Department of Chemistry                Institut fuer Physikalische Chemie
   University of Texas at Austin          Universitaet Mainz
   Austin, TX  48792, USA                 D-55099 Mainz, Germany
 
                       version 1.2
 
                     john3                                             
                     Mon Sep 16 12:14:49 EDT 2013                      
                     integer*8 version is running
 
    -------------------------------------------------------------------
                    Input from ZMAT file
    -------------------------------------------------------------------
 
 auto-generated by qcdb from molecule HCCCl                                     
 H     0.000000000000    0.000000000000   -2.719188122301                       
 C     0.000000000000    0.000000000000   -1.719188122301                       
 C     0.000000000000    0.000000000000   -0.619188122301                       
 CL    0.000000000000    0.000000000000    0.880811877699                       
                                                                                
 *CFOUR(BASIS=4-31G                                                             
 MULTIPLICITY=1                                                                 
 COORDINATES=CARTESIAN                                                          
 UNITS=ANGSTROM                                                                 
 CALC_LEVEL=SCF                                                                 
 CHARGE=0)                                                                      
                                                                                
 
    -------------------------------------------------------------------
                    CFOUR Control Parameters 
    -------------------------------------------------------------------
        External           Internal           Value            Units
          Name               Name
    -------------------------------------------------------------------
       PRINT                IPRNT               0               ***   
       CALCLEVEL            ICLLVL           SCF        [  0]   ***   
       DERIV_LEV            IDRLVL            ZERO      [  0]   ***   
       CC_CONV              ICCCNV          10D-  7             ***   
       SCF_CONV             ISCFCV          10D-  7             ***   
       XFORM_TOL            IXFTOL          10D- 11             ***   
       CC_MAXCYC            ICCCYC              0              cycles 
       LINDEP_TOL           ILINDP              8               ***   
       RDO                  IRDOFM             OFF      [  0]   ***   
  
       SCF_EXTRAPO          IRPP                ON      [  1]   ***   
       REFERENCE            IREFNC             RHF      [  0]   ***   
       CC_EXPORDER          ICCEOR              0               ***   
       TAMP_SUM             IEVERY              0               ***   
       NTOP_TAMP            ITOPT2             15               ***   
       CCORBOPT             ICCORB             OFF      [  0] x 0.01  
       SCF_MAXCYC           ISCFCY            150              cycles 
       OCCUPATION           IOCCU   ESTIMATED BY SCF 
       PROPS                IPROPS             OFF      [  0]   ***   
       RELAX_DENS           IRDENS             OFF      [  0]   ***   
  
       SCF_EXPORDE          IRPPOR              6               ***   
       CC_EXTRAPOL          ICCEXT             DIIS     [  1]   ***   
       BRUECKNER            IBRKNR             OFF      [  0]   ***   
       XFIELD               IXEFLD              0             x 10-6  
       YFIELD               IYEFLD              0             x 10-6  
       ZFIELD               IZEFLD              0             x 10-6  
       SAVE_INTS            ISVINT             OFF      [  0]   ***   
       DROPMO               IDRPMO      NONE         
       CHARGE               ICHRGE              0               ***   
       MULTIPLICTY          IMULTP              1               ***   
  
       CPHF_CONVER          ICPHFT          10D- 16             ***   
       CPHF_MAXCYC          ICPHFC             64              cycles 
       INCORE               INCORE             OFF      [  0]   ***   
       MEMORY_SIZE          IMEMSZ         100000000           words  
       FILE_RECSIZ          IFLREC              4096           words  
       NON-HF               INONHF             OFF      [  0]   ***   
       ORBITALS             IORBTP           STANDARD   [  0]   ***   
  
       SCF_EXPSTAR          IRPPLS              8               ***   
       LOCK_ORBOCC          ILOCOC             OFF      [  0]   ***   
       HBAR                 IHBAR              OFF      [  0]   ***   
       CACHE_RECS           ICHREC             10               ***   
       GUESS                IGUESS            MOREAD    [  0]   ***   
       JODA_PRINT           IJPRNT              0               ***   
       GEO_METHOD           INR            SINGLE_POINT [  5]   ***   
       GEO_CONV             ICONTL              5              H/bohr 
       EIGENVECTOR          IVEC                1               ***   
  
       NEGEVAL              IDIE             ABORT      [  0]   ***   
       CURVILINEAR          ICURVY            OFF       [  0]   ***   
       SCALE_ON             ISTCRT              0               ***   
       GEO_MAXSTEP          IMXSTP            300            millibohr
       VIBRATION            IVIB              NO        [  0]   ***   
       EVAL_HESS            IRECAL              0            # of cyc.
       INTEGRALS            INTTYP             VMOL     [  1]   ***   
[...]
  
       FD_PROJECT           IFDPRJ         ON           [  0]   ***   
       FD_CALTYPE           IFDCAL         GRADONLY     [  0]   ***   
       VTRAN                IVTRAN         FULL/PARTIAL [  0]   ***   
       HF2_FILE             IHF2Fl         USE          [  1]   ***   
       SUBGROUP             ISUBGP         DEFAULT      [  0]   ***   
       SUBGRPAXIS           ISBXYZ         X            [  0]   ***   
       EXCITE               IEXCIT         NONE         [  0]   ***   
       LINEQ_CONV           IZTACN          10D-  7           cycles  
  
       TREAT_PERT           ITREAT         SIMULTANEOUS [  0]   ***   
       ESTATE_PROP          IEXPRP         OFF          [  0]   ***   
       GEO_MAXCYC           IOPTCY             50               ***   
       ABCDTYPE             IABCDT         STANDARD     [  0]   ***   
       AO_LADDERS           IAOLAD         SINGLEPASS   [  1]   ***   
       FOCK                 IFOCK          AO           [  1]   ***   
       ESTATE_MAXC          IEXMXC             20               ***   
       ESTATE_CONV          IEXTOL          10D-  5             ***   
       DIRECT               IDIRCT         OFF          [  0]   ***   
  
       GAMMA_ABCD           IGABCD         STORE        [  0]   ***   
       LINEQ_TYPE           ILTYPE         DIIS         [  1]   ***   
       LINEQ_MAXCY          ILMAXC             50               ***   
       TRANGRAD             IRESRM         OFF          [  0]   ***   
       PSI                  IPSI           OFF          [  0]   ***   
       GAMMA_ABCI           IGABCI         STORE        [  0]   ***   
       ESTATE_DIAG          IEXDIG         ITERATIVE    [  0]   ***   
       FC_FIELD             IFINFC              0             x 10-6  
       SD_FIELD             IFINSD              0             x 10-6  
       DIFF_TYPE            IDIFTY         RELAXED      [  0]   ***   
  
       LINEQ_EXPOR          ILMAXD              5               ***   
       FINITE_PERT          IFIPER              0             x 10-6  
       ANHARMONIC           IANHAR         OFF          [  0]   ***   
       CC_PROGRAM           ICCPRO         VCC          [  0]   ***   
       OPEN-SHELL           IOPEN          SPIN-ORBITAL [  0]   ***   
       UIJ_THRESHO          IUIJTH             25               ***   
       SCF_DAMPING          IDAMP               0             x 10-3  
       PROP_INTEGR          IINTYP         INTERNAL     [  0]   ***   
       ANH_SYMMETR          IANHSM         ABELIAN      [  0]   ***   
       ANH_ALGORIT          IANALG         STANDARD     [  0]   ***   
  
       EOM_NONIT            EOMNON         OFF          [  0]   ***   
       VIB_ALGORIT          IGEALG         STANDARD     [  0]   ***   
       ANH_DERIVAT          IANDER         SECOND       [  1]   ***   
       SPINROTATIO          ISRCON         OFF          [  0]   ***   
       CIS_CONV             ICISTL              5               ***   
       ANH_STEPSIZ          ICUBST             50000          x 10-6  
       SPIN_FLIP            ISPFLP         OFF          [  0]   ***   
       GRID                 IGRID          OFF          [  0]   ***   
  
       DBOC                 IDBOC          OFF          [  0]   ***   
       EOMFOLLOW            IEOMSR         ENERGY       [  0]   ***   
       T3_EXTRAPOL          IT3EXT         OFF          [  0]   ***   
       ESTATE_LOCK          IESLOC         OFF          [  0]   ***   
       UNOS                 IUNOS          OFF          [  0]   ***   
       FREQ_ALGORI          IVIALG         STANDARD     [  0]   ***   
       RELATIVIST           IRELAT         OFF          [  0]   ***   
       FROZEN_CORE          IFROCO         OFF          [  0]   ***   
       EXCITATION           IEXCIT              0               ***   
       INPUT_MRCC           IMRCC          ON           [  1]   ***   
  
       GIAO                 IGIAO          OFF          [  1]   ***   
       EOM_NSING            IEOMSI          10D-  0             ***   
       EOM_NTRIP            IEOMTR          10D-  0             ***   
       EOM_NSTATES          IMRCCD         DAVIDSON     [  0]   ***   
       DIAG_MRCC            IEOMST          10D-  0             ***   
       NEWNORM              INEWNO         OFF          [  0]   ***   
       TESTSUITE            ITESTS         OFF          [  0]   ***   
       BUFFERSIZE           IBUFFS            600               ***   
       SPINORBIT            ISOCAL         OFF          [  0]   ***   
       DCT                  IDCT           OFF          [  0]   ***   
  
       PARALLEL             IPARAL         ON           [  1]   ***   
       PARA_PRINT           IPPRIN              0               ***   
       COMM_SIZE            IPSIZE            ***               ***   
       PARA_INT             IPINTS         ON           [  1]   ***   
       RAMAN_INT            IRAMIN         OFF          [  0]   ***   
       RAMAN_ORB            IRAMRE         UNRELAXED    [  0]   ***   
       BREIT                IBREIT         OFF          [  0]   ***   
       MEM_UNIT             IMEMU          INTEGERWORDS [  0]   ***   
       SPIN_ORBIT           ISPORB         OFF          [  0]   ***   
       GENBAS_4             IGNBS4              0               ***   
  
       SPIN_SCAL            ISCSMP         OFF          [  0]   ***   
       GRID_ALGO            IGALGO         SERIAL       [  0]   ***   
       VIBPHASE             ISETPH         STANDARD     [  0]   ***   
       SEQUENCE             ISEQUE         OFF          [  0]   ***   
       HESS_TYPE            IHESTP         SCF          [  0]   ***   
       CONTINUUM            ICONTU         NONE         [  0]   ***   
       SCF_NOSTOP           ISCFST         OFF          [  0]   ***   
       CONSTANT             ICONST         OLD          [  1]   ***   
  
       EOM_MRCC             IMRCCE         OLD          [  0]   ***   
       EOM_ORDER            IEXORD         ENERGY       [  0]   ***   
       GIMIC                IGIMIC         OFF          [  0]   ***   
    -------------------------------------------------------------------
  @GETXYZ-I,    12 atoms read from ZMAT.
  1  H          1     1.00783
  2  H          1     1.00783
  3  H          1     1.00783
  4  H          1     1.00783
  5  H          1     1.00783
  6  H          1     1.00783
  7  H          1     1.00783
  8  H          1     1.00783
  9  H          1     1.00783
 10  H          1     1.00783
 11  H          1     1.00783
 12  H          1     1.00783
  1  H          1     1.00783
  2  H          1     1.00783
  3  H          1     1.00783
  4  H          1     1.00783
  5  H          1     1.00783
  6  H          1     1.00783
  7  H          1     1.00783
  8  H          1     1.00783
  9  H          1     1.00783
 10  H          1     1.00783
 11  H          1     1.00783
 12  H          1     1.00783
   Rotational constants (in cm-1): 
          2.0636997965             2.0636997965             2.0636997965
   Rotational constants (in MHz): 
      61868.1721251972         61868.1721251972         61868.1721251972
********************************************************************************
   The full molecular point group is I h .
   The largest Abelian subgroup of the full molecular point group is D2h .
   The computational point group is D2h .
********************************************************************************
 ----------------------------------------------------------------
 Z-matrix   Atomic            Coordinates (in bohr)
  Symbol    Number           X              Y              Z
 ----------------------------------------------------------------
     H         1         0.00000000    -1.61803432     1.00000021
     H         1         1.00000021     0.00000000     1.61803432
     H         1        -1.00000021     0.00000000    -1.61803432
     H         1         0.00000000     1.61803432    -1.00000021
     H         1        -1.61803432    -1.00000021     0.00000000
     H         1         0.00000000    -1.61803432    -1.00000021
     H         1         0.00000000     1.61803432     1.00000021
     H         1         1.61803432     1.00000021     0.00000000
     H         1        -1.00000021     0.00000000     1.61803432
     H         1        -1.61803432     1.00000021     0.00000000
     H         1         1.61803432    -1.00000021     0.00000000
     H         1         1.00000021     0.00000000    -1.61803432
 ----------------------------------------------------------------
   Interatomic distance matrix (Angstroms) 
 
                 H             H             H             H             H    
                [ 1]        [ 2]        [ 3]        [ 4]        [ 5]
  H    [ 1]     0.00000
  H    [ 2]     1.05835     0.00000
  H    [ 3]     1.71245     2.01311     0.00000
  H    [ 4]     2.01311     1.71245     1.05835     0.00000
  H    [ 5]     1.05835     1.71245     1.05835     1.71245     0.00000
  H    [ 6]     1.05835     1.71245     1.05835     1.71245     1.05835
  H    [ 7]     1.71245     1.05835     1.71245     1.05835     1.71245
  H    [ 8]     1.71245     1.05835     1.71245     1.05835     2.01311
  H    [ 9]     1.05835     1.05835     1.71245     1.71245     1.05835
  H    [10]     1.71245     1.71245     1.05835     1.05835     1.05835
  H    [11]     1.05835     1.05835     1.71245     1.71245     1.71245
  H    [12]     1.71245     1.71245     1.05835     1.05835     1.71245
 
                 H             H             H             H             H    
                [ 6]        [ 7]        [ 8]        [ 9]        [10]
  H    [ 6]     0.00000
  H    [ 7]     2.01311     0.00000
  H    [ 8]     1.71245     1.05835     0.00000
  H    [ 9]     1.71245     1.05835     1.71245     0.00000
  H    [10]     1.71245     1.05835     1.71245     1.05835     0.00000
  H    [11]     1.05835     1.71245     1.05835     1.71245     2.01311
  H    [12]     1.05835     1.71245     1.05835     2.01311     1.71245
 
                 H             H    
                [11]        [12]
  H    [11]     0.00000
  H    [12]     1.05835     0.00000
   Rotational constants (in cm-1): 
          2.0636997965             2.0636997965             2.0636997965
   Rotational constants (in MHz): 
      61868.1721251972         61868.1721251972         61868.1721251972
  There are   12 basis functions.
 @GEOPT-W, Archive file not created for single-point calculation.
                0.12 seconds walltime passed
 --executable xjoda finished with status            0
  flag is                      5
 --invoking executable xvmol
 Serial version of molecule started
 
    -------------------------------------------------------------------
                    Input from MOL file
    -------------------------------------------------------------------
 INTGRL        1    0    1    0    0    0    0    0    0                        
          *** CFOUR Program System (Release V0.1) ***                           
 auto-generated by qcdb from molecule Ih                                        
     3    3 X  Y   Z   0.10E-08              0    0                             
    9999.00      3.00                                                           
           1.00000000    1    1    1                                            
 H #1      0.000000000000     -1.618034320747      1.000000205178               
     3    1                                                                     
    3.42525090000000       0.154329000000000                                    
   0.623913700000000       0.535328100000000                                    
   0.168855400000000       0.444634500000000                                    
           1.00000000    1    1    1                                            
 H #2      1.000000205178      0.000000000052      1.618034320747               
     3    1                                                                     
    3.42525090000000       0.154329000000000                                    
   0.623913700000000       0.535328100000000                                    
   0.168855400000000       0.444634500000000                                    
           1.00000000    1    1    1                                            
 H #3     -1.618034320740     -1.000000205188      0.000000000011               
     3    1                                                                     
    3.42525090000000       0.154329000000000                                    
   0.623913700000000       0.535328100000000                                    
   0.168855400000000       0.444634500000000                                    
 FINISH                                                                         
 
    -------------------------------------------------------------------
 
 One- and two-electron integrals over symmetry-adapted AOs are calculated.

  Spherical harmonics are used.
  
  Integrals less than  0.10E-13 are neglected.

  Nuclear repulsion energy :   25.8476978640 a.u.
  required memory for a1 array                3000290  words 
  required memory for a2 array                2000620  words 
 basis number:   1     1
 basis number:   1     1
 basis number:   1     1
  @MOLECU-I, One electron integrals required         0.00000 seconds.
  @TWOEL-I,         42 integrals of symmetry type  I I I I
  @TWOEL-I,        141 integrals of symmetry type  I J I J
  @TWOEL-I,        129 integrals of symmetry type  I I J J
  @TWOEL-I,        153 integrals of symmetry type  I J K L
  @TWOEL-I, Total number of 2-e integrals        465.
  @MOLECU-I, Two electron integrals required         0.01000 seconds.
  @CHECKOUT-I, Total execution time :       0.0100 seconds.
                0.00 seconds walltime passed
 --executable xvmol finished with status            0
 --invoking executable xvmol2ja
  @CHECKOUT-I, Total execution time :       0.0000 seconds.
                0.00 seconds walltime passed
 --executable xvmol2ja finished with status            0
 --invoking executable xvscf
 NSOSCF                     0
  There are   12 functions in the AO basis.

  There are 8 irreducible representations.

       Irrep        # of functions
         1                  3
         2                  2
         3                  2
         4                  1
         5                  2
         6                  1
         7                  1
         8                  0


  Parameters for SCF calculation: 
        SCF reference function:  RHF  
  Maximum number of iterations:  150
     Full symmetry point group: I h 
     Computational point group: D2h 
        Initial density matrix: MOREAD                 
     SCF convergence tolerance: 10**(- 7)
  DIIS convergence acceleration:  ON
          Latest start for DIIS:   8
                     DIIS order:   6

  Memory information:      48266 words required.
  Fock matrices are constructed from AO integral file.
  Initialization and symmetry analysis required      0.000 seconds.

  @INITGES-I, Occupancies from core Hamiltonian:

          Alpha population by irrep:   2    1    1    1    1    0    0    0
           Beta population by irrep:   2    1    1    1    1    0    0    0


 total no. of electrons in initial guess :  0.000000000000000E+000
  --------------------------------------------------------------------
  Iteration         Total Energy            Largest Density Difference
  --------------------------------------------------------------------
       0            25.847697863957162              0.0000000000D+00
   current occupation vector 
     2  1  1  1  1  0  0  0
     2  1  1  1  1  0  0  0
       1            -4.683353971795743              0.1072539544D+01
   current occupation vector 
     2  1  1  1  1  0  0  0
     2  1  1  1  1  0  0  0
       2            -4.707478501977505              0.8371746173D-01
   current occupation vector 
     2  1  1  1  1  0  0  0
     2  1  1  1  1  0  0  0
       3            -4.718223847851160              0.6547599869D-01
   current occupation vector 
     2  1  1  1  1  0  0  0
     2  1  1  1  1  0  0  0
       4            -4.738513873250920              0.1883527634D+00
   current occupation vector 
     2  1  1  1  1  0  0  0
     2  1  1  1  1  0  0  0
       5            -4.738454000504326              0.7766750444D-02
   current occupation vector 
     2  1  1  1  1  0  0  0
     2  1  1  1  1  0  0  0
       6            -4.740044947248929              0.7535844618D-01
   current occupation vector 
     2  1  1  1  1  0  0  0
     2  1  1  1  1  0  0  0
       7            -4.740072190901842              0.1714350891D-02
   current occupation vector 
     2  1  1  1  1  0  0  0
     2  1  1  1  1  0  0  0
       8            -4.740074284819816              0.3141229301D-03
   current occupation vector 
     2  1  1  1  1  0  0  0
     2  1  1  1  1  0  0  0
       9            -4.740074396226113              0.8956166349D-04
   current occupation vector 
     2  1  1  1  1  0  0  0
     2  1  1  1  1  0  0  0
      10            -4.740074396245898              0.4121561832D-05
   current occupation vector 
     2  1  1  1  1  0  0  0
     2  1  1  1  1  0  0  0
      11            -4.740074396245952              0.3639640893D-06
   current occupation vector 
     2  1  1  1  1  0  0  0
     2  1  1  1  1  0  0  0

  SCF has converged.

 save density matrix on hard disk
 total electron number:   12.0000000000000     
     E(SCF)=        -4.740074396245962              0.3228295284D-08

  Eigenvector printing suppressed.

 @PUTMOS-I, Writing converged MOs to NEWMOS. 
 @PUTMOS-I, Symmetry   1 Full   0 Partial   3
 @PUTMOS-I, Symmetry   2 Full   0 Partial   2
 @PUTMOS-I, Symmetry   3 Full   0 Partial   2
 @PUTMOS-I, Symmetry   4 Full   0 Partial   1
 @PUTMOS-I, Symmetry   5 Full   0 Partial   2
 @PUTMOS-I, Symmetry   6 Full   0 Partial   1
 @PUTMOS-I, Symmetry   7 Full   0 Partial   1
 @PUTMOS-I, Symmetry   8 Full   0 Partial   0


 
  ORBITAL EIGENVALUES (ALPHA)  (1H = 27.2113838 eV)

       MO #        E(hartree)               E(eV)           FULLSYM    COMPSYM
       ----   --------------------   --------------------   -------   ---------
    1     1          -1.0862692017         -29.5588881788      Ag        Ag (1)
    2     6          -0.6732064651         -18.3188795111      Au       B3u (3)
    3     9          -0.6472398099         -17.6122908899      Au       B1u (5)
    4     4          -0.6026763147         -16.3996565189      Au       B2u (2)
    5     2          -0.0159796864          -0.4348293804      Ag        Ag (1)
    6     8           0.0336524047           0.9157285016      Ag       B1g (4)
  +++++++++++++++++++++++++++++++++++++++++++++++++++++++++++++++++++++++++++++
    7    11           0.3407119860           9.2712446236      Ag       B3g (6)
    8    12           0.3413855706           9.2895737927      Ag       B2g (7)
    9     3           0.3743065536          10.1853992952      Ag        Ag (1)
   10    10           0.8396889176          22.8490974267      Au       B1u (5)
   11     7           0.8661684816          23.5696430060      Au       B3u (3)
   12     5           0.8771126222          23.8674482162      Au       B2u (2)


  VSCF finished.

  @CHECKOUT-I, Total execution time :       0.0000 seconds.
                0.00 seconds walltime passed
 --executable xvscf finished with status            0




  Variable Map:
  ----------------------------------------------------------------------------
  "CFOUR ERROR CODE"         =>       0.000000000000
  "CURRENT ENERGY"           =>      -4.740074396246
  "CURRENT REFERENCE ENERGY" =>      -4.740074396246
  "NUCLEAR REPULSION ENERGY" =>      25.847697864000
  "SCF TOTAL ENERGY"         =>      -4.740074396246



*** PSI4 exiting successfully. Buy a developer a beer!
