
    -----------------------------------------------------------------------
          Psi4: An Open-Source Ab Initio Electronic Structure Package
                               Psi4 1.1rc3.dev5 

                         Git: Rev {master} 3fbd859 


    R. M. Parrish, L. A. Burns, D. G. A. Smith, A. C. Simmonett,
    A. E. DePrince III, E. G. Hohenstein, U. Bozkaya, A. Yu. Sokolov,
    R. Di Remigio, R. M. Richard, J. F. Gonthier, A. M. James,
    H. R. McAlexander, A. Kumar, M. Saitow, X. Wang, B. P. Pritchard,
    P. Verma, H. F. Schaefer III, K. Patkowski, R. A. King, E. F. Valeev,
    F. A. Evangelista, J. M. Turney, T. D. Crawford, and C. D. Sherrill,
    J. Chem. Theory Comput. in press (2017).
    (doi: 10.1021/acs.jctc.7b00174)

    -----------------------------------------------------------------------


    Psi4 started on: Monday, 15 May 2017 03:39PM

    Process ID:  19646
    PSIDATADIR: /home/psilocaluser/gits/hrw-direct/objdir4/stage/usr/local/psi4/share/psi4
    Memory:     500.0 MiB
    Threads:    1
    
  ==> Input File <==

--------------------------------------------------------------------------
#! Tests RHF/ROHF/UHF SCF gradients

molecule h2o {
0 1
O
H 1 R
H 1 R 2 A

R = 1.0
A = 104.5
}

set {
   reference rhf
   basis cc-pvdz
   e_convergence 8
   d_convergence 8
}

analytic = gradient('scf')

set findif points 3
findif = gradient('scf', dertype=0)

compare_matrices(analytic, findif, 5, "RHF SCF finite-diff (3-pt) vs. analytic gradient to 10^-5") #TEST

set findif points 5
findif = gradient('scf', dertype=0)

compare_matrices(analytic, findif, 7, "RHF SCF finite-diff (5-pt) vs. analytic gradient to 10^-7") #TEST

molecule h2o {
0 3
O
H 1 R
H 1 R 2 A

R = 1.0
A = 104.5
}

set {
   reference rohf
   basis cc-pvdz
}

analytic = gradient('scf')

set findif points 3
findif = gradient('scf', dertype=0)

compare_matrices(analytic, findif, 5, "ROHF SCF finite-diff (3-pt) vs. analytic gradient to 10^-5") #TEST

set findif points 5
findif = gradient('scf', dertype=0)

compare_matrices(analytic, findif, 7, "ROHF SCF finite-diff (5-pt) vs. analytic gradient to 10^-7") #TEST

molecule h2o {
0 3
O
H 1 R
H 1 R 2 A

R = 1.0
A = 104.5
}

set {
   reference uhf
   basis cc-pvdz
}

analytic = gradient('scf')

set findif points 3
findif = gradient('scf', dertype=0)

compare_matrices(analytic, findif, 5, "UHF SCF finite-diff (3-pt) vs. analytic gradient to 10^-5") #TEST

set findif points 5
findif = gradient('scf', dertype=0)

compare_matrices(analytic, findif, 7, "UHF SCF finite-diff (5-pt) vs. analytic gradient to 10^-7") #TEST

--------------------------------------------------------------------------
gradient() will perform analytic gradient computation.

*** tstart() called on psinet
*** at Mon May 15 15:39:55 2017

   => Loading Basis Set <=

    Name: CC-PVDZ
    Role: ORBITAL
    Keyword: BASIS
    atoms 1   entry O          line   190 file /home/psilocaluser/gits/hrw-direct/objdir4/stage/usr/local/psi4/share/psi4/basis/cc-pvdz.gbs 
    atoms 2-3 entry H          line    20 file /home/psilocaluser/gits/hrw-direct/objdir4/stage/usr/local/psi4/share/psi4/basis/cc-pvdz.gbs 


         ---------------------------------------------------------
                                   SCF
            by Justin Turney, Rob Parrish, and Andy Simmonett
                              RHF Reference
                        1 Threads,    500 MiB Core
         ---------------------------------------------------------

  ==> Geometry <==

    Molecular point group: c2v
    Full point group: C2v

    Geometry (in Angstrom), charge = 0, multiplicity = 1:

       Center              X                  Y                   Z               Mass       
    ------------   -----------------  -----------------  -----------------  -----------------
           O          0.000000000000     0.000000000000    -0.068516219310    15.994914619560
           H          0.000000000000    -0.790689573744     0.543701060724     1.007825032070
           H          0.000000000000     0.790689573744     0.543701060724     1.007825032070

  Running in c2v symmetry.

  Rotational constants: A =     25.12555  B =     13.37733  C =      8.72955 [cm^-1]
  Rotational constants: A = 753245.06586  B = 401042.16407  C = 261705.25278 [MHz]
  Nuclear repulsion =    8.801465529972067

  Charge       = 0
  Multiplicity = 1
  Electrons    = 10
  Nalpha       = 5
  Nbeta        = 5

  ==> Algorithm <==

  SCF Algorithm Type is DF.
  DIIS enabled.
  MOM disabled.
  Fractional occupation disabled.
  Guess Type is SAD.
  Energy threshold   = 1.00e-08
  Density threshold  = 1.00e-08
  Integral threshold = 0.00e+00

  ==> Primary Basis <==

  Basis Set: CC-PVDZ
    Blend: CC-PVDZ
    Number of shells: 12
    Number of basis function: 24
    Number of Cartesian functions: 25
    Spherical Harmonics?: true
    Max angular momentum: 2

   => Loading Basis Set <=

    Name: (CC-PVDZ AUX)
    Role: JKFIT
    Keyword: DF_BASIS_SCF
    atoms 1   entry O          line   220 file /home/psilocaluser/gits/hrw-direct/objdir4/stage/usr/local/psi4/share/psi4/basis/cc-pvdz-jkfit.gbs 
    atoms 2-3 entry H          line    50 file /home/psilocaluser/gits/hrw-direct/objdir4/stage/usr/local/psi4/share/psi4/basis/cc-pvdz-jkfit.gbs 

  ==> Pre-Iterations <==

   -------------------------------------------------------
    Irrep   Nso     Nmo     Nalpha   Nbeta   Ndocc  Nsocc
   -------------------------------------------------------
     A1        11      11       0       0       0       0
     A2         2       2       0       0       0       0
     B1         4       4       0       0       0       0
     B2         7       7       0       0       0       0
   -------------------------------------------------------
    Total      24      24       5       5       5       0
   -------------------------------------------------------

  ==> Integral Setup <==

  ==> DFJK: Density-Fitted J/K Matrices <==

    J tasked:                  Yes
    K tasked:                  Yes
    wK tasked:                  No
    OpenMP threads:              1
    Integrals threads:           1
    Memory (MB):               375
    Algorithm:                Core
    Integral Cache:           NONE
    Schwarz Cutoff:          1E-12
    Fitting Condition:       1E-12

   => Auxiliary Basis Set <=

  Basis Set: (CC-PVDZ AUX)
    Blend: CC-PVDZ-JKFIT
    Number of shells: 42
    Number of basis function: 116
    Number of Cartesian functions: 131
    Spherical Harmonics?: true
    Max angular momentum: 3

  Minimum eigenvalue in the overlap matrix is 3.7382439507E-02.
  Using Symmetric Orthogonalization.

  SCF Guess: Superposition of Atomic Densities via on-the-fly atomic UHF.

  ==> Iterations <==

                           Total Energy        Delta E     RMS |[F,P]|

   @DF-RHF iter   0:   -75.82125746794586   -7.58213e+01   1.11203e-01 
   @DF-RHF iter   1:   -75.99643289957589   -1.75175e-01   1.79504e-02 
   @DF-RHF iter   2:   -76.01556568243208   -1.91328e-02   9.08162e-03 DIIS
   @DF-RHF iter   3:   -76.02115130081170   -5.58562e-03   1.30414e-03 DIIS
   @DF-RHF iter   4:   -76.02136564539455   -2.14345e-04   3.39002e-04 DIIS
   @DF-RHF iter   5:   -76.02139497933933   -2.93339e-05   8.79184e-05 DIIS
   @DF-RHF iter   6:   -76.02139741605623   -2.43672e-06   1.36498e-05 DIIS
   @DF-RHF iter   7:   -76.02139746369942   -4.76432e-08   9.88774e-07 DIIS
   @DF-RHF iter   8:   -76.02139746387701   -1.77593e-10   1.43806e-07 DIIS
   @DF-RHF iter   9:   -76.02139746388073   -3.72324e-12   2.03132e-08 DIIS
   @DF-RHF iter  10:   -76.02139746388085   -1.13687e-13   3.02483e-09 DIIS

  ==> Post-Iterations <==

    Orbital Energies (a.u.)
    -----------------------

    Doubly Occupied:                                                      

       1A1   -20.557851     2A1    -1.316186     1B2    -0.677076  
       3A1    -0.558723     1B1    -0.490375  

    Virtual:                                                              

       4A1     0.178016     2B2     0.249486     3B2     0.760311  
       5A1     0.816144     6A1     1.166347     2B1     1.198686  
       4B2     1.256576     7A1     1.452880     1A2     1.466534  
       3B1     1.668515     8A1     1.877409     5B2     1.890443  
       6B2     2.355075     9A1     2.388631     4B1     3.249433  
       2A2     3.298364    10A1     3.454607    11A1     3.821967  
       7B2     4.099335  

    Final Occupation by Irrep:
             A1    A2    B1    B2 
    DOCC [     3,    0,    1,    1 ]

  Energy converged.

  @DF-RHF Final Energy:   -76.02139746388085

   => Energetics <=

    Nuclear Repulsion Energy =              8.8014655299720665
    One-Electron Energy =                -122.4453031234851892
    Two-Electron Energy =                  37.6224401296322810
    DFT Exchange-Correlation Energy =       0.0000000000000000
    Empirical Dispersion Energy =           0.0000000000000000
    PCM Polarization Energy =               0.0000000000000000
    EFP Energy =                            0.0000000000000000
    Total Energy =                        -76.0213974638808452



Properties will be evaluated at   0.000000,   0.000000,   0.000000 Bohr

Properties computed using the SCF density matrix

  Nuclear Dipole Moment: (a.u.)
     X:     0.0000      Y:     0.0000      Z:     1.0191

  Electronic Dipole Moment: (a.u.)
     X:     0.0000      Y:     0.0000      Z:    -0.1945

  Dipole Moment: (a.u.)
     X:     0.0000      Y:     0.0000      Z:     0.8246     Total:     0.8246

  Dipole Moment: (Debye)
     X:     0.0000      Y:     0.0000      Z:     2.0958     Total:     2.0958


*** tstop() called on psinet at Mon May 15 15:39:56 2017
Module time:
	user time   =       0.48 seconds =       0.01 minutes
	system time =       0.02 seconds =       0.00 minutes
	total time  =          1 seconds =       0.02 minutes
Total time:
	user time   =       0.48 seconds =       0.01 minutes
	system time =       0.02 seconds =       0.00 minutes
	total time  =          1 seconds =       0.02 minutes

*** tstart() called on psinet
*** at Mon May 15 15:39:56 2017


         ------------------------------------------------------------
                                   SCF GRAD                          
                          Rob Parrish, Justin Turney,                
                       Andy Simmonett, and Alex Sokolov              
         ------------------------------------------------------------

  ==> Geometry <==

    Molecular point group: c2v
    Full point group: C2v

    Geometry (in Angstrom), charge = 0, multiplicity = 1:

       Center              X                  Y                   Z               Mass       
    ------------   -----------------  -----------------  -----------------  -----------------
           O          0.000000000000     0.000000000000    -0.068516219310    15.994914619560
           H          0.000000000000    -0.790689573744     0.543701060724     1.007825032070
           H          0.000000000000     0.790689573744     0.543701060724     1.007825032070

  Nuclear repulsion =    8.801465529972067

  ==> Basis Set <==

  Basis Set: CC-PVDZ
    Blend: CC-PVDZ
    Number of shells: 12
    Number of basis function: 24
    Number of Cartesian functions: 25
    Spherical Harmonics?: true
    Max angular momentum: 2

  ==> DFJKGrad: Density-Fitted SCF Gradients <==

    Gradient:                    1
    J tasked:                  Yes
    K tasked:                  Yes
    wK tasked:                  No
    OpenMP threads:              1
    Integrals threads:           1
    Memory (MB):               375
    Schwarz Cutoff:          0E+00
    Fitting Condition:       1E-12

   => Auxiliary Basis Set <=

  Basis Set: (CC-PVDZ AUX)
    Blend: CC-PVDZ-JKFIT
    Number of shells: 42
    Number of basis function: 116
    Number of Cartesian functions: 131
    Spherical Harmonics?: true
    Max angular momentum: 3


  -Total Gradient:
     Atom            X                  Y                   Z
    ------   -----------------  -----------------  -----------------
       1        0.000000000000     0.000000000000    -0.059597382426
       2        0.000000000000    -0.043039524413     0.029798691213
       3       -0.000000000000     0.043039524413     0.029798691213


*** tstop() called on psinet at Mon May 15 15:39:56 2017
Module time:
	user time   =       0.14 seconds =       0.00 minutes
	system time =       0.01 seconds =       0.00 minutes
	total time  =          0 seconds =       0.00 minutes
Total time:
	user time   =       0.63 seconds =       0.01 minutes
	system time =       0.03 seconds =       0.00 minutes
	total time  =          1 seconds =       0.02 minutes
gradient() will perform gradient computation by finite difference of analytic energies.

-------------------------------------------------------------

  Using finite-differences of energies to determine gradients (fd_geoms_1_0).
	Generating geometries for use with 3-point formula.
	Displacement size will be 5.00e-03.
	Number of atoms is 3.
	Number of symmetric SALC's is 2.
	Number of displacements (including reference) is 5.

-------------------------------------------------------------

  //>>>>>>>>>>>>>>>>>>>>>>>>>>>>>>>>>>>//
  //    Loading displacement 1 of 5    //
  //<<<<<<<<<<<<<<<<<<<<<<<<<<<<<<<<<<<//

*** tstart() called on psinet
*** at Mon May 15 15:39:56 2017

   => Loading Basis Set <=

    Name: CC-PVDZ
    Role: ORBITAL
    Keyword: BASIS
    atoms 1   entry O          line   190 file /home/psilocaluser/gits/hrw-direct/objdir4/stage/usr/local/psi4/share/psi4/basis/cc-pvdz.gbs 
    atoms 2-3 entry H          line    20 file /home/psilocaluser/gits/hrw-direct/objdir4/stage/usr/local/psi4/share/psi4/basis/cc-pvdz.gbs 


         ---------------------------------------------------------
                                   SCF
            by Justin Turney, Rob Parrish, and Andy Simmonett
                              RHF Reference
                        1 Threads,    500 MiB Core
         ---------------------------------------------------------

  ==> Geometry <==

    Molecular point group: c2v
    Full point group: C2v

    Geometry (in Angstrom), charge = 0, multiplicity = 1:

       Center              X                  Y                   Z               Mass       
    ------------   -----------------  -----------------  -----------------  -----------------
           O          0.000000000000     0.000000000000    -0.068737541050    15.994914619560
           H          0.000000000000    -0.790689573744     0.545457329036     1.007825032070
           H          0.000000000000     0.790689573744     0.545457329036     1.007825032070

  Running in c2v symmetry.

  Rotational constants: A =     24.96401  B =     13.37733  C =      8.70997 [cm^-1]
  Rotational constants: A = 748402.26469  B = 401042.16407  C = 261118.20312 [MHz]
  Nuclear repulsion =    8.791216689717068

  Charge       = 0
  Multiplicity = 1
  Electrons    = 10
  Nalpha       = 5
  Nbeta        = 5

  ==> Algorithm <==

  SCF Algorithm Type is DF.
  DIIS enabled.
  MOM disabled.
  Fractional occupation disabled.
  Guess Type is SAD.
  Energy threshold   = 1.00e-08
  Density threshold  = 1.00e-08
  Integral threshold = 0.00e+00

  ==> Primary Basis <==

  Basis Set: CC-PVDZ
    Blend: CC-PVDZ
    Number of shells: 12
    Number of basis function: 24
    Number of Cartesian functions: 25
    Spherical Harmonics?: true
    Max angular momentum: 2

   => Loading Basis Set <=

    Name: (CC-PVDZ AUX)
    Role: JKFIT
    Keyword: DF_BASIS_SCF
    atoms 1   entry O          line   220 file /home/psilocaluser/gits/hrw-direct/objdir4/stage/usr/local/psi4/share/psi4/basis/cc-pvdz-jkfit.gbs 
    atoms 2-3 entry H          line    50 file /home/psilocaluser/gits/hrw-direct/objdir4/stage/usr/local/psi4/share/psi4/basis/cc-pvdz-jkfit.gbs 

  ==> Pre-Iterations <==

   -------------------------------------------------------
    Irrep   Nso     Nmo     Nalpha   Nbeta   Ndocc  Nsocc
   -------------------------------------------------------
     A1        11      11       0       0       0       0
     A2         2       2       0       0       0       0
     B1         4       4       0       0       0       0
     B2         7       7       0       0       0       0
   -------------------------------------------------------
    Total      24      24       5       5       5       0
   -------------------------------------------------------

  ==> Integral Setup <==

  ==> DFJK: Density-Fitted J/K Matrices <==

    J tasked:                  Yes
    K tasked:                  Yes
    wK tasked:                  No
    OpenMP threads:              1
    Integrals threads:           1
    Memory (MB):               375
    Algorithm:                Core
    Integral Cache:           NONE
    Schwarz Cutoff:          1E-12
    Fitting Condition:       1E-12

   => Auxiliary Basis Set <=

  Basis Set: (CC-PVDZ AUX)
    Blend: CC-PVDZ-JKFIT
    Number of shells: 42
    Number of basis function: 116
    Number of Cartesian functions: 131
    Spherical Harmonics?: true
    Max angular momentum: 3

  Minimum eigenvalue in the overlap matrix is 3.7444245165E-02.
  Using Symmetric Orthogonalization.

  SCF Guess: Superposition of Atomic Densities via on-the-fly atomic UHF.

  ==> Iterations <==

                           Total Energy        Delta E     RMS |[F,P]|

   @DF-RHF iter   0:   -75.96605492669114   -7.59661e+01   1.12478e-01 
   @DF-RHF iter   1:   -75.96785267237871   -1.79775e-03   2.39872e-02 
   @DF-RHF iter   2:   -76.00904259679352   -4.11899e-02   1.29069e-02 DIIS
   @DF-RHF iter   3:   -76.02026371324341   -1.12211e-02   2.22994e-03 DIIS
   @DF-RHF iter   4:   -76.02109092189957   -8.27209e-04   6.26621e-04 DIIS
   @DF-RHF iter   5:   -76.02116890332928   -7.79814e-05   1.01687e-04 DIIS
   @DF-RHF iter   6:   -76.02117163302078   -2.72969e-06   2.25407e-05 DIIS
   @DF-RHF iter   7:   -76.02117177723838   -1.44218e-07   4.23987e-06 DIIS
   @DF-RHF iter   8:   -76.02117178230463   -5.06625e-09   4.98555e-07 DIIS
   @DF-RHF iter   9:   -76.02117178235795   -5.33191e-11   3.87860e-08 DIIS
   @DF-RHF iter  10:   -76.02117178235810   -1.42109e-13   3.96327e-09 DIIS

  ==> Post-Iterations <==

    Orbital Energies (a.u.)
    -----------------------

    Doubly Occupied:                                                      

       1A1   -20.558164     2A1    -1.315773     1B2    -0.676159  
       3A1    -0.558861     1B1    -0.490377  

    Virtual:                                                              

       4A1     0.177769     2B2     0.249286     3B2     0.758965  
       5A1     0.815879     6A1     1.166527     2B1     1.198540  
       4B2     1.256891     7A1     1.451517     1A2     1.466818  
       3B1     1.667462     8A1     1.877324     5B2     1.890176  
       6B2     2.351997     9A1     2.386153     4B1     3.249249  
       2A2     3.296601    10A1     3.453760    11A1     3.819530  
       7B2     4.098878  

    Final Occupation by Irrep:
             A1    A2    B1    B2 
    DOCC [     3,    0,    1,    1 ]

  Energy converged.

  @DF-RHF Final Energy:   -76.02117178235810

   => Energetics <=

    Nuclear Repulsion Energy =              8.7912166897170678
    One-Electron Energy =                -122.4261097332512520
    Two-Electron Energy =                  37.6137212611761029
    DFT Exchange-Correlation Energy =       0.0000000000000000
    Empirical Dispersion Energy =           0.0000000000000000
    PCM Polarization Energy =               0.0000000000000000
    EFP Energy =                            0.0000000000000000
    Total Energy =                        -76.0211717823580955



Properties will be evaluated at   0.000000,   0.000000,   0.000000 Bohr

Properties computed using the SCF density matrix

  Nuclear Dipole Moment: (a.u.)
     X:     0.0000      Y:     0.0000      Z:     1.0224

  Electronic Dipole Moment: (a.u.)
     X:     0.0000      Y:     0.0000      Z:    -0.1963

  Dipole Moment: (a.u.)
     X:     0.0000      Y:     0.0000      Z:     0.8261     Total:     0.8261

  Dipole Moment: (Debye)
     X:     0.0000      Y:     0.0000      Z:     2.0996     Total:     2.0996


*** tstop() called on psinet at Mon May 15 15:39:56 2017
Module time:
	user time   =       0.42 seconds =       0.01 minutes
	system time =       0.02 seconds =       0.00 minutes
	total time  =          0 seconds =       0.00 minutes
Total time:
	user time   =       1.06 seconds =       0.02 minutes
	system time =       0.05 seconds =       0.00 minutes
	total time  =          1 seconds =       0.02 minutes

  //>>>>>>>>>>>>>>>>>>>>>>>>>>>>>>>>>>>//
  //    Loading displacement 2 of 5    //
  //<<<<<<<<<<<<<<<<<<<<<<<<<<<<<<<<<<<//

*** tstart() called on psinet
*** at Mon May 15 15:39:56 2017

   => Loading Basis Set <=

    Name: CC-PVDZ
    Role: ORBITAL
    Keyword: BASIS
    atoms 1   entry O          line   190 file /home/psilocaluser/gits/hrw-direct/objdir4/stage/usr/local/psi4/share/psi4/basis/cc-pvdz.gbs 
    atoms 2-3 entry H          line    20 file /home/psilocaluser/gits/hrw-direct/objdir4/stage/usr/local/psi4/share/psi4/basis/cc-pvdz.gbs 


         ---------------------------------------------------------
                                   SCF
            by Justin Turney, Rob Parrish, and Andy Simmonett
                              RHF Reference
                        1 Threads,    500 MiB Core
         ---------------------------------------------------------

  ==> Geometry <==

    Molecular point group: c2v
    Full point group: C2v

    Geometry (in Angstrom), charge = 0, multiplicity = 1:

       Center              X                  Y                   Z               Mass       
    ------------   -----------------  -----------------  -----------------  -----------------
           O          0.000000000000     0.000000000000    -0.068294897570    15.994914619560
           H          0.000000000000    -0.790689573744     0.541944792413     1.007825032070
           H          0.000000000000     0.790689573744     0.541944792413     1.007825032070

  Running in c2v symmetry.

  Rotational constants: A =     25.28866  B =     13.37733  C =      8.74915 [cm^-1]
  Rotational constants: A = 758135.02515  B = 401042.16407  C = 262293.04197 [MHz]
  Nuclear repulsion =    8.811718490323454

  Charge       = 0
  Multiplicity = 1
  Electrons    = 10
  Nalpha       = 5
  Nbeta        = 5

  ==> Algorithm <==

  SCF Algorithm Type is DF.
  DIIS enabled.
  MOM disabled.
  Fractional occupation disabled.
  Guess Type is SAD.
  Energy threshold   = 1.00e-08
  Density threshold  = 1.00e-08
  Integral threshold = 0.00e+00

  ==> Primary Basis <==

  Basis Set: CC-PVDZ
    Blend: CC-PVDZ
    Number of shells: 12
    Number of basis function: 24
    Number of Cartesian functions: 25
    Spherical Harmonics?: true
    Max angular momentum: 2

   => Loading Basis Set <=

    Name: (CC-PVDZ AUX)
    Role: JKFIT
    Keyword: DF_BASIS_SCF
    atoms 1   entry O          line   220 file /home/psilocaluser/gits/hrw-direct/objdir4/stage/usr/local/psi4/share/psi4/basis/cc-pvdz-jkfit.gbs 
    atoms 2-3 entry H          line    50 file /home/psilocaluser/gits/hrw-direct/objdir4/stage/usr/local/psi4/share/psi4/basis/cc-pvdz-jkfit.gbs 

  ==> Pre-Iterations <==

   -------------------------------------------------------
    Irrep   Nso     Nmo     Nalpha   Nbeta   Ndocc  Nsocc
   -------------------------------------------------------
     A1        11      11       0       0       0       0
     A2         2       2       0       0       0       0
     B1         4       4       0       0       0       0
     B2         7       7       0       0       0       0
   -------------------------------------------------------
    Total      24      24       5       5       5       0
   -------------------------------------------------------

  ==> Integral Setup <==

  ==> DFJK: Density-Fitted J/K Matrices <==

    J tasked:                  Yes
    K tasked:                  Yes
    wK tasked:                  No
    OpenMP threads:              1
    Integrals threads:           1
    Memory (MB):               375
    Algorithm:                Core
    Integral Cache:           NONE
    Schwarz Cutoff:          1E-12
    Fitting Condition:       1E-12

   => Auxiliary Basis Set <=

  Basis Set: (CC-PVDZ AUX)
    Blend: CC-PVDZ-JKFIT
    Number of shells: 42
    Number of basis function: 116
    Number of Cartesian functions: 131
    Spherical Harmonics?: true
    Max angular momentum: 3

  Minimum eigenvalue in the overlap matrix is 3.7321016136E-02.
  Using Symmetric Orthogonalization.

  SCF Guess: Superposition of Atomic Densities via on-the-fly atomic UHF.

  ==> Iterations <==

                           Total Energy        Delta E     RMS |[F,P]|

   @DF-RHF iter   0:   -75.92092968443220   -7.59209e+01   1.12670e-01 
   @DF-RHF iter   1:   -75.97341419619649   -5.24845e-02   2.34221e-02 
   @DF-RHF iter   2:   -76.01044238164916   -3.70282e-02   1.26791e-02 DIIS
   @DF-RHF iter   3:   -76.02102075844617   -1.05784e-02   1.88541e-03 DIIS
   @DF-RHF iter   4:   -76.02156784504467   -5.47087e-04   5.32486e-04 DIIS
   @DF-RHF iter   5:   -76.02161598780657   -4.81428e-05   7.57611e-05 DIIS
   @DF-RHF iter   6:   -76.02161718478791   -1.19698e-06   1.18687e-05 DIIS
   @DF-RHF iter   7:   -76.02161721694787   -3.21600e-08   2.24283e-06 DIIS
   @DF-RHF iter   8:   -76.02161721844752   -1.49964e-09   4.91076e-07 DIIS
   @DF-RHF iter   9:   -76.02161721851871   -7.11964e-11   3.48118e-08 DIIS
   @DF-RHF iter  10:   -76.02161721851894   -2.27374e-13   3.03046e-09 DIIS

  ==> Post-Iterations <==

    Orbital Energies (a.u.)
    -----------------------

    Doubly Occupied:                                                      

       1A1   -20.557538     2A1    -1.316599     1B2    -0.677995  
       3A1    -0.558584     1B1    -0.490374  

    Virtual:                                                              

       4A1     0.178262     2B2     0.249684     3B2     0.761665  
       5A1     0.816404     6A1     1.166169     2B1     1.198829  
       4B2     1.256263     7A1     1.454243     1A2     1.466249  
       3B1     1.669574     8A1     1.877498     5B2     1.890705  
       6B2     2.358168     9A1     2.391110     4B1     3.249607  
       2A2     3.300131    10A1     3.455416    11A1     3.824442  
       7B2     4.099772  

    Final Occupation by Irrep:
             A1    A2    B1    B2 
    DOCC [     3,    0,    1,    1 ]

  Energy converged.

  @DF-RHF Final Energy:   -76.02161721851894

   => Energetics <=

    Nuclear Repulsion Energy =              8.8117184903234538
    One-Electron Energy =                -122.4644922983373050
    Two-Electron Energy =                  37.6311565894949069
    DFT Exchange-Correlation Energy =       0.0000000000000000
    Empirical Dispersion Energy =           0.0000000000000000
    PCM Polarization Energy =               0.0000000000000000
    EFP Energy =                            0.0000000000000000
    Total Energy =                        -76.0216172185189407



Properties will be evaluated at   0.000000,   0.000000,   0.000000 Bohr

Properties computed using the SCF density matrix

  Nuclear Dipole Moment: (a.u.)
     X:     0.0000      Y:     0.0000      Z:     1.0158

  Electronic Dipole Moment: (a.u.)
     X:     0.0000      Y:     0.0000      Z:    -0.1927

  Dipole Moment: (a.u.)
     X:     0.0000      Y:     0.0000      Z:     0.8230     Total:     0.8230

  Dipole Moment: (Debye)
     X:     0.0000      Y:     0.0000      Z:     2.0920     Total:     2.0920


*** tstop() called on psinet at Mon May 15 15:39:57 2017
Module time:
	user time   =       0.42 seconds =       0.01 minutes
	system time =       0.01 seconds =       0.00 minutes
	total time  =          1 seconds =       0.02 minutes
Total time:
	user time   =       1.49 seconds =       0.02 minutes
	system time =       0.06 seconds =       0.00 minutes
	total time  =          2 seconds =       0.03 minutes

  //>>>>>>>>>>>>>>>>>>>>>>>>>>>>>>>>>>>//
  //    Loading displacement 3 of 5    //
  //<<<<<<<<<<<<<<<<<<<<<<<<<<<<<<<<<<<//

*** tstart() called on psinet
*** at Mon May 15 15:39:57 2017

   => Loading Basis Set <=

    Name: CC-PVDZ
    Role: ORBITAL
    Keyword: BASIS
    atoms 1   entry O          line   190 file /home/psilocaluser/gits/hrw-direct/objdir4/stage/usr/local/psi4/share/psi4/basis/cc-pvdz.gbs 
    atoms 2-3 entry H          line    20 file /home/psilocaluser/gits/hrw-direct/objdir4/stage/usr/local/psi4/share/psi4/basis/cc-pvdz.gbs 


         ---------------------------------------------------------
                                   SCF
            by Justin Turney, Rob Parrish, and Andy Simmonett
                              RHF Reference
                        1 Threads,    500 MiB Core
         ---------------------------------------------------------

  ==> Geometry <==

    Molecular point group: c2v
    Full point group: C2v

    Geometry (in Angstrom), charge = 0, multiplicity = 1:

       Center              X                  Y                   Z               Mass       
    ------------   -----------------  -----------------  -----------------  -----------------
           O          0.000000000000     0.000000000000    -0.068516219310    15.994914619560
           H          0.000000000000    -0.792553220368     0.543701060724     1.007825032070
           H          0.000000000000     0.792553220368     0.543701060724     1.007825032070

  Running in c2v symmetry.

  Rotational constants: A =     25.12555  B =     13.31449  C =      8.70274 [cm^-1]
  Rotational constants: A = 753245.06586  B = 399158.32304  C = 260901.72957 [MHz]
  Nuclear repulsion =    8.788215095736605

  Charge       = 0
  Multiplicity = 1
  Electrons    = 10
  Nalpha       = 5
  Nbeta        = 5

  ==> Algorithm <==

  SCF Algorithm Type is DF.
  DIIS enabled.
  MOM disabled.
  Fractional occupation disabled.
  Guess Type is SAD.
  Energy threshold   = 1.00e-08
  Density threshold  = 1.00e-08
  Integral threshold = 0.00e+00

  ==> Primary Basis <==

  Basis Set: CC-PVDZ
    Blend: CC-PVDZ
    Number of shells: 12
    Number of basis function: 24
    Number of Cartesian functions: 25
    Spherical Harmonics?: true
    Max angular momentum: 2

   => Loading Basis Set <=

    Name: (CC-PVDZ AUX)
    Role: JKFIT
    Keyword: DF_BASIS_SCF
    atoms 1   entry O          line   220 file /home/psilocaluser/gits/hrw-direct/objdir4/stage/usr/local/psi4/share/psi4/basis/cc-pvdz-jkfit.gbs 
    atoms 2-3 entry H          line    50 file /home/psilocaluser/gits/hrw-direct/objdir4/stage/usr/local/psi4/share/psi4/basis/cc-pvdz-jkfit.gbs 

  ==> Pre-Iterations <==

   -------------------------------------------------------
    Irrep   Nso     Nmo     Nalpha   Nbeta   Ndocc  Nsocc
   -------------------------------------------------------
     A1        11      11       0       0       0       0
     A2         2       2       0       0       0       0
     B1         4       4       0       0       0       0
     B2         7       7       0       0       0       0
   -------------------------------------------------------
    Total      24      24       5       5       5       0
   -------------------------------------------------------

  ==> Integral Setup <==

  ==> DFJK: Density-Fitted J/K Matrices <==

    J tasked:                  Yes
    K tasked:                  Yes
    wK tasked:                  No
    OpenMP threads:              1
    Integrals threads:           1
    Memory (MB):               375
    Algorithm:                Core
    Integral Cache:           NONE
    Schwarz Cutoff:          1E-12
    Fitting Condition:       1E-12

   => Auxiliary Basis Set <=

  Basis Set: (CC-PVDZ AUX)
    Blend: CC-PVDZ-JKFIT
    Number of shells: 42
    Number of basis function: 116
    Number of Cartesian functions: 131
    Spherical Harmonics?: true
    Max angular momentum: 3

  Minimum eigenvalue in the overlap matrix is 3.7523591497E-02.
  Using Symmetric Orthogonalization.

  SCF Guess: Superposition of Atomic Densities via on-the-fly atomic UHF.

  ==> Iterations <==

                           Total Energy        Delta E     RMS |[F,P]|

   @DF-RHF iter   0:   -76.00071409344692   -7.60007e+01   1.12582e-01 
   @DF-RHF iter   1:   -75.96538659927872    3.53275e-02   2.40914e-02 
   @DF-RHF iter   2:   -76.00861023225256   -4.32236e-02   1.28221e-02 DIIS
   @DF-RHF iter   3:   -76.01993677480324   -1.13265e-02   2.45195e-03 DIIS
   @DF-RHF iter   4:   -76.02098413733106   -1.04736e-03   6.83186e-04 DIIS
   @DF-RHF iter   5:   -76.02108590425111   -1.01767e-04   1.19498e-04 DIIS
   @DF-RHF iter   6:   -76.02108994099076   -4.03674e-06   2.74780e-05 DIIS
   @DF-RHF iter   7:   -76.02109015437360   -2.13383e-07   4.60261e-06 DIIS
   @DF-RHF iter   8:   -76.02109015994421   -5.57061e-09   4.98913e-07 DIIS
   @DF-RHF iter   9:   -76.02109015999260   -4.83880e-11   4.35468e-08 DIIS
   @DF-RHF iter  10:   -76.02109015999275   -1.56319e-13   4.58643e-09 DIIS

  ==> Post-Iterations <==

    Orbital Energies (a.u.)
    -----------------------

    Doubly Occupied:                                                      

       1A1   -20.558024     2A1    -1.315425     1B2    -0.676562  
       3A1    -0.558191     1B1    -0.490239  

    Virtual:                                                              

       4A1     0.177758     2B2     0.249230     3B2     0.759795  
       5A1     0.814348     6A1     1.166348     2B1     1.198622  
       4B2     1.256555     7A1     1.454379     1A2     1.465821  
       3B1     1.668994     8A1     1.878039     5B2     1.888275  
       6B2     2.352105     9A1     2.385136     4B1     3.247585  
       2A2     3.297453    10A1     3.452095    11A1     3.821401  
       7B2     4.096990  

    Final Occupation by Irrep:
             A1    A2    B1    B2 
    DOCC [     3,    0,    1,    1 ]

  Energy converged.

  @DF-RHF Final Energy:   -76.02109015999275

   => Energetics <=

    Nuclear Repulsion Energy =              8.7882150957366054
    One-Electron Energy =                -122.4217284749459935
    Two-Electron Energy =                  37.6124232192166374
    DFT Exchange-Correlation Energy =       0.0000000000000000
    Empirical Dispersion Energy =           0.0000000000000000
    PCM Polarization Energy =               0.0000000000000000
    EFP Energy =                            0.0000000000000000
    Total Energy =                        -76.0210901599927524



Properties will be evaluated at   0.000000,   0.000000,   0.000000 Bohr

Properties computed using the SCF density matrix

  Nuclear Dipole Moment: (a.u.)
     X:     0.0000      Y:     0.0000      Z:     1.0191

  Electronic Dipole Moment: (a.u.)
     X:     0.0000      Y:     0.0000      Z:    -0.1948

  Dipole Moment: (a.u.)
     X:     0.0000      Y:     0.0000      Z:     0.8243     Total:     0.8243

  Dipole Moment: (Debye)
     X:     0.0000      Y:     0.0000      Z:     2.0950     Total:     2.0950


*** tstop() called on psinet at Mon May 15 15:39:57 2017
Module time:
	user time   =       0.42 seconds =       0.01 minutes
	system time =       0.02 seconds =       0.00 minutes
	total time  =          0 seconds =       0.00 minutes
Total time:
	user time   =       1.92 seconds =       0.03 minutes
	system time =       0.08 seconds =       0.00 minutes
	total time  =          2 seconds =       0.03 minutes

  //>>>>>>>>>>>>>>>>>>>>>>>>>>>>>>>>>>>//
  //    Loading displacement 4 of 5    //
  //<<<<<<<<<<<<<<<<<<<<<<<<<<<<<<<<<<<//

*** tstart() called on psinet
*** at Mon May 15 15:39:57 2017

   => Loading Basis Set <=

    Name: CC-PVDZ
    Role: ORBITAL
    Keyword: BASIS
    atoms 1   entry O          line   190 file /home/psilocaluser/gits/hrw-direct/objdir4/stage/usr/local/psi4/share/psi4/basis/cc-pvdz.gbs 
    atoms 2-3 entry H          line    20 file /home/psilocaluser/gits/hrw-direct/objdir4/stage/usr/local/psi4/share/psi4/basis/cc-pvdz.gbs 


         ---------------------------------------------------------
                                   SCF
            by Justin Turney, Rob Parrish, and Andy Simmonett
                              RHF Reference
                        1 Threads,    500 MiB Core
         ---------------------------------------------------------

  ==> Geometry <==

    Molecular point group: c2v
    Full point group: C2v

    Geometry (in Angstrom), charge = 0, multiplicity = 1:

       Center              X                  Y                   Z               Mass       
    ------------   -----------------  -----------------  -----------------  -----------------
           O          0.000000000000     0.000000000000    -0.068516219310    15.994914619560
           H          0.000000000000    -0.788825927119     0.543701060724     1.007825032070
           H          0.000000000000     0.788825927119     0.543701060724     1.007825032070

  Running in c2v symmetry.

  Rotational constants: A =     25.12555  B =     13.44061  C =      8.75645 [cm^-1]
  Rotational constants: A = 753245.06586  B = 402939.37292  C = 262511.83143 [MHz]
  Nuclear repulsion =    8.814745429922914

  Charge       = 0
  Multiplicity = 1
  Electrons    = 10
  Nalpha       = 5
  Nbeta        = 5

  ==> Algorithm <==

  SCF Algorithm Type is DF.
  DIIS enabled.
  MOM disabled.
  Fractional occupation disabled.
  Guess Type is SAD.
  Energy threshold   = 1.00e-08
  Density threshold  = 1.00e-08
  Integral threshold = 0.00e+00

  ==> Primary Basis <==

  Basis Set: CC-PVDZ
    Blend: CC-PVDZ
    Number of shells: 12
    Number of basis function: 24
    Number of Cartesian functions: 25
    Spherical Harmonics?: true
    Max angular momentum: 2

   => Loading Basis Set <=

    Name: (CC-PVDZ AUX)
    Role: JKFIT
    Keyword: DF_BASIS_SCF
    atoms 1   entry O          line   220 file /home/psilocaluser/gits/hrw-direct/objdir4/stage/usr/local/psi4/share/psi4/basis/cc-pvdz-jkfit.gbs 
    atoms 2-3 entry H          line    50 file /home/psilocaluser/gits/hrw-direct/objdir4/stage/usr/local/psi4/share/psi4/basis/cc-pvdz-jkfit.gbs 

  ==> Pre-Iterations <==

   -------------------------------------------------------
    Irrep   Nso     Nmo     Nalpha   Nbeta   Ndocc  Nsocc
   -------------------------------------------------------
     A1        11      11       0       0       0       0
     A2         2       2       0       0       0       0
     B1         4       4       0       0       0       0
     B2         7       7       0       0       0       0
   -------------------------------------------------------
    Total      24      24       5       5       5       0
   -------------------------------------------------------

  ==> Integral Setup <==

  ==> DFJK: Density-Fitted J/K Matrices <==

    J tasked:                  Yes
    K tasked:                  Yes
    wK tasked:                  No
    OpenMP threads:              1
    Integrals threads:           1
    Memory (MB):               375
    Algorithm:                Core
    Integral Cache:           NONE
    Schwarz Cutoff:          1E-12
    Fitting Condition:       1E-12

   => Auxiliary Basis Set <=

  Basis Set: (CC-PVDZ AUX)
    Blend: CC-PVDZ-JKFIT
    Number of shells: 42
    Number of basis function: 116
    Number of Cartesian functions: 131
    Spherical Harmonics?: true
    Max angular momentum: 3

  Minimum eigenvalue in the overlap matrix is 3.7242293004E-02.
  Using Symmetric Orthogonalization.

  SCF Guess: Superposition of Atomic Densities via on-the-fly atomic UHF.

  ==> Iterations <==

                           Total Energy        Delta E     RMS |[F,P]|

   @DF-RHF iter   0:   -75.82395583922583   -7.58240e+01   1.11567e-01 
   @DF-RHF iter   1:   -75.99671636658222   -1.72761e-01   1.79604e-02 
   @DF-RHF iter   2:   -76.01587485085717   -1.91585e-02   9.07518e-03 DIIS
   @DF-RHF iter   3:   -76.02145051714389   -5.57567e-03   1.30366e-03 DIIS
   @DF-RHF iter   4:   -76.02166473066171   -2.14214e-04   3.38740e-04 DIIS
   @DF-RHF iter   5:   -76.02169397356013   -2.92429e-05   8.76729e-05 DIIS
   @DF-RHF iter   6:   -76.02169639099691   -2.41744e-06   1.35898e-05 DIIS
   @DF-RHF iter   7:   -76.02169643807576   -4.70789e-08   9.80434e-07 DIIS
   @DF-RHF iter   8:   -76.02169643824973   -1.73969e-10   1.41131e-07 DIIS
   @DF-RHF iter   9:   -76.02169643825330   -3.56692e-12   1.98378e-08 DIIS
   @DF-RHF iter  10:   -76.02169643825336   -5.68434e-14   2.96476e-09 DIIS

  ==> Post-Iterations <==

    Orbital Energies (a.u.)
    -----------------------

    Doubly Occupied:                                                      

       1A1   -20.557677     2A1    -1.316951     1B2    -0.677589  
       3A1    -0.559256     1B1    -0.490512  

    Virtual:                                                              

       4A1     0.178271     2B2     0.249742     3B2     0.760829  
       5A1     0.817947     6A1     1.166349     2B1     1.198748  
       4B2     1.256598     7A1     1.451375     1A2     1.467253  
       3B1     1.668031     8A1     1.876777     5B2     1.892623  
       6B2     2.358049     9A1     2.392144     4B1     3.251289  
       2A2     3.299272    10A1     3.457106    11A1     3.822535  
       7B2     4.101682  

    Final Occupation by Irrep:
             A1    A2    B1    B2 
    DOCC [     3,    0,    1,    1 ]

  Energy converged.

  @DF-RHF Final Energy:   -76.02169643825336

   => Energetics <=

    Nuclear Repulsion Energy =              8.8147454299229135
    One-Electron Energy =                -122.4689147046260871
    Two-Electron Energy =                  37.6324728364498213
    DFT Exchange-Correlation Energy =       0.0000000000000000
    Empirical Dispersion Energy =           0.0000000000000000
    PCM Polarization Energy =               0.0000000000000000
    EFP Energy =                            0.0000000000000000
    Total Energy =                        -76.0216964382533575



Properties will be evaluated at   0.000000,   0.000000,   0.000000 Bohr

Properties computed using the SCF density matrix

  Nuclear Dipole Moment: (a.u.)
     X:     0.0000      Y:     0.0000      Z:     1.0191

  Electronic Dipole Moment: (a.u.)
     X:     0.0000      Y:     0.0000      Z:    -0.1942

  Dipole Moment: (a.u.)
     X:     0.0000      Y:     0.0000      Z:     0.8249     Total:     0.8249

  Dipole Moment: (Debye)
     X:     0.0000      Y:     0.0000      Z:     2.0966     Total:     2.0966


*** tstop() called on psinet at Mon May 15 15:39:58 2017
Module time:
	user time   =       0.41 seconds =       0.01 minutes
	system time =       0.02 seconds =       0.00 minutes
	total time  =          1 seconds =       0.02 minutes
Total time:
	user time   =       2.35 seconds =       0.04 minutes
	system time =       0.10 seconds =       0.00 minutes
	total time  =          3 seconds =       0.05 minutes

  //>>>>>>>>>>>>>>>>>>>>>>>>>>>>>>>>>>>//
  //    Loading displacement 5 of 5    //
  //<<<<<<<<<<<<<<<<<<<<<<<<<<<<<<<<<<<//

*** tstart() called on psinet
*** at Mon May 15 15:39:58 2017

   => Loading Basis Set <=

    Name: CC-PVDZ
    Role: ORBITAL
    Keyword: BASIS
    atoms 1   entry O          line   190 file /home/psilocaluser/gits/hrw-direct/objdir4/stage/usr/local/psi4/share/psi4/basis/cc-pvdz.gbs 
    atoms 2-3 entry H          line    20 file /home/psilocaluser/gits/hrw-direct/objdir4/stage/usr/local/psi4/share/psi4/basis/cc-pvdz.gbs 


         ---------------------------------------------------------
                                   SCF
            by Justin Turney, Rob Parrish, and Andy Simmonett
                              RHF Reference
                        1 Threads,    500 MiB Core
         ---------------------------------------------------------

  ==> Geometry <==

    Molecular point group: c2v
    Full point group: C2v

    Geometry (in Angstrom), charge = 0, multiplicity = 1:

       Center              X                  Y                   Z               Mass       
    ------------   -----------------  -----------------  -----------------  -----------------
           O          0.000000000000     0.000000000000    -0.068516219310    15.994914619560
           H          0.000000000000    -0.790689573744     0.543701060724     1.007825032070
           H          0.000000000000     0.790689573744     0.543701060724     1.007825032070

  Running in c2v symmetry.

  Rotational constants: A =     25.12555  B =     13.37733  C =      8.72955 [cm^-1]
  Rotational constants: A = 753245.06586  B = 401042.16407  C = 261705.25278 [MHz]
  Nuclear repulsion =    8.801465529972067

  Charge       = 0
  Multiplicity = 1
  Electrons    = 10
  Nalpha       = 5
  Nbeta        = 5

  ==> Algorithm <==

  SCF Algorithm Type is DF.
  DIIS enabled.
  MOM disabled.
  Fractional occupation disabled.
  Guess Type is SAD.
  Energy threshold   = 1.00e-08
  Density threshold  = 1.00e-08
  Integral threshold = 0.00e+00

  ==> Primary Basis <==

  Basis Set: CC-PVDZ
    Blend: CC-PVDZ
    Number of shells: 12
    Number of basis function: 24
    Number of Cartesian functions: 25
    Spherical Harmonics?: true
    Max angular momentum: 2

   => Loading Basis Set <=

    Name: (CC-PVDZ AUX)
    Role: JKFIT
    Keyword: DF_BASIS_SCF
    atoms 1   entry O          line   220 file /home/psilocaluser/gits/hrw-direct/objdir4/stage/usr/local/psi4/share/psi4/basis/cc-pvdz-jkfit.gbs 
    atoms 2-3 entry H          line    50 file /home/psilocaluser/gits/hrw-direct/objdir4/stage/usr/local/psi4/share/psi4/basis/cc-pvdz-jkfit.gbs 

  ==> Pre-Iterations <==

   -------------------------------------------------------
    Irrep   Nso     Nmo     Nalpha   Nbeta   Ndocc  Nsocc
   -------------------------------------------------------
     A1        11      11       0       0       0       0
     A2         2       2       0       0       0       0
     B1         4       4       0       0       0       0
     B2         7       7       0       0       0       0
   -------------------------------------------------------
    Total      24      24       5       5       5       0
   -------------------------------------------------------

  ==> Integral Setup <==

  ==> DFJK: Density-Fitted J/K Matrices <==

    J tasked:                  Yes
    K tasked:                  Yes
    wK tasked:                  No
    OpenMP threads:              1
    Integrals threads:           1
    Memory (MB):               375
    Algorithm:                Core
    Integral Cache:           NONE
    Schwarz Cutoff:          1E-12
    Fitting Condition:       1E-12

   => Auxiliary Basis Set <=

  Basis Set: (CC-PVDZ AUX)
    Blend: CC-PVDZ-JKFIT
    Number of shells: 42
    Number of basis function: 116
    Number of Cartesian functions: 131
    Spherical Harmonics?: true
    Max angular momentum: 3

  Minimum eigenvalue in the overlap matrix is 3.7382439507E-02.
  Using Symmetric Orthogonalization.

  SCF Guess: Superposition of Atomic Densities via on-the-fly atomic UHF.

  ==> Iterations <==

                           Total Energy        Delta E     RMS |[F,P]|

   @DF-RHF iter   0:   -75.82125746794586   -7.58213e+01   1.11203e-01 
   @DF-RHF iter   1:   -75.99643289957589   -1.75175e-01   1.79504e-02 
   @DF-RHF iter   2:   -76.01556568243208   -1.91328e-02   9.08162e-03 DIIS
   @DF-RHF iter   3:   -76.02115130081170   -5.58562e-03   1.30414e-03 DIIS
   @DF-RHF iter   4:   -76.02136564539455   -2.14345e-04   3.39002e-04 DIIS
   @DF-RHF iter   5:   -76.02139497933933   -2.93339e-05   8.79184e-05 DIIS
   @DF-RHF iter   6:   -76.02139741605623   -2.43672e-06   1.36498e-05 DIIS
   @DF-RHF iter   7:   -76.02139746369942   -4.76432e-08   9.88774e-07 DIIS
   @DF-RHF iter   8:   -76.02139746387701   -1.77593e-10   1.43806e-07 DIIS
   @DF-RHF iter   9:   -76.02139746388073   -3.72324e-12   2.03132e-08 DIIS
   @DF-RHF iter  10:   -76.02139746388085   -1.13687e-13   3.02483e-09 DIIS

  ==> Post-Iterations <==

    Orbital Energies (a.u.)
    -----------------------

    Doubly Occupied:                                                      

       1A1   -20.557851     2A1    -1.316186     1B2    -0.677076  
       3A1    -0.558723     1B1    -0.490375  

    Virtual:                                                              

       4A1     0.178016     2B2     0.249486     3B2     0.760311  
       5A1     0.816144     6A1     1.166347     2B1     1.198686  
       4B2     1.256576     7A1     1.452880     1A2     1.466534  
       3B1     1.668515     8A1     1.877409     5B2     1.890443  
       6B2     2.355075     9A1     2.388631     4B1     3.249433  
       2A2     3.298364    10A1     3.454607    11A1     3.821967  
       7B2     4.099335  

    Final Occupation by Irrep:
             A1    A2    B1    B2 
    DOCC [     3,    0,    1,    1 ]

  Energy converged.

  @DF-RHF Final Energy:   -76.02139746388085

   => Energetics <=

    Nuclear Repulsion Energy =              8.8014655299720665
    One-Electron Energy =                -122.4453031234851892
    Two-Electron Energy =                  37.6224401296322810
    DFT Exchange-Correlation Energy =       0.0000000000000000
    Empirical Dispersion Energy =           0.0000000000000000
    PCM Polarization Energy =               0.0000000000000000
    EFP Energy =                            0.0000000000000000
    Total Energy =                        -76.0213974638808452



Properties will be evaluated at   0.000000,   0.000000,   0.000000 Bohr

Properties computed using the SCF density matrix

  Nuclear Dipole Moment: (a.u.)
     X:     0.0000      Y:     0.0000      Z:     1.0191

  Electronic Dipole Moment: (a.u.)
     X:     0.0000      Y:     0.0000      Z:    -0.1945

  Dipole Moment: (a.u.)
     X:     0.0000      Y:     0.0000      Z:     0.8246     Total:     0.8246

  Dipole Moment: (Debye)
     X:     0.0000      Y:     0.0000      Z:     2.0958     Total:     2.0958


*** tstop() called on psinet at Mon May 15 15:39:58 2017
Module time:
	user time   =       0.42 seconds =       0.01 minutes
	system time =       0.01 seconds =       0.00 minutes
	total time  =          0 seconds =       0.00 minutes
Total time:
	user time   =       2.78 seconds =       0.05 minutes
	system time =       0.11 seconds =       0.00 minutes
	total time  =          3 seconds =       0.05 minutes

-------------------------------------------------------------

  Computing gradient from energies (fd_1_0).
	Using 3-point formula.
	Energy without displacement:  -76.0213974639
	Check energies below for precision!
	Forces are for mass-weighted, symmetry-adapted cartesians (in au).

	 Coord      Energy(-)        Energy(+)        Force
	    0    -76.0211717824   -76.0216172185    -0.0445436161
	    1    -76.0210901600   -76.0216964383    -0.0606278261

	Gradient written.

-------------------------------------------------------------
  Irrep: 1 Size: 3 x 3

                 1                   2                   3

    1     0.00000000000000     0.00000000000000    -0.05959644265122
    2     0.00000000000000    -0.04303775100839     0.02979822132561
    3     0.00000000000000     0.04303775100839     0.02979822132561



	RHF SCF finite-diff (3-pt) vs. analytic gradient to 10^-5.........PASSED
gradient() will perform gradient computation by finite difference of analytic energies.

-------------------------------------------------------------

  Using finite-differences of energies to determine gradients (fd_geoms_1_0).
	Generating geometries for use with 5-point formula.
	Displacement size will be 5.00e-03.
	Number of atoms is 3.
	Number of symmetric SALC's is 2.
	Number of displacements (including reference) is 9.

-------------------------------------------------------------

  //>>>>>>>>>>>>>>>>>>>>>>>>>>>>>>>>>>>//
  //    Loading displacement 1 of 9    //
  //<<<<<<<<<<<<<<<<<<<<<<<<<<<<<<<<<<<//

*** tstart() called on psinet
*** at Mon May 15 15:39:58 2017

   => Loading Basis Set <=

    Name: CC-PVDZ
    Role: ORBITAL
    Keyword: BASIS
    atoms 1   entry O          line   190 file /home/psilocaluser/gits/hrw-direct/objdir4/stage/usr/local/psi4/share/psi4/basis/cc-pvdz.gbs 
    atoms 2-3 entry H          line    20 file /home/psilocaluser/gits/hrw-direct/objdir4/stage/usr/local/psi4/share/psi4/basis/cc-pvdz.gbs 


         ---------------------------------------------------------
                                   SCF
            by Justin Turney, Rob Parrish, and Andy Simmonett
                              RHF Reference
                        1 Threads,    500 MiB Core
         ---------------------------------------------------------

  ==> Geometry <==

    Molecular point group: c2v
    Full point group: C2v

    Geometry (in Angstrom), charge = 0, multiplicity = 1:

       Center              X                  Y                   Z               Mass       
    ------------   -----------------  -----------------  -----------------  -----------------
           O          0.000000000000     0.000000000000    -0.068958862790    15.994914619560
           H          0.000000000000    -0.790689573744     0.547213597348     1.007825032070
           H          0.000000000000     0.790689573744     0.547213597348     1.007825032070

  Running in c2v symmetry.

  Rotational constants: A =     24.80403  B =     13.37733  C =      8.69041 [cm^-1]
  Rotational constants: A = 743606.01719  B = 401042.16407  C = 260531.90075 [MHz]
  Nuclear repulsion =    8.780972104331349

  Charge       = 0
  Multiplicity = 1
  Electrons    = 10
  Nalpha       = 5
  Nbeta        = 5

  ==> Algorithm <==

  SCF Algorithm Type is DF.
  DIIS enabled.
  MOM disabled.
  Fractional occupation disabled.
  Guess Type is SAD.
  Energy threshold   = 1.00e-08
  Density threshold  = 1.00e-08
  Integral threshold = 0.00e+00

  ==> Primary Basis <==

  Basis Set: CC-PVDZ
    Blend: CC-PVDZ
    Number of shells: 12
    Number of basis function: 24
    Number of Cartesian functions: 25
    Spherical Harmonics?: true
    Max angular momentum: 2

   => Loading Basis Set <=

    Name: (CC-PVDZ AUX)
    Role: JKFIT
    Keyword: DF_BASIS_SCF
    atoms 1   entry O          line   220 file /home/psilocaluser/gits/hrw-direct/objdir4/stage/usr/local/psi4/share/psi4/basis/cc-pvdz-jkfit.gbs 
    atoms 2-3 entry H          line    50 file /home/psilocaluser/gits/hrw-direct/objdir4/stage/usr/local/psi4/share/psi4/basis/cc-pvdz-jkfit.gbs 

  ==> Pre-Iterations <==

   -------------------------------------------------------
    Irrep   Nso     Nmo     Nalpha   Nbeta   Ndocc  Nsocc
   -------------------------------------------------------
     A1        11      11       0       0       0       0
     A2         2       2       0       0       0       0
     B1         4       4       0       0       0       0
     B2         7       7       0       0       0       0
   -------------------------------------------------------
    Total      24      24       5       5       5       0
   -------------------------------------------------------

  ==> Integral Setup <==

  ==> DFJK: Density-Fitted J/K Matrices <==

    J tasked:                  Yes
    K tasked:                  Yes
    wK tasked:                  No
    OpenMP threads:              1
    Integrals threads:           1
    Memory (MB):               375
    Algorithm:                Core
    Integral Cache:           NONE
    Schwarz Cutoff:          1E-12
    Fitting Condition:       1E-12

   => Auxiliary Basis Set <=

  Basis Set: (CC-PVDZ AUX)
    Blend: CC-PVDZ-JKFIT
    Number of shells: 42
    Number of basis function: 116
    Number of Cartesian functions: 131
    Spherical Harmonics?: true
    Max angular momentum: 3

  Minimum eigenvalue in the overlap matrix is 3.7506437548E-02.
  Using Symmetric Orthogonalization.

  SCF Guess: Superposition of Atomic Densities via on-the-fly atomic UHF.

  ==> Iterations <==

                           Total Energy        Delta E     RMS |[F,P]|

   @DF-RHF iter   0:   -75.88266495885347   -7.58827e+01   1.11732e-01 
   @DF-RHF iter   1:   -75.97869514250971   -9.60302e-02   2.22766e-02 
   @DF-RHF iter   2:   -76.01090413878890   -3.22090e-02   1.21102e-02 DIIS
   @DF-RHF iter   3:   -76.02049648895985   -9.59235e-03   1.62040e-03 DIIS
   @DF-RHF iter   4:   -76.02089986978133   -4.03381e-04   4.78059e-04 DIIS
   @DF-RHF iter   5:   -76.02093873312249   -3.88633e-05   7.87089e-05 DIIS
   @DF-RHF iter   6:   -76.02094014026427   -1.40714e-06   1.35867e-05 DIIS
   @DF-RHF iter   7:   -76.02094019274949   -5.24852e-08   2.76531e-06 DIIS
   @DF-RHF iter   8:   -76.02094019510847   -2.35897e-09   4.70572e-07 DIIS
   @DF-RHF iter   9:   -76.02094019516596   -5.74971e-11   3.03215e-08 DIIS
   @DF-RHF iter  10:   -76.02094019516613   -1.70530e-13   2.68200e-09 DIIS

  ==> Post-Iterations <==

    Orbital Energies (a.u.)
    -----------------------

    Doubly Occupied:                                                      

       1A1   -20.558477     2A1    -1.315361     1B2    -0.675243  
       3A1    -0.558997     1B1    -0.490379  

    Virtual:                                                              

       4A1     0.177521     2B2     0.249083     3B2     0.757626  
       5A1     0.815608     6A1     1.166710     2B1     1.198393  
       4B2     1.257207     7A1     1.450154     1A2     1.467102  
       3B1     1.666416     8A1     1.877243     5B2     1.889905  
       6B2     2.348932     9A1     2.383676     4B1     3.249054  
       2A2     3.294842    10A1     3.452874    11A1     3.817131  
       7B2     4.098402  

    Final Occupation by Irrep:
             A1    A2    B1    B2 
    DOCC [     3,    0,    1,    1 ]

  Energy converged.

  @DF-RHF Final Energy:   -76.02094019516613

   => Energetics <=

    Nuclear Repulsion Energy =              8.7809721043313491
    One-Electron Energy =                -122.4069124727300135
    Two-Electron Energy =                  37.6050001732325327
    DFT Exchange-Correlation Energy =       0.0000000000000000
    Empirical Dispersion Energy =           0.0000000000000000
    PCM Polarization Energy =               0.0000000000000000
    EFP Energy =                            0.0000000000000000
    Total Energy =                        -76.0209401951661334



Properties will be evaluated at   0.000000,   0.000000,   0.000000 Bohr

Properties computed using the SCF density matrix

  Nuclear Dipole Moment: (a.u.)
     X:     0.0000      Y:     0.0000      Z:     1.0257

  Electronic Dipole Moment: (a.u.)
     X:     0.0000      Y:     0.0000      Z:    -0.1981

  Dipole Moment: (a.u.)
     X:     0.0000      Y:     0.0000      Z:     0.8276     Total:     0.8276

  Dipole Moment: (Debye)
     X:     0.0000      Y:     0.0000      Z:     2.1035     Total:     2.1035


*** tstop() called on psinet at Mon May 15 15:39:59 2017
Module time:
	user time   =       0.45 seconds =       0.01 minutes
	system time =       0.01 seconds =       0.00 minutes
	total time  =          1 seconds =       0.02 minutes
Total time:
	user time   =       3.24 seconds =       0.05 minutes
	system time =       0.12 seconds =       0.00 minutes
	total time  =          4 seconds =       0.07 minutes

  //>>>>>>>>>>>>>>>>>>>>>>>>>>>>>>>>>>>//
  //    Loading displacement 2 of 9    //
  //<<<<<<<<<<<<<<<<<<<<<<<<<<<<<<<<<<<//

*** tstart() called on psinet
*** at Mon May 15 15:39:59 2017

   => Loading Basis Set <=

    Name: CC-PVDZ
    Role: ORBITAL
    Keyword: BASIS
    atoms 1   entry O          line   190 file /home/psilocaluser/gits/hrw-direct/objdir4/stage/usr/local/psi4/share/psi4/basis/cc-pvdz.gbs 
    atoms 2-3 entry H          line    20 file /home/psilocaluser/gits/hrw-direct/objdir4/stage/usr/local/psi4/share/psi4/basis/cc-pvdz.gbs 


         ---------------------------------------------------------
                                   SCF
            by Justin Turney, Rob Parrish, and Andy Simmonett
                              RHF Reference
                        1 Threads,    500 MiB Core
         ---------------------------------------------------------

  ==> Geometry <==

    Molecular point group: c2v
    Full point group: C2v

    Geometry (in Angstrom), charge = 0, multiplicity = 1:

       Center              X                  Y                   Z               Mass       
    ------------   -----------------  -----------------  -----------------  -----------------
           O          0.000000000000     0.000000000000    -0.068737541050    15.994914619560
           H          0.000000000000    -0.790689573744     0.545457329036     1.007825032070
           H          0.000000000000     0.790689573744     0.545457329036     1.007825032070

  Running in c2v symmetry.

  Rotational constants: A =     24.96401  B =     13.37733  C =      8.70997 [cm^-1]
  Rotational constants: A = 748402.26469  B = 401042.16407  C = 261118.20312 [MHz]
  Nuclear repulsion =    8.791216689717068

  Charge       = 0
  Multiplicity = 1
  Electrons    = 10
  Nalpha       = 5
  Nbeta        = 5

  ==> Algorithm <==

  SCF Algorithm Type is DF.
  DIIS enabled.
  MOM disabled.
  Fractional occupation disabled.
  Guess Type is SAD.
  Energy threshold   = 1.00e-08
  Density threshold  = 1.00e-08
  Integral threshold = 0.00e+00

  ==> Primary Basis <==

  Basis Set: CC-PVDZ
    Blend: CC-PVDZ
    Number of shells: 12
    Number of basis function: 24
    Number of Cartesian functions: 25
    Spherical Harmonics?: true
    Max angular momentum: 2

   => Loading Basis Set <=

    Name: (CC-PVDZ AUX)
    Role: JKFIT
    Keyword: DF_BASIS_SCF
    atoms 1   entry O          line   220 file /home/psilocaluser/gits/hrw-direct/objdir4/stage/usr/local/psi4/share/psi4/basis/cc-pvdz-jkfit.gbs 
    atoms 2-3 entry H          line    50 file /home/psilocaluser/gits/hrw-direct/objdir4/stage/usr/local/psi4/share/psi4/basis/cc-pvdz-jkfit.gbs 

  ==> Pre-Iterations <==

   -------------------------------------------------------
    Irrep   Nso     Nmo     Nalpha   Nbeta   Ndocc  Nsocc
   -------------------------------------------------------
     A1        11      11       0       0       0       0
     A2         2       2       0       0       0       0
     B1         4       4       0       0       0       0
     B2         7       7       0       0       0       0
   -------------------------------------------------------
    Total      24      24       5       5       5       0
   -------------------------------------------------------

  ==> Integral Setup <==

  ==> DFJK: Density-Fitted J/K Matrices <==

    J tasked:                  Yes
    K tasked:                  Yes
    wK tasked:                  No
    OpenMP threads:              1
    Integrals threads:           1
    Memory (MB):               375
    Algorithm:                Core
    Integral Cache:           NONE
    Schwarz Cutoff:          1E-12
    Fitting Condition:       1E-12

   => Auxiliary Basis Set <=

  Basis Set: (CC-PVDZ AUX)
    Blend: CC-PVDZ-JKFIT
    Number of shells: 42
    Number of basis function: 116
    Number of Cartesian functions: 131
    Spherical Harmonics?: true
    Max angular momentum: 3

  Minimum eigenvalue in the overlap matrix is 3.7444245165E-02.
  Using Symmetric Orthogonalization.

  SCF Guess: Superposition of Atomic Densities via on-the-fly atomic UHF.

  ==> Iterations <==

                           Total Energy        Delta E     RMS |[F,P]|

   @DF-RHF iter   0:   -75.96605492669114   -7.59661e+01   1.12478e-01 
   @DF-RHF iter   1:   -75.96785267237871   -1.79775e-03   2.39872e-02 
   @DF-RHF iter   2:   -76.00904259679352   -4.11899e-02   1.29069e-02 DIIS
   @DF-RHF iter   3:   -76.02026371324341   -1.12211e-02   2.22994e-03 DIIS
   @DF-RHF iter   4:   -76.02109092189957   -8.27209e-04   6.26621e-04 DIIS
   @DF-RHF iter   5:   -76.02116890332928   -7.79814e-05   1.01687e-04 DIIS
   @DF-RHF iter   6:   -76.02117163302078   -2.72969e-06   2.25407e-05 DIIS
   @DF-RHF iter   7:   -76.02117177723838   -1.44218e-07   4.23987e-06 DIIS
   @DF-RHF iter   8:   -76.02117178230463   -5.06625e-09   4.98555e-07 DIIS
   @DF-RHF iter   9:   -76.02117178235795   -5.33191e-11   3.87860e-08 DIIS
   @DF-RHF iter  10:   -76.02117178235810   -1.42109e-13   3.96327e-09 DIIS

  ==> Post-Iterations <==

    Orbital Energies (a.u.)
    -----------------------

    Doubly Occupied:                                                      

       1A1   -20.558164     2A1    -1.315773     1B2    -0.676159  
       3A1    -0.558861     1B1    -0.490377  

    Virtual:                                                              

       4A1     0.177769     2B2     0.249286     3B2     0.758965  
       5A1     0.815879     6A1     1.166527     2B1     1.198540  
       4B2     1.256891     7A1     1.451517     1A2     1.466818  
       3B1     1.667462     8A1     1.877324     5B2     1.890176  
       6B2     2.351997     9A1     2.386153     4B1     3.249249  
       2A2     3.296601    10A1     3.453760    11A1     3.819530  
       7B2     4.098878  

    Final Occupation by Irrep:
             A1    A2    B1    B2 
    DOCC [     3,    0,    1,    1 ]

  Energy converged.

  @DF-RHF Final Energy:   -76.02117178235810

   => Energetics <=

    Nuclear Repulsion Energy =              8.7912166897170678
    One-Electron Energy =                -122.4261097332512520
    Two-Electron Energy =                  37.6137212611761029
    DFT Exchange-Correlation Energy =       0.0000000000000000
    Empirical Dispersion Energy =           0.0000000000000000
    PCM Polarization Energy =               0.0000000000000000
    EFP Energy =                            0.0000000000000000
    Total Energy =                        -76.0211717823580955



Properties will be evaluated at   0.000000,   0.000000,   0.000000 Bohr

Properties computed using the SCF density matrix

  Nuclear Dipole Moment: (a.u.)
     X:     0.0000      Y:     0.0000      Z:     1.0224

  Electronic Dipole Moment: (a.u.)
     X:     0.0000      Y:     0.0000      Z:    -0.1963

  Dipole Moment: (a.u.)
     X:     0.0000      Y:     0.0000      Z:     0.8261     Total:     0.8261

  Dipole Moment: (Debye)
     X:     0.0000      Y:     0.0000      Z:     2.0996     Total:     2.0996


*** tstop() called on psinet at Mon May 15 15:39:59 2017
Module time:
	user time   =       0.42 seconds =       0.01 minutes
	system time =       0.01 seconds =       0.00 minutes
	total time  =          0 seconds =       0.00 minutes
Total time:
	user time   =       3.67 seconds =       0.06 minutes
	system time =       0.13 seconds =       0.00 minutes
	total time  =          4 seconds =       0.07 minutes

  //>>>>>>>>>>>>>>>>>>>>>>>>>>>>>>>>>>>//
  //    Loading displacement 3 of 9    //
  //<<<<<<<<<<<<<<<<<<<<<<<<<<<<<<<<<<<//

*** tstart() called on psinet
*** at Mon May 15 15:39:59 2017

   => Loading Basis Set <=

    Name: CC-PVDZ
    Role: ORBITAL
    Keyword: BASIS
    atoms 1   entry O          line   190 file /home/psilocaluser/gits/hrw-direct/objdir4/stage/usr/local/psi4/share/psi4/basis/cc-pvdz.gbs 
    atoms 2-3 entry H          line    20 file /home/psilocaluser/gits/hrw-direct/objdir4/stage/usr/local/psi4/share/psi4/basis/cc-pvdz.gbs 


         ---------------------------------------------------------
                                   SCF
            by Justin Turney, Rob Parrish, and Andy Simmonett
                              RHF Reference
                        1 Threads,    500 MiB Core
         ---------------------------------------------------------

  ==> Geometry <==

    Molecular point group: c2v
    Full point group: C2v

    Geometry (in Angstrom), charge = 0, multiplicity = 1:

       Center              X                  Y                   Z               Mass       
    ------------   -----------------  -----------------  -----------------  -----------------
           O          0.000000000000     0.000000000000    -0.068294897570    15.994914619560
           H          0.000000000000    -0.790689573744     0.541944792413     1.007825032070
           H          0.000000000000     0.790689573744     0.541944792413     1.007825032070

  Running in c2v symmetry.

  Rotational constants: A =     25.28866  B =     13.37733  C =      8.74915 [cm^-1]
  Rotational constants: A = 758135.02515  B = 401042.16407  C = 262293.04197 [MHz]
  Nuclear repulsion =    8.811718490323454

  Charge       = 0
  Multiplicity = 1
  Electrons    = 10
  Nalpha       = 5
  Nbeta        = 5

  ==> Algorithm <==

  SCF Algorithm Type is DF.
  DIIS enabled.
  MOM disabled.
  Fractional occupation disabled.
  Guess Type is SAD.
  Energy threshold   = 1.00e-08
  Density threshold  = 1.00e-08
  Integral threshold = 0.00e+00

  ==> Primary Basis <==

  Basis Set: CC-PVDZ
    Blend: CC-PVDZ
    Number of shells: 12
    Number of basis function: 24
    Number of Cartesian functions: 25
    Spherical Harmonics?: true
    Max angular momentum: 2

   => Loading Basis Set <=

    Name: (CC-PVDZ AUX)
    Role: JKFIT
    Keyword: DF_BASIS_SCF
    atoms 1   entry O          line   220 file /home/psilocaluser/gits/hrw-direct/objdir4/stage/usr/local/psi4/share/psi4/basis/cc-pvdz-jkfit.gbs 
    atoms 2-3 entry H          line    50 file /home/psilocaluser/gits/hrw-direct/objdir4/stage/usr/local/psi4/share/psi4/basis/cc-pvdz-jkfit.gbs 

  ==> Pre-Iterations <==

   -------------------------------------------------------
    Irrep   Nso     Nmo     Nalpha   Nbeta   Ndocc  Nsocc
   -------------------------------------------------------
     A1        11      11       0       0       0       0
     A2         2       2       0       0       0       0
     B1         4       4       0       0       0       0
     B2         7       7       0       0       0       0
   -------------------------------------------------------
    Total      24      24       5       5       5       0
   -------------------------------------------------------

  ==> Integral Setup <==

  ==> DFJK: Density-Fitted J/K Matrices <==

    J tasked:                  Yes
    K tasked:                  Yes
    wK tasked:                  No
    OpenMP threads:              1
    Integrals threads:           1
    Memory (MB):               375
    Algorithm:                Core
    Integral Cache:           NONE
    Schwarz Cutoff:          1E-12
    Fitting Condition:       1E-12

   => Auxiliary Basis Set <=

  Basis Set: (CC-PVDZ AUX)
    Blend: CC-PVDZ-JKFIT
    Number of shells: 42
    Number of basis function: 116
    Number of Cartesian functions: 131
    Spherical Harmonics?: true
    Max angular momentum: 3

  Minimum eigenvalue in the overlap matrix is 3.7321016136E-02.
  Using Symmetric Orthogonalization.

  SCF Guess: Superposition of Atomic Densities via on-the-fly atomic UHF.

  ==> Iterations <==

                           Total Energy        Delta E     RMS |[F,P]|

   @DF-RHF iter   0:   -75.92092968443220   -7.59209e+01   1.12670e-01 
   @DF-RHF iter   1:   -75.97341419619649   -5.24845e-02   2.34221e-02 
   @DF-RHF iter   2:   -76.01044238164916   -3.70282e-02   1.26791e-02 DIIS
   @DF-RHF iter   3:   -76.02102075844617   -1.05784e-02   1.88541e-03 DIIS
   @DF-RHF iter   4:   -76.02156784504467   -5.47087e-04   5.32486e-04 DIIS
   @DF-RHF iter   5:   -76.02161598780657   -4.81428e-05   7.57611e-05 DIIS
   @DF-RHF iter   6:   -76.02161718478791   -1.19698e-06   1.18687e-05 DIIS
   @DF-RHF iter   7:   -76.02161721694787   -3.21600e-08   2.24283e-06 DIIS
   @DF-RHF iter   8:   -76.02161721844752   -1.49964e-09   4.91076e-07 DIIS
   @DF-RHF iter   9:   -76.02161721851871   -7.11964e-11   3.48118e-08 DIIS
   @DF-RHF iter  10:   -76.02161721851894   -2.27374e-13   3.03046e-09 DIIS

  ==> Post-Iterations <==

    Orbital Energies (a.u.)
    -----------------------

    Doubly Occupied:                                                      

       1A1   -20.557538     2A1    -1.316599     1B2    -0.677995  
       3A1    -0.558584     1B1    -0.490374  

    Virtual:                                                              

       4A1     0.178262     2B2     0.249684     3B2     0.761665  
       5A1     0.816404     6A1     1.166169     2B1     1.198829  
       4B2     1.256263     7A1     1.454243     1A2     1.466249  
       3B1     1.669574     8A1     1.877498     5B2     1.890705  
       6B2     2.358168     9A1     2.391110     4B1     3.249607  
       2A2     3.300131    10A1     3.455416    11A1     3.824442  
       7B2     4.099772  

    Final Occupation by Irrep:
             A1    A2    B1    B2 
    DOCC [     3,    0,    1,    1 ]

  Energy converged.

  @DF-RHF Final Energy:   -76.02161721851894

   => Energetics <=

    Nuclear Repulsion Energy =              8.8117184903234538
    One-Electron Energy =                -122.4644922983373050
    Two-Electron Energy =                  37.6311565894949069
    DFT Exchange-Correlation Energy =       0.0000000000000000
    Empirical Dispersion Energy =           0.0000000000000000
    PCM Polarization Energy =               0.0000000000000000
    EFP Energy =                            0.0000000000000000
    Total Energy =                        -76.0216172185189407



Properties will be evaluated at   0.000000,   0.000000,   0.000000 Bohr

Properties computed using the SCF density matrix

  Nuclear Dipole Moment: (a.u.)
     X:     0.0000      Y:     0.0000      Z:     1.0158

  Electronic Dipole Moment: (a.u.)
     X:     0.0000      Y:     0.0000      Z:    -0.1927

  Dipole Moment: (a.u.)
     X:     0.0000      Y:     0.0000      Z:     0.8230     Total:     0.8230

  Dipole Moment: (Debye)
     X:     0.0000      Y:     0.0000      Z:     2.0920     Total:     2.0920


*** tstop() called on psinet at Mon May 15 15:39:59 2017
Module time:
	user time   =       0.43 seconds =       0.01 minutes
	system time =       0.01 seconds =       0.00 minutes
	total time  =          0 seconds =       0.00 minutes
Total time:
	user time   =       4.11 seconds =       0.07 minutes
	system time =       0.14 seconds =       0.00 minutes
	total time  =          4 seconds =       0.07 minutes

  //>>>>>>>>>>>>>>>>>>>>>>>>>>>>>>>>>>>//
  //    Loading displacement 4 of 9    //
  //<<<<<<<<<<<<<<<<<<<<<<<<<<<<<<<<<<<//

*** tstart() called on psinet
*** at Mon May 15 15:39:59 2017

   => Loading Basis Set <=

    Name: CC-PVDZ
    Role: ORBITAL
    Keyword: BASIS
    atoms 1   entry O          line   190 file /home/psilocaluser/gits/hrw-direct/objdir4/stage/usr/local/psi4/share/psi4/basis/cc-pvdz.gbs 
    atoms 2-3 entry H          line    20 file /home/psilocaluser/gits/hrw-direct/objdir4/stage/usr/local/psi4/share/psi4/basis/cc-pvdz.gbs 


         ---------------------------------------------------------
                                   SCF
            by Justin Turney, Rob Parrish, and Andy Simmonett
                              RHF Reference
                        1 Threads,    500 MiB Core
         ---------------------------------------------------------

  ==> Geometry <==

    Molecular point group: c2v
    Full point group: C2v

    Geometry (in Angstrom), charge = 0, multiplicity = 1:

       Center              X                  Y                   Z               Mass       
    ------------   -----------------  -----------------  -----------------  -----------------
           O          0.000000000000     0.000000000000    -0.068073575830    15.994914619560
           H          0.000000000000    -0.790689573744     0.540188524101     1.007825032070
           H          0.000000000000     0.790689573744     0.540188524101     1.007825032070

  Running in c2v symmetry.

  Rotational constants: A =     25.45337  B =     13.37733  C =      8.76879 [cm^-1]
  Rotational constants: A = 763072.75684  B = 401042.16407  C = 262881.56285 [MHz]
  Nuclear repulsion =    8.821975434705646

  Charge       = 0
  Multiplicity = 1
  Electrons    = 10
  Nalpha       = 5
  Nbeta        = 5

  ==> Algorithm <==

  SCF Algorithm Type is DF.
  DIIS enabled.
  MOM disabled.
  Fractional occupation disabled.
  Guess Type is SAD.
  Energy threshold   = 1.00e-08
  Density threshold  = 1.00e-08
  Integral threshold = 0.00e+00

  ==> Primary Basis <==

  Basis Set: CC-PVDZ
    Blend: CC-PVDZ
    Number of shells: 12
    Number of basis function: 24
    Number of Cartesian functions: 25
    Spherical Harmonics?: true
    Max angular momentum: 2

   => Loading Basis Set <=

    Name: (CC-PVDZ AUX)
    Role: JKFIT
    Keyword: DF_BASIS_SCF
    atoms 1   entry O          line   220 file /home/psilocaluser/gits/hrw-direct/objdir4/stage/usr/local/psi4/share/psi4/basis/cc-pvdz-jkfit.gbs 
    atoms 2-3 entry H          line    50 file /home/psilocaluser/gits/hrw-direct/objdir4/stage/usr/local/psi4/share/psi4/basis/cc-pvdz-jkfit.gbs 

  ==> Pre-Iterations <==

   -------------------------------------------------------
    Irrep   Nso     Nmo     Nalpha   Nbeta   Ndocc  Nsocc
   -------------------------------------------------------
     A1        11      11       0       0       0       0
     A2         2       2       0       0       0       0
     B1         4       4       0       0       0       0
     B2         7       7       0       0       0       0
   -------------------------------------------------------
    Total      24      24       5       5       5       0
   -------------------------------------------------------

  ==> Integral Setup <==

  ==> DFJK: Density-Fitted J/K Matrices <==

    J tasked:                  Yes
    K tasked:                  Yes
    wK tasked:                  No
    OpenMP threads:              1
    Integrals threads:           1
    Memory (MB):               375
    Algorithm:                Core
    Integral Cache:           NONE
    Schwarz Cutoff:          1E-12
    Fitting Condition:       1E-12

   => Auxiliary Basis Set <=

  Basis Set: (CC-PVDZ AUX)
    Blend: CC-PVDZ-JKFIT
    Number of shells: 42
    Number of basis function: 116
    Number of Cartesian functions: 131
    Spherical Harmonics?: true
    Max angular momentum: 3

  Minimum eigenvalue in the overlap matrix is 3.7259970573E-02.
  Using Symmetric Orthogonalization.

  SCF Guess: Superposition of Atomic Densities via on-the-fly atomic UHF.

  ==> Iterations <==

                           Total Energy        Delta E     RMS |[F,P]|

   @DF-RHF iter   0:   -75.98471619823566   -7.59847e+01   1.13302e-01 
   @DF-RHF iter   1:   -75.96831247428914    1.64037e-02   2.39345e-02 
   @DF-RHF iter   2:   -76.00981694388393   -4.15045e-02   1.27343e-02 DIIS
   @DF-RHF iter   3:   -76.02084536770482   -1.10284e-02   2.30511e-03 DIIS
   @DF-RHF iter   4:   -76.02174159859692   -8.96231e-04   6.42060e-04 DIIS
   @DF-RHF iter   5:   -76.02182758472247   -8.59861e-05   1.09119e-04 DIIS
   @DF-RHF iter   6:   -76.02183084969795   -3.26498e-06   2.45722e-05 DIIS
   @DF-RHF iter   7:   -76.02183102023557   -1.70538e-07   4.32272e-06 DIIS
   @DF-RHF iter   8:   -76.02183102529858   -5.06301e-09   4.89822e-07 DIIS
   @DF-RHF iter   9:   -76.02183102534752   -4.89422e-11   4.07014e-08 DIIS
   @DF-RHF iter  10:   -76.02183102534767   -1.42109e-13   4.25190e-09 DIIS

  ==> Post-Iterations <==

    Orbital Energies (a.u.)
    -----------------------

    Doubly Occupied:                                                      

       1A1   -20.557225     2A1    -1.317012     1B2    -0.678916  
       3A1    -0.558443     1B1    -0.490373  

    Virtual:                                                              

       4A1     0.178508     2B2     0.249880     3B2     0.763027  
       5A1     0.816657     6A1     1.165992     2B1     1.198969  
       4B2     1.255952     7A1     1.455604     1A2     1.465965  
       3B1     1.670639     8A1     1.877591     5B2     1.890962  
[...]
    Empirical Dispersion Energy =           0.0000000000000000
    PCM Polarization Energy =               0.0000000000000000
    EFP Energy =                            0.0000000000000000
    Total Energy =                        -75.7916751679521639


  UHF NO Occupations:
  HONO-2 :    3 A1 1.9979246
  HONO-1 :    1 B1 1.0000000
  HONO-0 :    4 A1 1.0000000
  LUNO+0 :    5 A1 0.0020754
  LUNO+1 :    6 A1 0.0004525
  LUNO+2 :    2 B2 0.0003689
  LUNO+3 :    7 A1 0.0000002



Properties will be evaluated at   0.000000,   0.000000,   0.000000 Bohr

Properties computed using the SCF density matrix

  Nuclear Dipole Moment: (a.u.)
     X:     0.0000      Y:     0.0000      Z:     1.0191

  Electronic Dipole Moment: (a.u.)
     X:     0.0000      Y:     0.0000      Z:    -1.1738

  Dipole Moment: (a.u.)
     X:     0.0000      Y:     0.0000      Z:    -0.1548     Total:     0.1548

  Dipole Moment: (Debye)
     X:     0.0000      Y:     0.0000      Z:    -0.3934     Total:     0.3934


*** tstop() called on psinet at Mon May 15 15:40:11 2017
Module time:
	user time   =       0.22 seconds =       0.00 minutes
	system time =       0.01 seconds =       0.00 minutes
	total time  =          0 seconds =       0.00 minutes
Total time:
	user time   =      13.23 seconds =       0.22 minutes
	system time =       0.63 seconds =       0.01 minutes
	total time  =         16 seconds =       0.27 minutes

  //>>>>>>>>>>>>>>>>>>>>>>>>>>>>>>>>>>>//
  //    Loading displacement 8 of 9    //
  //<<<<<<<<<<<<<<<<<<<<<<<<<<<<<<<<<<<//

*** tstart() called on psinet
*** at Mon May 15 15:40:11 2017

   => Loading Basis Set <=

    Name: CC-PVDZ
    Role: ORBITAL
    Keyword: BASIS
    atoms 1   entry O          line   190 file /home/psilocaluser/gits/hrw-direct/objdir4/stage/usr/local/psi4/share/psi4/basis/cc-pvdz.gbs 
    atoms 2-3 entry H          line    20 file /home/psilocaluser/gits/hrw-direct/objdir4/stage/usr/local/psi4/share/psi4/basis/cc-pvdz.gbs 


         ---------------------------------------------------------
                                   SCF
            by Justin Turney, Rob Parrish, and Andy Simmonett
                              UHF Reference
                        1 Threads,    500 MiB Core
         ---------------------------------------------------------

  ==> Geometry <==

    Molecular point group: c2v
    Full point group: C2v

    Geometry (in Angstrom), charge = 0, multiplicity = 3:

       Center              X                  Y                   Z               Mass       
    ------------   -----------------  -----------------  -----------------  -----------------
           O          0.000000000000     0.000000000000    -0.068516219310    15.994914619560
           H          0.000000000000    -0.786962280495     0.543701060724     1.007825032070
           H          0.000000000000     0.786962280495     0.543701060724     1.007825032070

  Running in c2v symmetry.

  Rotational constants: A =     25.12555  B =     13.50434  C =      8.78346 [cm^-1]
  Rotational constants: A = 753245.06586  B = 404850.07636  C = 263321.47620 [MHz]
  Nuclear repulsion =    8.828054838056744

  Charge       = 0
  Multiplicity = 3
  Electrons    = 10
  Nalpha       = 6
  Nbeta        = 4

  ==> Algorithm <==

  SCF Algorithm Type is DF.
  DIIS enabled.
  MOM disabled.
  Fractional occupation disabled.
  Guess Type is GWH.
  Energy threshold   = 1.00e-08
  Density threshold  = 1.00e-08
  Integral threshold = 0.00e+00

  ==> Primary Basis <==

  Basis Set: CC-PVDZ
    Blend: CC-PVDZ
    Number of shells: 12
    Number of basis function: 24
    Number of Cartesian functions: 25
    Spherical Harmonics?: true
    Max angular momentum: 2

   => Loading Basis Set <=

    Name: (CC-PVDZ AUX)
    Role: JKFIT
    Keyword: DF_BASIS_SCF
    atoms 1   entry O          line   220 file /home/psilocaluser/gits/hrw-direct/objdir4/stage/usr/local/psi4/share/psi4/basis/cc-pvdz-jkfit.gbs 
    atoms 2-3 entry H          line    50 file /home/psilocaluser/gits/hrw-direct/objdir4/stage/usr/local/psi4/share/psi4/basis/cc-pvdz-jkfit.gbs 

  ==> Pre-Iterations <==

   -------------------------------------------------------
    Irrep   Nso     Nmo     Nalpha   Nbeta   Ndocc  Nsocc
   -------------------------------------------------------
     A1        11      11       0       0       0       0
     A2         2       2       0       0       0       0
     B1         4       4       0       0       0       0
     B2         7       7       0       0       0       0
   -------------------------------------------------------
    Total      24      24       6       4       4       2
   -------------------------------------------------------

  ==> Integral Setup <==

  ==> DFJK: Density-Fitted J/K Matrices <==

    J tasked:                  Yes
    K tasked:                  Yes
    wK tasked:                  No
    OpenMP threads:              1
    Integrals threads:           1
    Memory (MB):               375
    Algorithm:                Core
    Integral Cache:           NONE
    Schwarz Cutoff:          1E-12
    Fitting Condition:       1E-12

   => Auxiliary Basis Set <=

  Basis Set: (CC-PVDZ AUX)
    Blend: CC-PVDZ-JKFIT
    Number of shells: 42
    Number of basis function: 116
    Number of Cartesian functions: 131
    Spherical Harmonics?: true
    Max angular momentum: 3

  Minimum eigenvalue in the overlap matrix is 3.7103151927E-02.
  Using Symmetric Orthogonalization.

  SCF Guess: Generalized Wolfsberg-Helmholtz.

  ==> Iterations <==

                           Total Energy        Delta E     RMS |[F,P]|

   @DF-UHF iter   1:   -74.78346919167151   -7.47835e+01   1.22519e-01 
   @DF-UHF iter   2:   -75.67381585733372   -8.90347e-01   3.97652e-02 DIIS
   @DF-UHF iter   3:   -75.78182436616673   -1.08009e-01   7.84056e-03 DIIS
   @DF-UHF iter   4:   -75.79023105487342   -8.40669e-03   2.22220e-03 DIIS
   @DF-UHF iter   5:   -75.79119190144141   -9.60847e-04   6.36486e-04 DIIS
   @DF-UHF iter   6:   -75.79131393535248   -1.22034e-04   2.72998e-04 DIIS
   @DF-UHF iter   7:   -75.79133947105167   -2.55357e-05   4.58590e-05 DIIS
   @DF-UHF iter   8:   -75.79134003917503   -5.68123e-07   7.49681e-06 DIIS
   @DF-UHF iter   9:   -75.79134004985785   -1.06828e-08   1.42194e-06 DIIS
   @DF-UHF iter  10:   -75.79134005023973   -3.81874e-10   2.29785e-07 DIIS
   @DF-UHF iter  11:   -75.79134005024936   -9.63496e-12   4.24253e-08 DIIS
   @DF-UHF iter  12:   -75.79134005024967   -3.12639e-13   7.88422e-09 DIIS

  ==> Post-Iterations <==

   @Spin Contamination Metric:   5.771372068E-03
   @S^2 Expected:                2.000000000E+00
   @S^2 Observed:                2.005771372E+00
   @S   Expected:                1.000000000E+00
   @S   Observed:                1.000000000E+00

    Orbital Energies (a.u.)
    -----------------------

    Alpha Occupied:                                                       

       1A1   -20.773547     2A1    -1.565744     1B2    -0.842694  
       1B1    -0.784472     3A1    -0.766481     4A1    -0.166216  

    Alpha Virtual:                                                        

       2B2     0.154638     3B2     0.686428     5A1     0.710656  
       2B1     0.976762     6A1     1.019535     4B2     1.127126  
       7A1     1.355514     1A2     1.380367     3B1     1.572480  
       8A1     1.708546     5B2     1.835699     9A1     2.256656  
       6B2     2.258464     4B1     3.026142     2A2     3.077711  
      10A1     3.288527    11A1     3.623717     7B2     3.949183  

    Beta Occupied:                                                        

       1A1   -20.716823     2A1    -1.367247     1B2    -0.797144  
       3A1    -0.691399  

    Beta Virtual:                                                         

       1B1     0.027919     4A1     0.176330     2B2     0.242320  
       3B2     0.710349     5A1     0.793848     6A1     1.068436  
       4B2     1.163173     2B1     1.203671     7A1     1.382384  
       1A2     1.429028     3B1     1.617756     8A1     1.781799  
       5B2     1.854664     6B2     2.286518     9A1     2.345094  
       4B1     3.148416     2A2     3.188004    10A1     3.337297  
      11A1     3.713918     7B2     3.979869  

    Final Occupation by Irrep:
             A1    A2    B1    B2 
    DOCC [     3,    0,    0,    1 ]
    SOCC [     1,    0,    1,    0 ]

  Energy converged.

  @DF-UHF Final Energy:   -75.79134005024967

   => Energetics <=

    Nuclear Repulsion Energy =              8.8280548380567438
    One-Electron Energy =                -120.7670206556956600
    Two-Electron Energy =                  36.1476257673892434
    DFT Exchange-Correlation Energy =       0.0000000000000000
    Empirical Dispersion Energy =           0.0000000000000000
    PCM Polarization Energy =               0.0000000000000000
    EFP Energy =                            0.0000000000000000
    Total Energy =                        -75.7913400502496728


  UHF NO Occupations:
  HONO-2 :    3 A1 1.9979261
  HONO-1 :    1 B1 1.0000000
  HONO-0 :    4 A1 1.0000000
  LUNO+0 :    5 A1 0.0020739
  LUNO+1 :    6 A1 0.0004508
  LUNO+2 :    2 B2 0.0003631
  LUNO+3 :    7 A1 0.0000002



Properties will be evaluated at   0.000000,   0.000000,   0.000000 Bohr

Properties computed using the SCF density matrix

  Nuclear Dipole Moment: (a.u.)
     X:     0.0000      Y:     0.0000      Z:     1.0191

  Electronic Dipole Moment: (a.u.)
     X:     0.0000      Y:     0.0000      Z:    -1.1760

  Dipole Moment: (a.u.)
     X:     0.0000      Y:     0.0000      Z:    -0.1569     Total:     0.1569

  Dipole Moment: (Debye)
     X:     0.0000      Y:     0.0000      Z:    -0.3989     Total:     0.3989


*** tstop() called on psinet at Mon May 15 15:40:11 2017
Module time:
	user time   =       0.21 seconds =       0.00 minutes
	system time =       0.02 seconds =       0.00 minutes
	total time  =          0 seconds =       0.00 minutes
Total time:
	user time   =      13.45 seconds =       0.22 minutes
	system time =       0.65 seconds =       0.01 minutes
	total time  =         16 seconds =       0.27 minutes

  //>>>>>>>>>>>>>>>>>>>>>>>>>>>>>>>>>>>//
  //    Loading displacement 9 of 9    //
  //<<<<<<<<<<<<<<<<<<<<<<<<<<<<<<<<<<<//

*** tstart() called on psinet
*** at Mon May 15 15:40:11 2017

   => Loading Basis Set <=

    Name: CC-PVDZ
    Role: ORBITAL
    Keyword: BASIS
    atoms 1   entry O          line   190 file /home/psilocaluser/gits/hrw-direct/objdir4/stage/usr/local/psi4/share/psi4/basis/cc-pvdz.gbs 
    atoms 2-3 entry H          line    20 file /home/psilocaluser/gits/hrw-direct/objdir4/stage/usr/local/psi4/share/psi4/basis/cc-pvdz.gbs 


         ---------------------------------------------------------
                                   SCF
            by Justin Turney, Rob Parrish, and Andy Simmonett
                              UHF Reference
                        1 Threads,    500 MiB Core
         ---------------------------------------------------------

  ==> Geometry <==

    Molecular point group: c2v
    Full point group: C2v

    Geometry (in Angstrom), charge = 0, multiplicity = 3:

       Center              X                  Y                   Z               Mass       
    ------------   -----------------  -----------------  -----------------  -----------------
           O          0.000000000000     0.000000000000    -0.068516219310    15.994914619560
           H          0.000000000000    -0.790689573744     0.543701060724     1.007825032070
           H          0.000000000000     0.790689573744     0.543701060724     1.007825032070

  Running in c2v symmetry.

  Rotational constants: A =     25.12555  B =     13.37733  C =      8.72955 [cm^-1]
  Rotational constants: A = 753245.06586  B = 401042.16407  C = 261705.25278 [MHz]
  Nuclear repulsion =    8.801465529972067

  Charge       = 0
  Multiplicity = 3
  Electrons    = 10
  Nalpha       = 6
  Nbeta        = 4

  ==> Algorithm <==

  SCF Algorithm Type is DF.
  DIIS enabled.
  MOM disabled.
  Fractional occupation disabled.
  Guess Type is GWH.
  Energy threshold   = 1.00e-08
  Density threshold  = 1.00e-08
  Integral threshold = 0.00e+00

  ==> Primary Basis <==

  Basis Set: CC-PVDZ
    Blend: CC-PVDZ
    Number of shells: 12
    Number of basis function: 24
    Number of Cartesian functions: 25
    Spherical Harmonics?: true
    Max angular momentum: 2

   => Loading Basis Set <=

    Name: (CC-PVDZ AUX)
    Role: JKFIT
    Keyword: DF_BASIS_SCF
    atoms 1   entry O          line   220 file /home/psilocaluser/gits/hrw-direct/objdir4/stage/usr/local/psi4/share/psi4/basis/cc-pvdz-jkfit.gbs 
    atoms 2-3 entry H          line    50 file /home/psilocaluser/gits/hrw-direct/objdir4/stage/usr/local/psi4/share/psi4/basis/cc-pvdz-jkfit.gbs 

  ==> Pre-Iterations <==

   -------------------------------------------------------
    Irrep   Nso     Nmo     Nalpha   Nbeta   Ndocc  Nsocc
   -------------------------------------------------------
     A1        11      11       0       0       0       0
     A2         2       2       0       0       0       0
     B1         4       4       0       0       0       0
     B2         7       7       0       0       0       0
   -------------------------------------------------------
    Total      24      24       6       4       4       2
   -------------------------------------------------------

  ==> Integral Setup <==

  ==> DFJK: Density-Fitted J/K Matrices <==

    J tasked:                  Yes
    K tasked:                  Yes
    wK tasked:                  No
    OpenMP threads:              1
    Integrals threads:           1
    Memory (MB):               375
    Algorithm:                Core
    Integral Cache:           NONE
    Schwarz Cutoff:          1E-12
    Fitting Condition:       1E-12

   => Auxiliary Basis Set <=

  Basis Set: (CC-PVDZ AUX)
    Blend: CC-PVDZ-JKFIT
    Number of shells: 42
    Number of basis function: 116
    Number of Cartesian functions: 131
    Spherical Harmonics?: true
    Max angular momentum: 3

  Minimum eigenvalue in the overlap matrix is 3.7382439507E-02.
  Using Symmetric Orthogonalization.

  SCF Guess: Generalized Wolfsberg-Helmholtz.

  ==> Iterations <==

                           Total Energy        Delta E     RMS |[F,P]|

   @DF-UHF iter   1:   -74.78226693593443   -7.47823e+01   1.22570e-01 
   @DF-UHF iter   2:   -75.67309450247137   -8.90828e-01   4.00295e-02 DIIS
   @DF-UHF iter   3:   -75.78249806467309   -1.09404e-01   7.83871e-03 DIIS
   @DF-UHF iter   4:   -75.79089448032670   -8.39642e-03   2.21939e-03 DIIS
   @DF-UHF iter   5:   -75.79185438463308   -9.59904e-04   6.38374e-04 DIIS
   @DF-UHF iter   6:   -75.79197770767804   -1.23323e-04   2.75081e-04 DIIS
   @DF-UHF iter   7:   -75.79200384480447   -2.61371e-05   4.68265e-05 DIIS
   @DF-UHF iter   8:   -75.79200444787938   -6.03075e-07   7.57778e-06 DIIS
   @DF-UHF iter   9:   -75.79200445880871   -1.09293e-08   1.43786e-06 DIIS
   @DF-UHF iter  10:   -75.79200445920173   -3.93030e-10   2.35110e-07 DIIS
   @DF-UHF iter  11:   -75.79200445921192   -1.01892e-11   4.36601e-08 DIIS
   @DF-UHF iter  12:   -75.79200445921231   -3.83693e-13   8.30518e-09 DIIS

  ==> Post-Iterations <==

   @Spin Contamination Metric:   5.807909559E-03
   @S^2 Expected:                2.000000000E+00
   @S^2 Observed:                2.005807910E+00
   @S   Expected:                1.000000000E+00
   @S   Observed:                1.000000000E+00

    Orbital Energies (a.u.)
    -----------------------

    Alpha Occupied:                                                       

       1A1   -20.772901     2A1    -1.563734     1B2    -0.840897  
       1B1    -0.783549     3A1    -0.764964     4A1    -0.167005  

    Alpha Virtual:                                                        

       2B2     0.154005     3B2     0.685890     5A1     0.707797  
       2B1     0.977298     6A1     1.019810     4B2     1.127542  
       7A1     1.358758     1A2     1.379598     3B1     1.574122  
       8A1     1.710422     5B2     1.831719     9A1     2.250558  
       6B2     2.253254     4B1     3.022852     2A2     3.076487  
      10A1     3.283797    11A1     3.623526     7B2     3.945139  

    Beta Occupied:                                                        

       1A1   -20.716151     2A1    -1.364981     1B2    -0.795360  
       3A1    -0.689603  

    Beta Virtual:                                                         

       1B1     0.028740     4A1     0.175936     2B2     0.241816  
       3B2     0.710104     5A1     0.791133     6A1     1.068796  
       4B2     1.163571     2B1     1.204222     7A1     1.385773  
       1A2     1.428264     3B1     1.619314     8A1     1.783778  
       5B2     1.850871     6B2     2.281322     9A1     2.338934  
       4B1     3.145431     2A2     3.186837    10A1     3.333263  
      11A1     3.713349     7B2     3.975923  

    Final Occupation by Irrep:
             A1    A2    B1    B2 
    DOCC [     3,    0,    0,    1 ]
    SOCC [     1,    0,    1,    0 ]

  Energy converged.

  @DF-UHF Final Energy:   -75.79200445921231

   => Energetics <=

    Nuclear Repulsion Energy =              8.8014655299720665
    One-Electron Energy =                -120.7277935551813641
    Two-Electron Energy =                  36.1343235659970006
    DFT Exchange-Correlation Energy =       0.0000000000000000
    Empirical Dispersion Energy =           0.0000000000000000
    PCM Polarization Energy =               0.0000000000000000
    EFP Energy =                            0.0000000000000000
    Total Energy =                        -75.7920044592123077


  UHF NO Occupations:
  HONO-2 :    3 A1 1.9979231
  HONO-1 :    4 A1 1.0000000
  HONO-0 :    1 B1 1.0000000
  LUNO+0 :    5 A1 0.0020769
  LUNO+1 :    6 A1 0.0004543
  LUNO+2 :    2 B2 0.0003749
  LUNO+3 :    7 A1 0.0000002



Properties will be evaluated at   0.000000,   0.000000,   0.000000 Bohr

Properties computed using the SCF density matrix

  Nuclear Dipole Moment: (a.u.)
     X:     0.0000      Y:     0.0000      Z:     1.0191

  Electronic Dipole Moment: (a.u.)
     X:     0.0000      Y:     0.0000      Z:    -1.1717

  Dipole Moment: (a.u.)
     X:     0.0000      Y:     0.0000      Z:    -0.1526     Total:     0.1526

  Dipole Moment: (Debye)
     X:     0.0000      Y:     0.0000      Z:    -0.3879     Total:     0.3879


*** tstop() called on psinet at Mon May 15 15:40:11 2017
Module time:
	user time   =       0.22 seconds =       0.00 minutes
	system time =       0.01 seconds =       0.00 minutes
	total time  =          0 seconds =       0.00 minutes
Total time:
	user time   =      13.68 seconds =       0.23 minutes
	system time =       0.66 seconds =       0.01 minutes
	total time  =         16 seconds =       0.27 minutes

-------------------------------------------------------------

  Computing gradient from energies (fd_1_0).
	Using 5-point formula.
	Energy without displacement:  -75.7920044592
	Check energies below for precision!
	Forces are for mass-weighted, symmetry-adapted cartesians (in au).

	 Coord      Energy(-2)        Energy(-1)        Energy(+1)        Energy(+2)            Force
	    0    -75.7925213200    -75.7922650824    -75.7917394291    -75.7914699709      0.0525646235
	    1    -75.7926458331    -75.7923279919    -75.7916751680    -75.7913400502      0.0652801404

	Gradient written.

-------------------------------------------------------------
  Irrep: 1 Size: 3 x 3

                 1                   2                   3

    1     0.00000000000000     0.00000000000000     0.07032802559315
    2     0.00000000000000     0.04634027989565    -0.03516401279657
    3     0.00000000000000    -0.04634027989565    -0.03516401279657



	UHF SCF finite-diff (5-pt) vs. analytic gradient to 10^-7.........PASSED

*** Psi4 exiting successfully. Buy a developer a beer!
