    -----------------------------------------------------------------------
          Psi4: An Open-Source Ab Initio Electronic Structure Package
                              Psi4 0.3.329 Driver

                          Git: Rev {opt16} 2e5a4e4 dirty

    J. M. Turney, A. C. Simmonett, R. M. Parrish, E. G. Hohenstein,
    F. A. Evangelista, J. T. Fermann, B. J. Mintz, L. A. Burns, J. J. Wilke,
    M. L. Abrams, N. J. Russ, M. L. Leininger, C. L. Janssen, E. T. Seidl,
    W. D. Allen, H. F. Schaefer, R. A. King, E. F. Valeev, C. D. Sherrill,
    and T. D. Crawford, WIREs Comput. Mol. Sci. 2, 556-565 (2012)
    (doi: 10.1002/wcms.93)

                         Additional Contributions by
    A. E. DePrince, M. Saitow, U. Bozkaya, A. Yu. Sokolov
    -----------------------------------------------------------------------


    Psi4 started on: Tue Jan 12 11:06:35 2016

    Process ID:  17889
    PSI4DATADIR: /usr/local/psi4/share/psi
    Memory level set to 256.000 MB

  ==> Input File <==

--------------------------------------------------------------------------
#! Various constrained energy minimizations of HOOH with cc-pvdz RHF.
#! Cartesian-coordinate constrained optimizations of HOOH in internals.
HOOH_E_fixed_H_xyz = -150.7866490998188     # TEST
HOOH_E_fixed_O_xyz = -150.7866389583059     # TEST

set globals { basis cc-pvdz }

# Freeze H xyz in HOOH.
molecule {
  H  0.90  0.80  0.5
  O  0.00  0.70  0.0
  O  0.00 -0.70  0.0
  H -0.90 -0.80  0.5
  no_com
  no_reorient
}

freeze_list = """
 1 xyz 
 4 xyz 
"""

set optking frozen_cartesian $freeze_list
thisenergy = optimize('scf')
compare_values(HOOH_E_fixed_H_xyz, thisenergy, 6, "Int. Coord. RHF opt of HOOH with H's xyz frozen, energy")  #TEST

# Freeze O xyz in HOOH.
molecule {
  H  0.90  0.80  0.5
  O  0.00  0.70  0.0
  O  0.00 -0.70  0.0
  H -0.90 -0.80  0.5
  no_com
  no_reorient
}

freeze_list = """
 2 xyz 
 3 xyz 
"""
set optking frozen_cartesian $freeze_list
thisenergy = optimize('scf')
compare_values(HOOH_E_fixed_O_xyz, thisenergy, 6, "Int. Coord. RHF opt of HOOH with O's xyz frozen, energy")  #TEST

--------------------------------------------------------------------------
gradient() will perform analytic gradient computation.

*** tstart() called on gimli.chem.bethel.edu
*** at Tue Jan 12 11:06:35 2016

    There are an even number of electrons - assuming singlet.
    Specify the multiplicity with the MULTP option in the
    input if this is incorrect


         ---------------------------------------------------------
                                   SCF
            by Justin Turney, Rob Parrish, and Andy Simmonett
                              RHF Reference
                        8 Threads,    256 MiB Core
         ---------------------------------------------------------

  ==> Geometry <==

    Molecular point group: c2
    Full point group: C2

    Geometry (in Angstrom), charge = 0, multiplicity = 1:

       Center              X                  Y                   Z               Mass       
    ------------   -----------------  -----------------  -----------------  -----------------
           H          0.900000000000     0.800000000000     0.500000000000     1.007825032070
           O         -0.000000000000     0.700000000000     0.000000000000    15.994914619560
           O          0.000000000000    -0.700000000000     0.000000000000    15.994914619560
           H         -0.900000000000    -0.800000000000     0.500000000000     1.007825032070

  Running in c2 symmetry.

  Rotational constants: A =      8.42700  B =      0.95754  C =      0.90644 [cm^-1]
  Rotational constants: A = 252635.18894  B =  28706.39138  C =  27174.26147 [MHz]
  Nuclear repulsion =   37.249679237734171

  Charge       = 0
  Multiplicity = 1
  Electrons    = 18
  Nalpha       = 9
  Nbeta        = 9

  ==> Algorithm <==

  SCF Algorithm Type is DF.
  DIIS enabled.
  MOM disabled.
  Fractional occupation disabled.
  Guess Type is CORE.
  Energy threshold   = 1.00e-08
  Density threshold  = 1.00e-08
  Integral threshold = 0.00e+00

  ==> Primary Basis <==

  Basis Set: CC-PVDZ
    Number of shells: 18
    Number of basis function: 38
    Number of Cartesian functions: 40
    Spherical Harmonics?: true
    Max angular momentum: 2

  ==> Pre-Iterations <==

   -------------------------------------------------------
    Irrep   Nso     Nmo     Nalpha   Nbeta   Ndocc  Nsocc
   -------------------------------------------------------
     A         19      19       0       0       0       0
     B         19      19       0       0       0       0
   -------------------------------------------------------
    Total      38      38       9       9       9       0
   -------------------------------------------------------

 OEINTS: Overlap, kinetic, potential, dipole, and quadrupole integrals
         stored in file 35.

  ==> Integral Setup <==

  ==> DFJK: Density-Fitted J/K Matrices <==

    J tasked:                  Yes
    K tasked:                  Yes
    wK tasked:                  No
    OpenMP threads:              8
    Integrals threads:           8
    Memory (MB):               183
    Algorithm:                Core
    Integral Cache:           NONE
    Schwarz Cutoff:          1E-12
    Fitting Condition:       1E-12

   => Auxiliary Basis Set <=

  Basis Set: 
    Number of shells: 66
    Number of basis function: 186
    Number of Cartesian functions: 212
    Spherical Harmonics?: true
    Max angular momentum: 3

  Minimum eigenvalue in the overlap matrix is 2.3342885163E-02.
  Using Symmetric Orthogonalization.
  SCF Guess: Core (One-Electron) Hamiltonian.

  ==> Iterations <==

                           Total Energy        Delta E     RMS |[F,P]|

   @DF-RHF iter   1:  -139.35673834142978   -1.39357e+02   1.42115e-01 
   @DF-RHF iter   2:  -142.10916415770438   -2.75243e+00   1.35101e-01 DIIS
   @DF-RHF iter   3:  -150.58350090701038   -8.47434e+00   2.37417e-02 DIIS
   @DF-RHF iter   4:  -150.75664652314788   -1.73146e-01   4.82736e-03 DIIS
   @DF-RHF iter   5:  -150.76835008116288   -1.17036e-02   1.04405e-03 DIIS
   @DF-RHF iter   6:  -150.76940275146129   -1.05267e-03   4.45629e-04 DIIS
   @DF-RHF iter   7:  -150.76955184184402   -1.49090e-04   9.28552e-05 DIIS
   @DF-RHF iter   8:  -150.76956070322277   -8.86138e-06   3.28071e-05 DIIS
   @DF-RHF iter   9:  -150.76956234377644   -1.64055e-06   1.30439e-05 DIIS
   @DF-RHF iter  10:  -150.76956267856150   -3.34785e-07   2.74919e-06 DIIS
   @DF-RHF iter  11:  -150.76956268636926   -7.80776e-09   5.00522e-07 DIIS
   @DF-RHF iter  12:  -150.76956268665018   -2.80920e-10   7.00268e-08 DIIS
   @DF-RHF iter  13:  -150.76956268665407   -3.89377e-12   1.92241e-08 DIIS
   @DF-RHF iter  14:  -150.76956268665435   -2.84217e-13   3.77945e-09 DIIS

  ==> Post-Iterations <==

    Orbital Energies (a.u.)
    -----------------------

    Doubly Occupied:                                                      

       1A    -20.622250     1B    -20.621916     2A     -1.483682  
       2B     -1.168605     3B     -0.708299     3A     -0.681826  
       4A     -0.608070     5A     -0.505059     4B     -0.455996  

    Virtual:                                                              

       6A      0.175190     5B      0.194106     6B      0.331804  
       7A      0.765000     7B      0.775224     8B      1.117505  
       8A      1.128439     9A      1.146644     9B      1.205296  
      10B      1.298367    10A      1.336436    11B      1.426651  
      11A      1.512363    12B      1.635462    12A      1.682966  
      13A      1.959496    13B      2.025158    14B      2.289856  
      14A      2.305904    15A      2.691431    16A      2.831109  
      15B      2.856676    17A      3.190793    16B      3.221240  
      17B      3.477039    18A      3.553928    19A      3.850120  
      18B      3.851396    19B      4.273481  

    Final Occupation by Irrep:
              A     B 
    DOCC [     5,    4 ]

  Energy converged.

  @DF-RHF Final Energy:  -150.76956268665435

   => Energetics <=

    Nuclear Repulsion Energy =             37.2496792377341706
    One-Electron Energy =                -282.3270756422873546
    Two-Electron Energy =                  94.3078337178988306
    DFT Exchange-Correlation Energy =       0.0000000000000000
    Empirical Dispersion Energy =           0.0000000000000000
    PCM Polarization Energy =               0.0000000000000000
    EFP Energy =                            0.0000000000000000
    Total Energy =                       -150.7695626866543535

    Alert: EFP and PCM quantities not currently incorporated into SCF psivars.

Properties will be evaluated at   0.000000,   0.000000,   0.000000 Bohr
  ==> Properties <==


Properties computed using the SCF density matrix

  Nuclear Dipole Moment: (a.u.)
     X:     0.0000      Y:    -0.0000      Z:     1.8897

  Electronic Dipole Moment: (a.u.)
     X:     0.0000      Y:     0.0000      Z:    -1.1753

  Dipole Moment: (a.u.)
     X:     0.0000      Y:    -0.0000      Z:     0.7144     Total:     0.7144

  Dipole Moment: (Debye)
     X:     0.0000      Y:    -0.0000      Z:     1.8158     Total:     1.8158


  Saving occupied orbitals to File 180.

*** tstop() called on gimli.chem.bethel.edu at Tue Jan 12 11:06:36 2016
Module time:
	user time   =       0.75 seconds =       0.01 minutes
	system time =       0.02 seconds =       0.00 minutes
	total time  =          1 seconds =       0.02 minutes
Total time:
	user time   =       0.75 seconds =       0.01 minutes
	system time =       0.02 seconds =       0.00 minutes
	total time  =          1 seconds =       0.02 minutes

*** tstart() called on gimli.chem.bethel.edu
*** at Tue Jan 12 11:06:36 2016


         ------------------------------------------------------------
                                   SCF GRAD                          
                          Rob Parrish, Justin Turney,                
                       Andy Simmonett, and Alex Sokolov              
         ------------------------------------------------------------

  ==> Geometry <==

    Molecular point group: c2
    Full point group: C2

    Geometry (in Angstrom), charge = 0, multiplicity = 1:

       Center              X                  Y                   Z               Mass       
    ------------   -----------------  -----------------  -----------------  -----------------
           H          0.900000000000     0.800000000000     0.500000000000     1.007825032070
           O         -0.000000000000     0.700000000000     0.000000000000    15.994914619560
           O          0.000000000000    -0.700000000000     0.000000000000    15.994914619560
           H         -0.900000000000    -0.800000000000     0.500000000000     1.007825032070

  Nuclear repulsion =   37.249679237734171

  ==> Basis Set <==

  Basis Set: CC-PVDZ
    Number of shells: 18
    Number of basis function: 38
    Number of Cartesian functions: 40
    Spherical Harmonics?: true
    Max angular momentum: 2

  ==> DFJKGrad: Density-Fitted SCF Gradients <==

    Gradient:                    1
    J tasked:                  Yes
    K tasked:                  Yes
    wK tasked:                  No
    OpenMP threads:              8
    Integrals threads:           8
    Memory (MB):               183
    Schwarz Cutoff:          0E+00
    Fitting Condition:       1E-12

   => Auxiliary Basis Set <=

  Basis Set: 
    Number of shells: 66
    Number of basis function: 186
    Number of Cartesian functions: 212
    Spherical Harmonics?: true
    Max angular momentum: 3


  -Total Gradient:
     Atom            X                  Y                   Z
    ------   -----------------  -----------------  -----------------
       1        0.065982834744    -0.009615093864     0.037074173981
       2       -0.087771216130    -0.006438536071    -0.037074173980
       3        0.087771216135     0.006438536072    -0.037074173983
       4       -0.065982834748     0.009615093863     0.037074173983


*** tstop() called on gimli.chem.bethel.edu at Tue Jan 12 11:06:37 2016
Module time:
	user time   =       1.04 seconds =       0.02 minutes
	system time =       0.07 seconds =       0.00 minutes
	total time  =          1 seconds =       0.02 minutes
Total time:
	user time   =       1.80 seconds =       0.03 minutes
	system time =       0.09 seconds =       0.00 minutes
	total time  =          2 seconds =       0.03 minutes
CURRENT ENERGY: -150.7695626867

			-----------------------------------------
			 OPTKING 2.0: for geometry optimizations 
			  - R.A. King,  Bethel University        
			-----------------------------------------

	Internal coordinates to be generated automatically.
	Detected frag with atoms:  1 2 3 4
	---Fragment 1 Bond Connectivity---
	 1 : 2
	 2 : 1 3
	 3 : 2 4
	 4 : 3

	Assuming in current code that numbering for constraints corresponds to unified fragment.
	---Fragment 1 Geometry and Gradient---
	 H           1.7007535196        1.5117809063        0.9448630664
	 O          -0.0000000000        1.3228082930        0.0000000000
	 O           0.0000000000       -1.3228082930        0.0000000000
	 H          -1.7007535196       -1.5117809063        0.9448630664
	             0.0659828347       -0.0096150939        0.0370741740
	            -0.0877712161       -0.0064385361       -0.0370741740
	             0.0877712161        0.0064385361       -0.0370741740
	            -0.0659828347        0.0096150939        0.0370741740

	Previous optimization step data not found.  Starting new optimization.

	---Fragment 1 Intrafragment Coordinates---
	 - Coordinate -           - BOHR/RAD -       - ANG/DEG -
	 R(1,2)           =         1.954748	       1.034408
	 R(2,3)           =         2.645617	       1.400000
	 R(3,4)           =         1.954748	       1.034408
	 B(1,2,3)         =         1.667621	      95.547656
	 B(2,3,4)         =         1.667621	      95.547656
	 D(1,2,3,4)       =         2.127396	     121.890792
	*R(1,X)           =         1.700754	       0.900000
	*R(1,Y)           =         1.511781	       0.800000
	*R(1,Z)           =         0.944863	       0.500000
	*R(4,X)           =        -1.700754	      -0.900000
	*R(4,Y)           =        -1.511781	      -0.800000
	*R(4,Z)           =         0.944863	       0.500000

	Current energy   :      -150.7695626867

	Generating empirical Hessian (Schlegel '84) for each fragment.
	Taking RFO optimization step.
	Going to follow RFO solution 1.
	Using RFO vector 1.
	Norm of target step-size    0.32509
	Projected energy change by RFO approximation:        -0.0314092187

	Back-transformation to cartesian coordinates...
	Successfully converged to displaced geometry.

	Back-transformation to cartesian coordinates to adjust frozen coordinates...
	Successfully converged to displaced geometry.

	--- Internal Coordinate Step in ANG or DEG, aJ/ANG or AJ/DEG ---
	 ---------------------------------------------------------------------------
	   Coordinate                Previous        Force       Change         New 
	   ----------                --------       ------       ------       ------
	    1 R(1,2)          =      1.034408    -0.590429    -0.091788     0.942620
	    2 R(2,3)          =      1.400000     0.153213     0.012604     1.412604
	    3 R(3,4)          =      1.034408    -0.590429    -0.091788     0.942620
	    4 B(1,2,3)        =     95.547656     0.002852     7.475348   103.023004
	    5 B(2,3,4)        =     95.547656     0.002852     7.475348   103.023004
	    6 D(1,2,3,4)      =    121.890792     0.000060    -5.982334   115.908458
	    7 *R(1,X)         =      0.900000    -0.000000     0.000000     0.900000
	    8 *R(1,Y)         =      0.800000    -0.000000     0.000000     0.800000
	    9 *R(1,Z)         =      0.500000     0.000000     0.000000     0.500000
	   10 *R(4,X)         =     -0.900000    -0.000000    -0.000000    -0.900000
	   11 *R(4,Y)         =     -0.800000     0.000000    -0.000000    -0.800000
	   12 *R(4,Z)         =      0.500000     0.000000     0.000000     0.500000
	 ---------------------------------------------------------------------------

  ==> Convergence Check <==

  Measures of convergence in internal coordinates in au.
  Criteria marked as inactive (o), active & met (*), and active & unmet ( ).
  --------------------------------------------------------------------------------------------- ~
   Step     Total Energy     Delta E     MAX Force     RMS Force      MAX Disp      RMS Disp    ~
  --------------------------------------------------------------------------------------------- ~
    Convergence Criteria    1.00e-06 *    3.00e-04 *             o    1.20e-03 *             o  ~
  --------------------------------------------------------------------------------------------- ~
      1    -150.76956269   -1.51e+02      7.17e-02      3.35e-02 o    1.73e-01      9.38e-02 o  ~
  ---------------------------------------------------------------------------------------------

	Writing optimization data to binary file.
	Structure for next step:
	Cartesian Geometry (in Angstrom)
	    H     0.9000000000   0.8000000000   0.5000000000
	    O     0.0994145230   0.6992704342   0.0127132690
	    O    -0.0994145230  -0.6992704342   0.0127132690
	    H    -0.9000000000  -0.8000000000   0.5000000000
			--------------------------
			 OPTKING Finished Execution 
			--------------------------

    Structure for next step:
    Molecular point group: c2
    Full point group: C2

    Geometry (in Angstrom), charge = 0, multiplicity = 1:

    H            0.900000000000     0.800000000000     0.500000000000
    O            0.099414522976     0.699270434166     0.012713269013
    O           -0.099414522976    -0.699270434166     0.012713269013
    H           -0.900000000000    -0.800000000000     0.500000000000

gradient() will perform analytic gradient computation.

*** tstart() called on gimli.chem.bethel.edu
*** at Tue Jan 12 11:06:37 2016

    There are an even number of electrons - assuming singlet.
    Specify the multiplicity with the MULTP option in the
    input if this is incorrect


         ---------------------------------------------------------
                                   SCF
            by Justin Turney, Rob Parrish, and Andy Simmonett
                              RHF Reference
                        8 Threads,    256 MiB Core
         ---------------------------------------------------------

  ==> Geometry <==

    Molecular point group: c2
    Full point group: C2

    Geometry (in Angstrom), charge = 0, multiplicity = 1:

       Center              X                  Y                   Z               Mass       
    ------------   -----------------  -----------------  -----------------  -----------------
           H          0.900000000000     0.800000000000     0.500000000000     1.007825032070
           O          0.099414522976     0.699270434166     0.012713269013    15.994914619560
           O         -0.099414522976    -0.699270434166     0.012713269013    15.994914619560
           H         -0.900000000000    -0.800000000000     0.500000000000     1.007825032070

  Running in c2 symmetry.

  Rotational constants: A =     10.50291  B =      0.92147  C =      0.89283 [cm^-1]
  Rotational constants: A = 314869.28970  B =  27624.88730  C =  26766.23301 [MHz]
  Nuclear repulsion =   37.713120005579945

  Charge       = 0
  Multiplicity = 1
  Electrons    = 18
  Nalpha       = 9
  Nbeta        = 9

  ==> Algorithm <==

  SCF Algorithm Type is DF.
  DIIS enabled.
  MOM disabled.
  Fractional occupation disabled.
  Guess Type is READ.
  Energy threshold   = 1.00e-08
  Density threshold  = 1.00e-08
  Integral threshold = 0.00e+00

  ==> Primary Basis <==

  Basis Set: CC-PVDZ
    Number of shells: 18
    Number of basis function: 38
    Number of Cartesian functions: 40
    Spherical Harmonics?: true
    Max angular momentum: 2

  ==> Pre-Iterations <==

   -------------------------------------------------------
    Irrep   Nso     Nmo     Nalpha   Nbeta   Ndocc  Nsocc
   -------------------------------------------------------
     A         19      19       0       0       0       0
     B         19      19       0       0       0       0
   -------------------------------------------------------
    Total      38      38       9       9       9       0
   -------------------------------------------------------

 OEINTS: Overlap, kinetic, potential, dipole, and quadrupole integrals
         stored in file 35.

  ==> Integral Setup <==

  ==> DFJK: Density-Fitted J/K Matrices <==

    J tasked:                  Yes
    K tasked:                  Yes
    wK tasked:                  No
    OpenMP threads:              8
    Integrals threads:           8
    Memory (MB):               183
    Algorithm:                Core
    Integral Cache:           NONE
    Schwarz Cutoff:          1E-12
    Fitting Condition:       1E-12

   => Auxiliary Basis Set <=

  Basis Set: 
    Number of shells: 66
    Number of basis function: 186
    Number of Cartesian functions: 212
    Spherical Harmonics?: true
    Max angular momentum: 3

  Minimum eigenvalue in the overlap matrix is 2.3090411777E-02.
  Using Symmetric Orthogonalization.
  SCF Guess: Reading in previously saved MOs, projecting if necessary.

  Using orbitals from previous SCF, no projection.
  Recomputing DOCC and SOCC from number of alpha and beta electrons from previous calculation.
              A     B 
    DOCC [     5,    4 ]

  ==> Iterations <==

                           Total Energy        Delta E     RMS |[F,P]|

   @DF-RHF iter   0:  -150.91393045291460   -1.50914e+02   1.37673e-02 
   @DF-RHF iter   1:  -150.78338830246892    1.30542e-01   2.01368e-03 
   @DF-RHF iter   2:  -150.78564182356351   -2.25352e-03   7.50987e-04 DIIS
   @DF-RHF iter   3:  -150.78603637103163   -3.94547e-04   3.58660e-04 DIIS
   @DF-RHF iter   4:  -150.78617329631325   -1.36925e-04   1.30991e-04 DIIS
   @DF-RHF iter   5:  -150.78619457872327   -2.12824e-05   4.73449e-05 DIIS
   @DF-RHF iter   6:  -150.78619849582921   -3.91711e-06   1.65161e-05 DIIS
   @DF-RHF iter   7:  -150.78619898767809   -4.91849e-07   3.22643e-06 DIIS
   @DF-RHF iter   8:  -150.78619900137622   -1.36981e-08   4.49061e-07 DIIS
   @DF-RHF iter   9:  -150.78619900157290   -1.96678e-10   8.30093e-08 DIIS
   @DF-RHF iter  10:  -150.78619900157807   -5.17275e-12   1.01784e-08 DIIS
   @DF-RHF iter  11:  -150.78619900157810   -2.84217e-14   2.11805e-09 DIIS

  ==> Post-Iterations <==

    Orbital Energies (a.u.)
    -----------------------

    Doubly Occupied:                                                      

       1A    -20.618284     1B    -20.617965     2A     -1.488823  
       2B     -1.210888     3A     -0.722583     3B     -0.708730  
       4A     -0.610963     5A     -0.506815     4B     -0.470136  

    Virtual:                                                              

       6A      0.192916     5B      0.197897     6B      0.333882  
       7B      0.836328     7A      0.845910     8B      1.119725  
       8A      1.144011     9A      1.155326     9B      1.221196  
      10B      1.278451    10A      1.334098    11B      1.479664  
      11A      1.514578    12B      1.652450    12A      1.683526  
      13A      1.948766    13B      2.015525    14A      2.488082  
      14B      2.490177    15A      2.730427    16A      2.801756  
      15B      2.882274    17A      3.258864    16B      3.316105  
      17B      3.497449    18A      3.592630    18B      3.929716  
      19A      3.976607    19B      4.266586  

    Final Occupation by Irrep:
              A     B 
    DOCC [     5,    4 ]

  Energy converged.

  @DF-RHF Final Energy:  -150.78619900157810

   => Energetics <=

    Nuclear Repulsion Energy =             37.7131200055799454
    One-Electron Energy =                -283.0882640016713481
    Two-Electron Energy =                  94.5889449945132696
    DFT Exchange-Correlation Energy =       0.0000000000000000
    Empirical Dispersion Energy =           0.0000000000000000
    PCM Polarization Energy =               0.0000000000000000
    EFP Energy =                            0.0000000000000000
    Total Energy =                       -150.7861990015781259

    Alert: EFP and PCM quantities not currently incorporated into SCF psivars.

Properties will be evaluated at   0.000000,   0.000000,   0.000000 Bohr
  ==> Properties <==


Properties computed using the SCF density matrix

  Nuclear Dipole Moment: (a.u.)
     X:     0.0000      Y:    -0.0000      Z:     2.2741

  Electronic Dipole Moment: (a.u.)
     X:     0.0000      Y:     0.0000      Z:    -1.5391

  Dipole Moment: (a.u.)
     X:     0.0000      Y:    -0.0000      Z:     0.7350     Total:     0.7350

  Dipole Moment: (Debye)
     X:     0.0000      Y:    -0.0000      Z:     1.8681     Total:     1.8681


  Saving occupied orbitals to File 180.

*** tstop() called on gimli.chem.bethel.edu at Tue Jan 12 11:06:37 2016
Module time:
	user time   =       0.75 seconds =       0.01 minutes
	system time =       0.01 seconds =       0.00 minutes
	total time  =          0 seconds =       0.00 minutes
Total time:
	user time   =       2.58 seconds =       0.04 minutes
	system time =       0.11 seconds =       0.00 minutes
	total time  =          2 seconds =       0.03 minutes

*** tstart() called on gimli.chem.bethel.edu
*** at Tue Jan 12 11:06:37 2016


         ------------------------------------------------------------
                                   SCF GRAD                          
                          Rob Parrish, Justin Turney,                
                       Andy Simmonett, and Alex Sokolov              
         ------------------------------------------------------------

  ==> Geometry <==

    Molecular point group: c2
    Full point group: C2

    Geometry (in Angstrom), charge = 0, multiplicity = 1:

       Center              X                  Y                   Z               Mass       
    ------------   -----------------  -----------------  -----------------  -----------------
           H          0.900000000000     0.800000000000     0.500000000000     1.007825032070
           O          0.099414522976     0.699270434166     0.012713269013    15.994914619560
           O         -0.099414522976    -0.699270434166     0.012713269013    15.994914619560
           H         -0.900000000000    -0.800000000000     0.500000000000     1.007825032070

  Nuclear repulsion =   37.713120005579945

  ==> Basis Set <==

  Basis Set: CC-PVDZ
    Number of shells: 18
    Number of basis function: 38
    Number of Cartesian functions: 40
    Spherical Harmonics?: true
    Max angular momentum: 2

  ==> DFJKGrad: Density-Fitted SCF Gradients <==

    Gradient:                    1
    J tasked:                  Yes
    K tasked:                  Yes
    wK tasked:                  No
    OpenMP threads:              8
    Integrals threads:           8
    Memory (MB):               183
    Schwarz Cutoff:          0E+00
    Fitting Condition:       1E-12

   => Auxiliary Basis Set <=

  Basis Set: 
    Number of shells: 66
    Number of basis function: 186
    Number of Cartesian functions: 212
    Spherical Harmonics?: true
    Max angular momentum: 3


  -Total Gradient:
     Atom            X                  Y                   Z
    ------   -----------------  -----------------  -----------------
       1       -0.005903000054     0.002773305501    -0.004060168491
       2        0.012256177151     0.013599689605     0.004060168491
       3       -0.012256177161    -0.013599689608     0.004060168497
       4        0.005903000065    -0.002773305498    -0.004060168497


*** tstop() called on gimli.chem.bethel.edu at Tue Jan 12 11:06:38 2016
Module time:
	user time   =       1.02 seconds =       0.02 minutes
	system time =       0.06 seconds =       0.00 minutes
	total time  =          1 seconds =       0.02 minutes
Total time:
	user time   =       3.61 seconds =       0.06 minutes
	system time =       0.17 seconds =       0.00 minutes
	total time  =          3 seconds =       0.05 minutes
CURRENT ENERGY: -150.7861990016

			-----------------------------------------
			 OPTKING 2.0: for geometry optimizations 
			  - R.A. King,  Bethel University        
			-----------------------------------------

	Previous internal coordinate definitions found.
	---Fragment 1 Geometry and Gradient---
	 H           1.7007535196        1.5117809063        0.9448630664
	 O           0.1878662221        1.3214296134        0.0240245967
	 O          -0.1878662221       -1.3214296134        0.0240245967
	 H          -1.7007535196       -1.5117809063        0.9448630664
	            -0.0059030001        0.0027733055       -0.0040601685
	             0.0122561772        0.0135996896        0.0040601685
	            -0.0122561772       -0.0135996896        0.0040601685
	             0.0059030001       -0.0027733055       -0.0040601685

	---Fragment 1 Intrafragment Coordinates---
	 - Coordinate -           - BOHR/RAD -       - ANG/DEG -
	 R(1,2)           =         1.781293	       0.942620
	 R(2,3)           =         2.669434	       1.412604
	 R(3,4)           =         1.781293	       0.942620
	 B(1,2,3)         =         1.798091	     103.023004
	 B(2,3,4)         =         1.798091	     103.023004
	 D(1,2,3,4)       =         2.022984	     115.908458
	*R(1,X)           =         1.700754	       0.900000
	*R(1,Y)           =         1.511781	       0.800000
	*R(1,Z)           =         0.944863	       0.500000
	*R(4,X)           =        -1.700754	      -0.900000
	*R(4,Y)           =        -1.511781	      -0.800000
	*R(4,Z)           =         0.944863	       0.500000

	Current energy   :      -150.7861990016

	Energy change for the previous step:
		Projected    :        -0.0314092187
		Actual       :        -0.0166363149

	Performing BFGS update.
	Previous computed or guess Hessian on step 1.
	Steps to be used in Hessian update: 1
	Taking RFO optimization step.
	Going to follow RFO solution 1.
	Using RFO vector 1.
	Norm of target step-size    0.07736
	Projected energy change by RFO approximation:        -0.0008608253

	Back-transformation to cartesian coordinates...
	Successfully converged to displaced geometry.

	Back-transformation to cartesian coordinates to adjust frozen coordinates...
	Successfully converged to displaced geometry.

	--- Internal Coordinate Step in ANG or DEG, aJ/ANG or AJ/DEG ---
	 ---------------------------------------------------------------------------
	   Coordinate                Previous        Force       Change         New 
	   ----------                --------       ------       ------       ------
	    1 R(1,2)          =      0.942620     0.079434     0.007232     0.949852
	    2 R(2,3)          =      1.412604    -0.115753    -0.015034     1.397570
	    3 R(3,4)          =      0.942620     0.079434     0.007232     0.949852
	    4 B(1,2,3)        =    103.023004    -0.000144    -0.956072   102.066932
	    5 B(2,3,4)        =    103.023004    -0.000144    -0.956072   102.066932
	    6 D(1,2,3,4)      =    115.908458     0.000038     3.733648   119.642106
	    7 *R(1,X)         =      0.900000    -0.000000     0.000000     0.900000
	    8 *R(1,Y)         =      0.800000    -0.000000     0.000000     0.800000
	    9 *R(1,Z)         =      0.500000     0.000000     0.000000     0.500000
	   10 *R(4,X)         =     -0.900000     0.000000    -0.000000    -0.900000
	   11 *R(4,Y)         =     -0.800000    -0.000000    -0.000000    -0.800000
	   12 *R(4,Z)         =      0.500000     0.000000     0.000000     0.500000
	 ---------------------------------------------------------------------------

  ==> Convergence Check <==

  Measures of convergence in internal coordinates in au.
  Criteria marked as inactive (o), active & met (*), and active & unmet ( ).
  ---------------------------------------------------------------------------------------------
   Step     Total Energy     Delta E     MAX Force     RMS Force      MAX Disp      RMS Disp   
  ---------------------------------------------------------------------------------------------
    Convergence Criteria    1.00e-06 *    3.00e-04 *             o    1.20e-03 *             o
  ---------------------------------------------------------------------------------------------
      2    -150.78619900   -1.66e-02      1.40e-02      5.74e-03 o    6.52e-02      2.23e-02 o  ~
  ---------------------------------------------------------------------------------------------

	Writing optimization data to binary file.
	Structure for next step:
	Cartesian Geometry (in Angstrom)
	    H     0.9000000000   0.8000000000   0.5000000000
	    O     0.0796363744   0.6942323999   0.0330580234
	    O    -0.0796363744  -0.6942323999   0.0330580234
	    H    -0.9000000000  -0.8000000000   0.5000000000
			--------------------------
			 OPTKING Finished Execution 
			--------------------------

    Structure for next step:
    Molecular point group: c2
    Full point group: C2

    Geometry (in Angstrom), charge = 0, multiplicity = 1:

    H            0.900000000000     0.800000000000     0.500000000000
    O            0.079636374406     0.694232399950     0.033058023402
    O           -0.079636374406    -0.694232399950     0.033058023402
    H           -0.900000000000    -0.800000000000     0.500000000000

gradient() will perform analytic gradient computation.

*** tstart() called on gimli.chem.bethel.edu
*** at Tue Jan 12 11:06:38 2016

    There are an even number of electrons - assuming singlet.
    Specify the multiplicity with the MULTP option in the
    input if this is incorrect


         ---------------------------------------------------------
                                   SCF
            by Justin Turney, Rob Parrish, and Andy Simmonett
                              RHF Reference
                        8 Threads,    256 MiB Core
         ---------------------------------------------------------

  ==> Geometry <==

    Molecular point group: c2
    Full point group: C2

    Geometry (in Angstrom), charge = 0, multiplicity = 1:

       Center              X                  Y                   Z               Mass       
    ------------   -----------------  -----------------  -----------------  -----------------
           H          0.900000000000     0.800000000000     0.500000000000     1.007825032070
           O          0.079636374406     0.694232399950     0.033058023402    15.994914619560
           O         -0.079636374406    -0.694232399950     0.033058023402    15.994914619560
           H         -0.900000000000    -0.800000000000     0.500000000000     1.007825032070

  Running in c2 symmetry.

  Rotational constants: A =      9.87414  B =      0.94104  C =      0.90909 [cm^-1]
  Rotational constants: A = 296019.15366  B =  28211.65469  C =  27253.92931 [MHz]
  Nuclear repulsion =   37.951340787245584

  Charge       = 0
  Multiplicity = 1
  Electrons    = 18
  Nalpha       = 9
  Nbeta        = 9

  ==> Algorithm <==

  SCF Algorithm Type is DF.
  DIIS enabled.
  MOM disabled.
  Fractional occupation disabled.
  Guess Type is READ.
  Energy threshold   = 1.00e-08
  Density threshold  = 1.00e-08
  Integral threshold = 0.00e+00

  ==> Primary Basis <==

  Basis Set: CC-PVDZ
    Number of shells: 18
    Number of basis function: 38
    Number of Cartesian functions: 40
    Spherical Harmonics?: true
    Max angular momentum: 2

  ==> Pre-Iterations <==

   -------------------------------------------------------
    Irrep   Nso     Nmo     Nalpha   Nbeta   Ndocc  Nsocc
   -------------------------------------------------------
     A         19      19       0       0       0       0
     B         19      19       0       0       0       0
   -------------------------------------------------------
    Total      38      38       9       9       9       0
   -------------------------------------------------------

 OEINTS: Overlap, kinetic, potential, dipole, and quadrupole integrals
         stored in file 35.

  ==> Integral Setup <==

  ==> DFJK: Density-Fitted J/K Matrices <==

    J tasked:                  Yes
    K tasked:                  Yes
    wK tasked:                  No
    OpenMP threads:              8
    Integrals threads:           8
    Memory (MB):               183
    Algorithm:                Core
    Integral Cache:           NONE
    Schwarz Cutoff:          1E-12
    Fitting Condition:       1E-12

   => Auxiliary Basis Set <=

  Basis Set: 
    Number of shells: 66
    Number of basis function: 186
    Number of Cartesian functions: 212
    Spherical Harmonics?: true
    Max angular momentum: 3

  Minimum eigenvalue in the overlap matrix is 2.2293624771E-02.
  Using Symmetric Orthogonalization.
  SCF Guess: Reading in previously saved MOs, projecting if necessary.

  Using orbitals from previous SCF, no projection.
  Recomputing DOCC and SOCC from number of alpha and beta electrons from previous calculation.
              A     B 
    DOCC [     5,    4 ]

  ==> Iterations <==

                           Total Energy        Delta E     RMS |[F,P]|

   @DF-RHF iter   0:  -150.78194525967328   -1.50782e+02   2.45021e-03 
   @DF-RHF iter   1:  -150.78652625033519   -4.58099e-03   4.03301e-04 
   @DF-RHF iter   2:  -150.78661282232338   -8.65720e-05   1.37920e-04 DIIS
   @DF-RHF iter   3:  -150.78662883861821   -1.60163e-05   6.11487e-05 DIIS
   @DF-RHF iter   4:  -150.78663283261349   -3.99400e-06   2.13344e-05 DIIS
   @DF-RHF iter   5:  -150.78663332020969   -4.87596e-07   8.89461e-06 DIIS
   @DF-RHF iter   6:  -150.78663345280569   -1.32596e-07   2.89708e-06 DIIS
   @DF-RHF iter   7:  -150.78663346735331   -1.45476e-08   5.76835e-07 DIIS
   @DF-RHF iter   8:  -150.78663346781750   -4.64183e-10   9.61733e-08 DIIS
   @DF-RHF iter   9:  -150.78663346782773   -1.02318e-11   2.90111e-08 DIIS
   @DF-RHF iter  10:  -150.78663346782875   -1.02318e-12   6.34510e-09 DIIS

  ==> Post-Iterations <==

    Orbital Energies (a.u.)
    -----------------------

    Doubly Occupied:                                                      

       1A    -20.616973     1B    -20.616640     2A     -1.495457  
       2B     -1.203830     3A     -0.718831     3B     -0.713420  
       4A     -0.615333     5A     -0.508050     4B     -0.463707  

    Virtual:                                                              

       6A      0.192377     5B      0.200158     6B      0.343701  
       7B      0.831323     7A      0.840124     8B      1.118913  
       8A      1.138197     9A      1.152020     9B      1.220168  
      10B      1.280701    10A      1.334321    11B      1.471642  
      11A      1.516247    12B      1.649731    12A      1.688787  
      13A      1.953752    13B      2.018887    14A      2.472609  
      14B      2.476483    15A      2.709562    16A      2.820819  
      15B      2.883509    17A      3.257696    16B      3.305654  
      17B      3.507436    18A      3.609617    18B      3.926427  
      19A      3.961965    19B      4.283647  

    Final Occupation by Irrep:
              A     B 
    DOCC [     5,    4 ]

  Energy converged.

  @DF-RHF Final Energy:  -150.78663346782875

   => Energetics <=

    Nuclear Repulsion Energy =             37.9513407872455844
    One-Electron Energy =                -283.5714664644229401
    Two-Electron Energy =                  94.8334922093486341
    DFT Exchange-Correlation Energy =       0.0000000000000000
    Empirical Dispersion Energy =           0.0000000000000000
    PCM Polarization Energy =               0.0000000000000000
    EFP Energy =                            0.0000000000000000
    Total Energy =                       -150.7866334678287217

    Alert: EFP and PCM quantities not currently incorporated into SCF psivars.

Properties will be evaluated at   0.000000,   0.000000,   0.000000 Bohr
  ==> Properties <==


Properties computed using the SCF density matrix

  Nuclear Dipole Moment: (a.u.)
     X:     0.0000      Y:    -0.0000      Z:     2.8893

  Electronic Dipole Moment: (a.u.)
     X:     0.0000      Y:     0.0000      Z:    -2.1888

  Dipole Moment: (a.u.)
     X:     0.0000      Y:    -0.0000      Z:     0.7005     Total:     0.7005

  Dipole Moment: (Debye)
     X:     0.0000      Y:    -0.0000      Z:     1.7805     Total:     1.7805


  Saving occupied orbitals to File 180.

*** tstop() called on gimli.chem.bethel.edu at Tue Jan 12 11:06:38 2016
Module time:
	user time   =       0.75 seconds =       0.01 minutes
	system time =       0.01 seconds =       0.00 minutes
	total time  =          0 seconds =       0.00 minutes
Total time:
	user time   =       4.38 seconds =       0.07 minutes
	system time =       0.18 seconds =       0.00 minutes
	total time  =          3 seconds =       0.05 minutes

*** tstart() called on gimli.chem.bethel.edu
*** at Tue Jan 12 11:06:38 2016


         ------------------------------------------------------------
                                   SCF GRAD                          
                          Rob Parrish, Justin Turney,                
                       Andy Simmonett, and Alex Sokolov              
         ------------------------------------------------------------

  ==> Geometry <==

    Molecular point group: c2
    Full point group: C2

    Geometry (in Angstrom), charge = 0, multiplicity = 1:

       Center              X                  Y                   Z               Mass       
    ------------   -----------------  -----------------  -----------------  -----------------
           H          0.900000000000     0.800000000000     0.500000000000     1.007825032070
           O          0.079636374406     0.694232399950     0.033058023402    15.994914619560
           O         -0.079636374406    -0.694232399950     0.033058023402    15.994914619560
           H         -0.900000000000    -0.800000000000     0.500000000000     1.007825032070

  Nuclear repulsion =   37.951340787245577

  ==> Basis Set <==

  Basis Set: CC-PVDZ
    Number of shells: 18
    Number of basis function: 38
    Number of Cartesian functions: 40
    Spherical Harmonics?: true
    Max angular momentum: 2

  ==> DFJKGrad: Density-Fitted SCF Gradients <==

    Gradient:                    1
    J tasked:                  Yes
    K tasked:                  Yes
    wK tasked:                  No
    OpenMP threads:              8
    Integrals threads:           8
    Memory (MB):               183
    Schwarz Cutoff:          0E+00
    Fitting Condition:       1E-12

   => Auxiliary Basis Set <=

  Basis Set: 
    Number of shells: 66
    Number of basis function: 186
    Number of Cartesian functions: 212
    Spherical Harmonics?: true
    Max angular momentum: 3


  -Total Gradient:
     Atom            X                  Y                   Z
    ------   -----------------  -----------------  -----------------
       1        0.001871869213     0.000256463245     0.000714707190
       2       -0.001528784951     0.002578630525    -0.000714707191
       3        0.001528784958    -0.002578630524    -0.000714707194
       4       -0.001871869220    -0.000256463247     0.000714707195


*** tstop() called on gimli.chem.bethel.edu at Tue Jan 12 11:06:39 2016
Module time:
	user time   =       1.02 seconds =       0.02 minutes
	system time =       0.07 seconds =       0.00 minutes
	total time  =          1 seconds =       0.02 minutes
Total time:
	user time   =       5.40 seconds =       0.09 minutes
	system time =       0.25 seconds =       0.00 minutes
	total time  =          4 seconds =       0.07 minutes
CURRENT ENERGY: -150.7866334678

			-----------------------------------------
			 OPTKING 2.0: for geometry optimizations 
			  - R.A. King,  Bethel University        
			-----------------------------------------

	Previous internal coordinate definitions found.
	---Fragment 1 Geometry and Gradient---
	 H           1.7007535196        1.5117809063        0.9448630664
	 O           0.1504909378        1.3119091085        0.0624706107
	 O          -0.1504909378       -1.3119091085        0.0624706107
	 H          -1.7007535196       -1.5117809063        0.9448630664
	             0.0018718692        0.0002564632        0.0007147072
	            -0.0015287850        0.0025786305       -0.0007147072
	             0.0015287850       -0.0025786305       -0.0007147072
	            -0.0018718692       -0.0002564632        0.0007147072

	---Fragment 1 Intrafragment Coordinates---
	 - Coordinate -           - BOHR/RAD -       - ANG/DEG -
	 R(1,2)           =         1.794959	       0.949852
	 R(2,3)           =         2.641025	       1.397570
	 R(3,4)           =         1.794959	       0.949852
	 B(1,2,3)         =         1.781404	     102.066932
	 B(2,3,4)         =         1.781404	     102.066932
	 D(1,2,3,4)       =         2.088149	     119.642106
	*R(1,X)           =         1.700754	       0.900000
	*R(1,Y)           =         1.511781	       0.800000
	*R(1,Z)           =         0.944863	       0.500000
	*R(4,X)           =        -1.700754	      -0.900000
	*R(4,Y)           =        -1.511781	      -0.800000
	*R(4,Z)           =         0.944863	       0.500000

	Current energy   :      -150.7866334678

	Energy change for the previous step:
		Projected    :        -0.0008608253
		Actual       :        -0.0004344663

	Performing BFGS update.
	Previous computed or guess Hessian on step 1.
	Steps to be used in Hessian update: 2 1
	Taking RFO optimization step.
	Going to follow RFO solution 1.
	Using RFO vector 1.
	Norm of target step-size    0.01043
	Projected energy change by RFO approximation:        -0.0000306190

	Back-transformation to cartesian coordinates...
	Successfully converged to displaced geometry.

	Back-transformation to cartesian coordinates to adjust frozen coordinates...
	Successfully converged to displaced geometry.

	--- Internal Coordinate Step in ANG or DEG, aJ/ANG or AJ/DEG ---
	 ---------------------------------------------------------------------------
	   Coordinate                Previous        Force       Change         New 
	   ----------                --------       ------       ------       ------
	    1 R(1,2)          =      0.949852    -0.008881    -0.001621     0.948230
	    2 R(2,3)          =      1.397570    -0.015689    -0.003359     1.394211
	    3 R(3,4)          =      0.949852    -0.008881    -0.001621     0.948230
	    4 B(1,2,3)        =    102.066932     0.000099     0.272905   102.339836
	    5 B(2,3,4)        =    102.066932     0.000099     0.272905   102.339836
	    6 D(1,2,3,4)      =    119.642106     0.000004    -0.120410   119.521695
	    7 *R(1,X)         =      0.900000    -0.000000    -0.000000     0.900000
	    8 *R(1,Y)         =      0.800000     0.000000    -0.000000     0.800000
	    9 *R(1,Z)         =      0.500000     0.000000     0.000000     0.500000
	   10 *R(4,X)         =     -0.900000    -0.000000     0.000000    -0.900000
	   11 *R(4,Y)         =     -0.800000    -0.000000     0.000000    -0.800000
	   12 *R(4,Z)         =      0.500000     0.000000     0.000000     0.500000
	 ---------------------------------------------------------------------------

  ==> Convergence Check <==

  Measures of convergence in internal coordinates in au.
  Criteria marked as inactive (o), active & met (*), and active & unmet ( ).
  ---------------------------------------------------------------------------------------------
   Step     Total Energy     Delta E     MAX Force     RMS Force      MAX Disp      RMS Disp   
  ---------------------------------------------------------------------------------------------
    Convergence Criteria    1.00e-06 *    3.00e-04 *             o    1.20e-03 *             o
  ---------------------------------------------------------------------------------------------
      3    -150.78663347   -4.34e-04      1.90e-03      8.84e-04 o    6.35e-03      3.01e-03 o  ~
  ---------------------------------------------------------------------------------------------

	Writing optimization data to binary file.
	Structure for next step:
	Cartesian Geometry (in Angstrom)
	    H     0.9000000000   0.8000000000   0.5000000000
	    O     0.0815144527   0.6923230911   0.0334937287
	    O    -0.0815144527  -0.6923230911   0.0334937287
	    H    -0.9000000000  -0.8000000000   0.5000000000
			--------------------------
			 OPTKING Finished Execution 
			--------------------------

    Structure for next step:
    Molecular point group: c2
    Full point group: C2

    Geometry (in Angstrom), charge = 0, multiplicity = 1:

    H            0.900000000000     0.800000000000     0.500000000000
    O            0.081514452715     0.692323091128     0.033493728668
    O           -0.081514452715    -0.692323091128     0.033493728668
    H           -0.900000000000    -0.800000000000     0.500000000000

gradient() will perform analytic gradient computation.

*** tstart() called on gimli.chem.bethel.edu
*** at Tue Jan 12 11:06:39 2016

    There are an even number of electrons - assuming singlet.
    Specify the multiplicity with the MULTP option in the
    input if this is incorrect


         ---------------------------------------------------------
                                   SCF
            by Justin Turney, Rob Parrish, and Andy Simmonett
                              RHF Reference
                        8 Threads,    256 MiB Core
         ---------------------------------------------------------

  ==> Geometry <==

    Molecular point group: c2
    Full point group: C2

    Geometry (in Angstrom), charge = 0, multiplicity = 1:

       Center              X                  Y                   Z               Mass       
    ------------   -----------------  -----------------  -----------------  -----------------
           H          0.900000000000     0.800000000000     0.500000000000     1.007825032070
           O          0.081514452715     0.692323091128     0.033493728668    15.994914619560
           O         -0.081514452715    -0.692323091128     0.033493728668    15.994914619560
           H         -0.900000000000    -0.800000000000     0.500000000000     1.007825032070

  Running in c2 symmetry.

  Rotational constants: A =      9.92086  B =      0.94447  C =      0.91279 [cm^-1]
  Rotational constants: A = 297419.93001  B =  28314.56879  C =  27364.61772 [MHz]
  Nuclear repulsion =   38.026602843743369

  Charge       = 0
  Multiplicity = 1
  Electrons    = 18
  Nalpha       = 9
  Nbeta        = 9

  ==> Algorithm <==

  SCF Algorithm Type is DF.
  DIIS enabled.
  MOM disabled.
  Fractional occupation disabled.
  Guess Type is READ.
  Energy threshold   = 1.00e-08
  Density threshold  = 1.00e-08
  Integral threshold = 0.00e+00

  ==> Primary Basis <==

  Basis Set: CC-PVDZ
    Number of shells: 18
    Number of basis function: 38
    Number of Cartesian functions: 40
    Spherical Harmonics?: true
    Max angular momentum: 2

  ==> Pre-Iterations <==

   -------------------------------------------------------
    Irrep   Nso     Nmo     Nalpha   Nbeta   Ndocc  Nsocc
   -------------------------------------------------------
     A         19      19       0       0       0       0
     B         19      19       0       0       0       0
   -------------------------------------------------------
    Total      38      38       9       9       9       0
   -------------------------------------------------------

 OEINTS: Overlap, kinetic, potential, dipole, and quadrupole integrals
         stored in file 35.

  ==> Integral Setup <==

  ==> DFJK: Density-Fitted J/K Matrices <==

    J tasked:                  Yes
    K tasked:                  Yes
    wK tasked:                  No
    OpenMP threads:              8
    Integrals threads:           8
    Memory (MB):               183
    Algorithm:                Core
    Integral Cache:           NONE
    Schwarz Cutoff:          1E-12
    Fitting Condition:       1E-12

   => Auxiliary Basis Set <=

  Basis Set: 
    Number of shells: 66
    Number of basis function: 186
    Number of Cartesian functions: 212
    Spherical Harmonics?: true
    Max angular momentum: 3

  Minimum eigenvalue in the overlap matrix is 2.2120475666E-02.
  Using Symmetric Orthogonalization.
  SCF Guess: Reading in previously saved MOs, projecting if necessary.

  Using orbitals from previous SCF, no projection.
  Recomputing DOCC and SOCC from number of alpha and beta electrons from previous calculation.
              A     B 
    DOCC [     5,    4 ]

  ==> Iterations <==

                           Total Energy        Delta E     RMS |[F,P]|

   @DF-RHF iter   0:  -150.79077690516999   -1.50791e+02   4.00891e-04 
   @DF-RHF iter   1:  -150.78664626427036    4.13064e-03   6.01720e-05 
   @DF-RHF iter   2:  -150.78664797367207   -1.70940e-06   1.87440e-05 DIIS
   @DF-RHF iter   3:  -150.78664825769863   -2.84027e-07   8.65859e-06 DIIS
   @DF-RHF iter   4:  -150.78664833314190   -7.54433e-08   2.99279e-06 DIIS
   @DF-RHF iter   5:  -150.78664834168001   -8.53811e-09   1.08996e-06 DIIS
   @DF-RHF iter   6:  -150.78664834347316   -1.79315e-09   4.03345e-07 DIIS
   @DF-RHF iter   7:  -150.78664834377031   -2.97149e-10   8.67182e-08 DIIS
   @DF-RHF iter   8:  -150.78664834378128   -1.09708e-11   9.67198e-09 DIIS

  ==> Post-Iterations <==

    Orbital Energies (a.u.)
    -----------------------

    Doubly Occupied:                                                      

       1A    -20.616490     1B    -20.616153     2A     -1.497227  
       2B     -1.203939     3A     -0.720728     3B     -0.713763  
       4A     -0.616296     5A     -0.507460     4B     -0.463227  

    Virtual:                                                              

       6A      0.192736     5B      0.200495     6B      0.346556  
       7B      0.832424     7A      0.841891     8B      1.119081  
       8A      1.138273     9A      1.152376     9B      1.220630  
      10B      1.280597    10A      1.333521    11B      1.472925  
      11A      1.516319    12B      1.650605    12A      1.689057  
      13A      1.953371    13B      2.019612    14A      2.477194  
      14B      2.480493    15A      2.708238    16A      2.825500  
      15B      2.881873    17A      3.257969    16B      3.307659  
      17B      3.512793    18A      3.613528    18B      3.928951  
      19A      3.965590    19B      4.285421  

    Final Occupation by Irrep:
              A     B 
    DOCC [     5,    4 ]

  Energy converged.

  @DF-RHF Final Energy:  -150.78664834378128

   => Energetics <=

    Nuclear Repulsion Energy =             38.0266028437433690
    One-Electron Energy =                -283.7159390360353086
    Two-Electron Energy =                  94.9026878485106380
    DFT Exchange-Correlation Energy =       0.0000000000000000
    Empirical Dispersion Energy =           0.0000000000000000
    PCM Polarization Energy =               0.0000000000000000
    EFP Energy =                            0.0000000000000000
    Total Energy =                       -150.7866483437812803

    Alert: EFP and PCM quantities not currently incorporated into SCF psivars.

Properties will be evaluated at   0.000000,   0.000000,   0.000000 Bohr
  ==> Properties <==


Properties computed using the SCF density matrix

  Nuclear Dipole Moment: (a.u.)
     X:     0.0000      Y:    -0.0000      Z:     2.9024

  Electronic Dipole Moment: (a.u.)
     X:     0.0000      Y:     0.0000      Z:    -2.2017

  Dipole Moment: (a.u.)
     X:     0.0000      Y:    -0.0000      Z:     0.7007     Total:     0.7007

  Dipole Moment: (Debye)
     X:     0.0000      Y:    -0.0000      Z:     1.7810     Total:     1.7810


  Saving occupied orbitals to File 180.

*** tstop() called on gimli.chem.bethel.edu at Tue Jan 12 11:06:40 2016
Module time:
	user time   =       0.74 seconds =       0.01 minutes
	system time =       0.01 seconds =       0.00 minutes
	total time  =          1 seconds =       0.02 minutes
Total time:
	user time   =       6.17 seconds =       0.10 minutes
	system time =       0.26 seconds =       0.00 minutes
	total time  =          5 seconds =       0.08 minutes

*** tstart() called on gimli.chem.bethel.edu
*** at Tue Jan 12 11:06:40 2016


         ------------------------------------------------------------
                                   SCF GRAD                          
                          Rob Parrish, Justin Turney,                
                       Andy Simmonett, and Alex Sokolov              
         ------------------------------------------------------------

  ==> Geometry <==

    Molecular point group: c2
    Full point group: C2

    Geometry (in Angstrom), charge = 0, multiplicity = 1:

       Center              X                  Y                   Z               Mass       
    ------------   -----------------  -----------------  -----------------  -----------------
           H          0.900000000000     0.800000000000     0.500000000000     1.007825032070
           O          0.081514452715     0.692323091128     0.033493728668    15.994914619560
           O         -0.081514452715    -0.692323091128     0.033493728668    15.994914619560
           H         -0.900000000000    -0.800000000000     0.500000000000     1.007825032070

  Nuclear repulsion =   38.026602843743369

  ==> Basis Set <==

  Basis Set: CC-PVDZ
    Number of shells: 18
    Number of basis function: 38
    Number of Cartesian functions: 40
    Spherical Harmonics?: true
    Max angular momentum: 2

  ==> DFJKGrad: Density-Fitted SCF Gradients <==

    Gradient:                    1
    J tasked:                  Yes
    K tasked:                  Yes
    wK tasked:                  No
    OpenMP threads:              8
    Integrals threads:           8
    Memory (MB):               183
    Schwarz Cutoff:          0E+00
    Fitting Condition:       1E-12

   => Auxiliary Basis Set <=

  Basis Set: 
    Number of shells: 66
    Number of basis function: 186
    Number of Cartesian functions: 212
    Spherical Harmonics?: true
    Max angular momentum: 3


  -Total Gradient:
     Atom            X                  Y                   Z
    ------   -----------------  -----------------  -----------------
       1        0.000287018158     0.000534154278    -0.000279242655
       2        0.000401583201     0.000329990128     0.000279242656
       3       -0.000401583180    -0.000329990126     0.000279242642
       4       -0.000287018179    -0.000534154281    -0.000279242643


*** tstop() called on gimli.chem.bethel.edu at Tue Jan 12 11:06:40 2016
Module time:
	user time   =       1.04 seconds =       0.02 minutes
	system time =       0.07 seconds =       0.00 minutes
	total time  =          0 seconds =       0.00 minutes
Total time:
	user time   =       7.21 seconds =       0.12 minutes
	system time =       0.33 seconds =       0.01 minutes
	total time  =          5 seconds =       0.08 minutes
CURRENT ENERGY: -150.7866483438

			-----------------------------------------
			 OPTKING 2.0: for geometry optimizations 
			  - R.A. King,  Bethel University        
			-----------------------------------------

	Previous internal coordinate definitions found.
	---Fragment 1 Geometry and Gradient---
	 H           1.7007535196        1.5117809063        0.9448630664
	 O           0.1540399915        1.3083010377        0.0632939744
	 O          -0.1540399915       -1.3083010377        0.0632939744
	 H          -1.7007535196       -1.5117809063        0.9448630664
	             0.0002870182        0.0005341543       -0.0002792427
	             0.0004015832        0.0003299901        0.0002792427
	            -0.0004015832       -0.0003299901        0.0002792426
	            -0.0002870182       -0.0005341543       -0.0002792426

	---Fragment 1 Intrafragment Coordinates---
	 - Coordinate -           - BOHR/RAD -       - ANG/DEG -
	 R(1,2)           =         1.791896	       0.948230
	 R(2,3)           =         2.634676	       1.394211
	 R(3,4)           =         1.791896	       0.948230
	 B(1,2,3)         =         1.786167	     102.339836
	 B(2,3,4)         =         1.786167	     102.339836
	 D(1,2,3,4)       =         2.086047	     119.521695
	*R(1,X)           =         1.700754	       0.900000
	*R(1,Y)           =         1.511781	       0.800000
	*R(1,Z)           =         0.944863	       0.500000
	*R(4,X)           =        -1.700754	      -0.900000
	*R(4,Y)           =        -1.511781	      -0.800000
	*R(4,Z)           =         0.944863	       0.500000

	Current energy   :      -150.7866483438

	Energy change for the previous step:
		Projected    :        -0.0000306190
		Actual       :        -0.0000148760

	Performing BFGS update.
	Previous computed or guess Hessian on step 1.
	Steps to be used in Hessian update: 3 2
	Taking RFO optimization step.
	Going to follow RFO solution 1.
	Using RFO vector 1.
	Norm of target step-size    0.00640
	Projected energy change by RFO approximation:        -0.0000018150

	Back-transformation to cartesian coordinates...
	Successfully converged to displaced geometry.

	Back-transformation to cartesian coordinates to adjust frozen coordinates...
	Successfully converged to displaced geometry.

	--- Internal Coordinate Step in ANG or DEG, aJ/ANG or AJ/DEG ---
	 ---------------------------------------------------------------------------
	   Coordinate                Previous        Force       Change         New 
	   ----------                --------       ------       ------       ------
	    1 R(1,2)          =      0.948230     0.003298     0.000570     0.948800
	    2 R(2,3)          =      1.394211    -0.002853    -0.000435     1.393776
	    3 R(3,4)          =      0.948230     0.003298     0.000570     0.948800
	    4 B(1,2,3)        =    102.339836    -0.000008     0.066971   102.406807
	    5 B(2,3,4)        =    102.339836    -0.000008     0.066971   102.406807
	    6 D(1,2,3,4)      =    119.521695    -0.000003    -0.339866   119.181829
	    7 *R(1,X)         =      0.900000    -0.000000    -0.000000     0.900000
	    8 *R(1,Y)         =      0.800000     0.000000    -0.000000     0.800000
	    9 *R(1,Z)         =      0.500000    -0.000000     0.000000     0.500000
	   10 *R(4,X)         =     -0.900000     0.000000     0.000000    -0.900000
	   11 *R(4,Y)         =     -0.800000     0.000000     0.000000    -0.800000
	   12 *R(4,Z)         =      0.500000     0.000000     0.000000     0.500000
	 ---------------------------------------------------------------------------

  ==> Convergence Check <==

  Measures of convergence in internal coordinates in au.
  Criteria marked as inactive (o), active & met (*), and active & unmet ( ).
  ---------------------------------------------------------------------------------------------
   Step     Total Energy     Delta E     MAX Force     RMS Force      MAX Disp      RMS Disp   
  ---------------------------------------------------------------------------------------------
    Convergence Criteria    1.00e-06 *    3.00e-04 *             o    1.20e-03 *             o
  ---------------------------------------------------------------------------------------------
      4    -150.78664834   -1.49e-05      4.00e-04      2.01e-04 o    5.93e-03      1.85e-03 o  ~
  ---------------------------------------------------------------------------------------------

	Writing optimization data to binary file.
	Structure for next step:
	Cartesian Geometry (in Angstrom)
	    H     0.9000000000   0.8000000000   0.5000000000
	    O     0.0823437987   0.6920060843   0.0309607019
	    O    -0.0823437987  -0.6920060843   0.0309607019
	    H    -0.9000000000  -0.8000000000   0.5000000000
			--------------------------
			 OPTKING Finished Execution 
			--------------------------

    Structure for next step:
    Molecular point group: c2
    Full point group: C2

    Geometry (in Angstrom), charge = 0, multiplicity = 1:

    H            0.900000000000     0.800000000000     0.500000000000
    O            0.082343798718     0.692006084285     0.030960701855
    O           -0.082343798718    -0.692006084285     0.030960701855
    H           -0.900000000000    -0.800000000000     0.500000000000

gradient() will perform analytic gradient computation.

*** tstart() called on gimli.chem.bethel.edu
*** at Tue Jan 12 11:06:40 2016

    There are an even number of electrons - assuming singlet.
    Specify the multiplicity with the MULTP option in the
    input if this is incorrect


         ---------------------------------------------------------
                                   SCF
            by Justin Turney, Rob Parrish, and Andy Simmonett
                              RHF Reference
                        8 Threads,    256 MiB Core
         ---------------------------------------------------------

  ==> Geometry <==

    Molecular point group: c2
    Full point group: C2

    Geometry (in Angstrom), charge = 0, multiplicity = 1:

       Center              X                  Y                   Z               Mass       
    ------------   -----------------  -----------------  -----------------  -----------------
           H          0.900000000000     0.800000000000     0.500000000000     1.007825032070
           O          0.082343798718     0.692006084285     0.030960701855    15.994914619560
           O         -0.082343798718    -0.692006084285     0.030960701855    15.994914619560
           H         -0.900000000000    -0.800000000000     0.500000000000     1.007825032070

  Running in c2 symmetry.

  Rotational constants: A =      9.97222  B =      0.94508  C =      0.91326 [cm^-1]
  Rotational constants: A = 298959.67952  B =  28332.64153  C =  27378.98477 [MHz]
  Nuclear repulsion =   38.026761816308010

  Charge       = 0
  Multiplicity = 1
  Electrons    = 18
  Nalpha       = 9
  Nbeta        = 9

  ==> Algorithm <==

  SCF Algorithm Type is DF.
  DIIS enabled.
  MOM disabled.
  Fractional occupation disabled.
  Guess Type is READ.
  Energy threshold   = 1.00e-08
  Density threshold  = 1.00e-08
  Integral threshold = 0.00e+00

  ==> Primary Basis <==

  Basis Set: CC-PVDZ
    Number of shells: 18
    Number of basis function: 38
    Number of Cartesian functions: 40
    Spherical Harmonics?: true
    Max angular momentum: 2

  ==> Pre-Iterations <==

   -------------------------------------------------------
    Irrep   Nso     Nmo     Nalpha   Nbeta   Ndocc  Nsocc
   -------------------------------------------------------
     A         19      19       0       0       0       0
     B         19      19       0       0       0       0
   -------------------------------------------------------
    Total      38      38       9       9       9       0
   -------------------------------------------------------

 OEINTS: Overlap, kinetic, potential, dipole, and quadrupole integrals
         stored in file 35.

  ==> Integral Setup <==

  ==> DFJK: Density-Fitted J/K Matrices <==

    J tasked:                  Yes
    K tasked:                  Yes
    wK tasked:                  No
    OpenMP threads:              8
    Integrals threads:           8
    Memory (MB):               183
    Algorithm:                Core
    Integral Cache:           NONE
    Schwarz Cutoff:          1E-12
    Fitting Condition:       1E-12

   => Auxiliary Basis Set <=

  Basis Set: 
    Number of shells: 66
    Number of basis function: 186
    Number of Cartesian functions: 212
    Spherical Harmonics?: true
    Max angular momentum: 3

  Minimum eigenvalue in the overlap matrix is 2.2118380169E-02.
  Using Symmetric Orthogonalization.
  SCF Guess: Reading in previously saved MOs, projecting if necessary.

  Using orbitals from previous SCF, no projection.
  Recomputing DOCC and SOCC from number of alpha and beta electrons from previous calculation.
              A     B 
    DOCC [     5,    4 ]

  ==> Iterations <==

                           Total Energy        Delta E     RMS |[F,P]|

   @DF-RHF iter   0:  -150.78604021919642   -1.50786e+02   1.55647e-04 
   @DF-RHF iter   1:  -150.78664859841888   -6.08379e-04   2.71182e-05 
   @DF-RHF iter   2:  -150.78664900036094   -4.01942e-07   1.01998e-05 DIIS
   @DF-RHF iter   3:  -150.78664908421476   -8.38538e-08   4.50356e-06 DIIS
   @DF-RHF iter   4:  -150.78664910195391   -1.77392e-08   1.25335e-06 DIIS
   @DF-RHF iter   5:  -150.78664910375994   -1.80603e-09   3.46086e-07 DIIS
   @DF-RHF iter   6:  -150.78664910393042   -1.70473e-10   1.41307e-07 DIIS
   @DF-RHF iter   7:  -150.78664910396580   -3.53850e-11   3.62214e-08 DIIS
   @DF-RHF iter   8:  -150.78664910396790   -2.10321e-12   8.40247e-09 DIIS

  ==> Post-Iterations <==

    Orbital Energies (a.u.)
    -----------------------

    Doubly Occupied:                                                      

       1A    -20.616485     1B    -20.616148     2A     -1.497242  
       2B     -1.203633     3A     -0.721021     3B     -0.713432  
       4A     -0.616276     5A     -0.507017     4B     -0.463339  

    Virtual:                                                              

       6A      0.192617     5B      0.200393     6B      0.346956  
       7B      0.831938     7A      0.841348     8B      1.119247  
       8A      1.138815     9A      1.152423     9B      1.220551  
      10B      1.280731    10A      1.333166    11B      1.473044  
      11A      1.515889    12B      1.650873    12A      1.688510  
      13A      1.953232    13B      2.019501    14A      2.476290  
      14B      2.478936    15A      2.708845    16A      2.826265  
      15B      2.880155    17A      3.256507    16B      3.307678  
      17B      3.513891    18A      3.613241    18B      3.928614  
      19A      3.965484    19B      4.284932  

    Final Occupation by Irrep:
              A     B 
    DOCC [     5,    4 ]

  Energy converged.

  @DF-RHF Final Energy:  -150.78664910396790

   => Energetics <=

    Nuclear Repulsion Energy =             38.0267618163080101
    One-Electron Energy =                -283.7176354231054916
    Two-Electron Energy =                  94.9042245028296065
    DFT Exchange-Correlation Energy =       0.0000000000000000
    Empirical Dispersion Energy =           0.0000000000000000
    PCM Polarization Energy =               0.0000000000000000
    EFP Energy =                            0.0000000000000000
    Total Energy =                       -150.7866491039678749

    Alert: EFP and PCM quantities not currently incorporated into SCF psivars.

Properties will be evaluated at   0.000000,   0.000000,   0.000000 Bohr
  ==> Properties <==


Properties computed using the SCF density matrix

  Nuclear Dipole Moment: (a.u.)
     X:     0.0000      Y:    -0.0000      Z:     2.8258

  Electronic Dipole Moment: (a.u.)
     X:     0.0000      Y:     0.0000      Z:    -2.1215

  Dipole Moment: (a.u.)
     X:     0.0000      Y:    -0.0000      Z:     0.7043     Total:     0.7043

  Dipole Moment: (Debye)
     X:     0.0000      Y:    -0.0000      Z:     1.7903     Total:     1.7903


  Saving occupied orbitals to File 180.

*** tstop() called on gimli.chem.bethel.edu at Tue Jan 12 11:06:41 2016
Module time:
	user time   =       0.73 seconds =       0.01 minutes
	system time =       0.01 seconds =       0.00 minutes
	total time  =          1 seconds =       0.02 minutes
Total time:
	user time   =       7.97 seconds =       0.13 minutes
	system time =       0.34 seconds =       0.01 minutes
	total time  =          6 seconds =       0.10 minutes

*** tstart() called on gimli.chem.bethel.edu
*** at Tue Jan 12 11:06:41 2016


         ------------------------------------------------------------
                                   SCF GRAD                          
                          Rob Parrish, Justin Turney,                
                       Andy Simmonett, and Alex Sokolov              
         ------------------------------------------------------------

  ==> Geometry <==

    Molecular point group: c2
    Full point group: C2

    Geometry (in Angstrom), charge = 0, multiplicity = 1:

       Center              X                  Y                   Z               Mass       
    ------------   -----------------  -----------------  -----------------  -----------------
           H          0.900000000000     0.800000000000     0.500000000000     1.007825032070
           O          0.082343798718     0.692006084285     0.030960701855    15.994914619560
           O         -0.082343798718    -0.692006084285     0.030960701855    15.994914619560
           H         -0.900000000000    -0.800000000000     0.500000000000     1.007825032070

  Nuclear repulsion =   38.026761816308003

  ==> Basis Set <==

  Basis Set: CC-PVDZ
    Number of shells: 18
    Number of basis function: 38
    Number of Cartesian functions: 40
    Spherical Harmonics?: true
    Max angular momentum: 2

  ==> DFJKGrad: Density-Fitted SCF Gradients <==

    Gradient:                    1
    J tasked:                  Yes
    K tasked:                  Yes
    wK tasked:                  No
    OpenMP threads:              8
    Integrals threads:           8
    Memory (MB):               183
    Schwarz Cutoff:          0E+00
    Fitting Condition:       1E-12

   => Auxiliary Basis Set <=

  Basis Set: 
    Number of shells: 66
    Number of basis function: 186
    Number of Cartesian functions: 212
    Spherical Harmonics?: true
    Max angular momentum: 3


  -Total Gradient:
     Atom            X                  Y                   Z
    ------   -----------------  -----------------  -----------------
       1        0.000829962020     0.000724448754     0.000032854413
       2       -0.000022435282    -0.000043480213    -0.000032854413
       3        0.000022435270     0.000043480209    -0.000032854405
       4       -0.000829962008    -0.000724448750     0.000032854406


*** tstop() called on gimli.chem.bethel.edu at Tue Jan 12 11:06:42 2016
Module time:
	user time   =       0.99 seconds =       0.02 minutes
	system time =       0.08 seconds =       0.00 minutes
	total time  =          1 seconds =       0.02 minutes
Total time:
	user time   =       8.96 seconds =       0.15 minutes
	system time =       0.42 seconds =       0.01 minutes
	total time  =          7 seconds =       0.12 minutes
CURRENT ENERGY: -150.7866491040

			-----------------------------------------
			 OPTKING 2.0: for geometry optimizations 
			  - R.A. King,  Bethel University        
			-----------------------------------------

	Previous internal coordinate definitions found.
	---Fragment 1 Geometry and Gradient---
	 H           1.7007535196        1.5117809063        0.9448630664
	 O           0.1556072283        1.3077019816        0.0585072474
	 O          -0.1556072283       -1.3077019816        0.0585072474
	 H          -1.7007535196       -1.5117809063        0.9448630664
	             0.0008299620        0.0007244488        0.0000328544
	            -0.0000224353       -0.0000434802       -0.0000328544
	             0.0000224353        0.0000434802       -0.0000328544
	            -0.0008299620       -0.0007244488        0.0000328544

	---Fragment 1 Intrafragment Coordinates---
	 - Coordinate -           - BOHR/RAD -       - ANG/DEG -
	 R(1,2)           =         1.792973	       0.948800
	 R(2,3)           =         2.633855	       1.393776
	 R(3,4)           =         1.792973	       0.948800
	 B(1,2,3)         =         1.787336	     102.406807
	 B(2,3,4)         =         1.787336	     102.406807
	 D(1,2,3,4)       =         2.080115	     119.181829
	*R(1,X)           =         1.700754	       0.900000
	*R(1,Y)           =         1.511781	       0.800000
	*R(1,Z)           =         0.944863	       0.500000
	*R(4,X)           =        -1.700754	      -0.900000
	*R(4,Y)           =        -1.511781	      -0.800000
	*R(4,Z)           =         0.944863	       0.500000

	Current energy   :      -150.7866491040

	Energy change for the previous step:
		Projected    :        -0.0000018150
		Actual       :        -0.0000007602

	Performing BFGS update.
	Previous computed or guess Hessian on step 1.
	Steps to be used in Hessian update: 4 3
	Taking RFO optimization step.
	Going to follow RFO solution 1.
	Using RFO vector 1.
	Norm of target step-size    0.00120
	Projected energy change by RFO approximation:        -0.0000000481

	Back-transformation to cartesian coordinates...
	Successfully converged to displaced geometry.

	Back-transformation to cartesian coordinates to adjust frozen coordinates...
	Successfully converged to displaced geometry.

	--- Internal Coordinate Step in ANG or DEG, aJ/ANG or AJ/DEG ---
	 ---------------------------------------------------------------------------
	   Coordinate                Previous        Force       Change         New 
	   ----------                --------       ------       ------       ------
	    1 R(1,2)          =      0.948800    -0.000282    -0.000063     0.948737
	    2 R(2,3)          =      1.393776     0.000319     0.000050     1.393826
	    3 R(3,4)          =      0.948800    -0.000282    -0.000063     0.948737
	    4 B(1,2,3)        =    102.406807     0.000000    -0.014830   102.391977
	    5 B(2,3,4)        =    102.406807     0.000000    -0.014830   102.391977
	    6 D(1,2,3,4)      =    119.181829     0.000001     0.064806   119.246635
	    7 *R(1,X)         =      0.900000     0.000000    -0.000000     0.900000
	    8 *R(1,Y)         =      0.800000    -0.000000    -0.000000     0.800000
	    9 *R(1,Z)         =      0.500000     0.000000     0.000000     0.500000
	   10 *R(4,X)         =     -0.900000     0.000000     0.000000    -0.900000
	   11 *R(4,Y)         =     -0.800000     0.000000     0.000000    -0.800000
	   12 *R(4,Z)         =      0.500000     0.000000     0.000000     0.500000
	 ---------------------------------------------------------------------------

  ==> Convergence Check <==

  Measures of convergence in internal coordinates in au.
  Criteria marked as inactive (o), active & met (*), and active & unmet ( ).
  ---------------------------------------------------------------------------------------------
   Step     Total Energy     Delta E     MAX Force     RMS Force      MAX Disp      RMS Disp   
  ---------------------------------------------------------------------------------------------
    Convergence Criteria    1.00e-06 *    3.00e-04 *             o    1.20e-03 *             o
  ---------------------------------------------------------------------------------------------
      5    -150.78664910   -7.60e-07 *    3.88e-05 *    2.02e-05 o    1.13e-03 *    3.48e-04 o  ~
  ---------------------------------------------------------------------------------------------


  **** Optimization is complete! (in 5 steps) ****

  ==> Optimization Summary <==

  Measures of convergence in internal coordinates in au.
  --------------------------------------------------------------------------------------------------------------- ~
   Step         Total Energy             Delta E       MAX Force       RMS Force        MAX Disp        RMS Disp  ~
  --------------------------------------------------------------------------------------------------------------- ~
      1    -150.769562686654   -150.769562686654      0.07166510      0.03346569      0.17345482      0.09384683  ~
      2    -150.786199001578     -0.016636314924      0.01404987      0.00573791      0.06516444      0.02233071  ~
      3    -150.786633467829     -0.000434466251      0.00190424      0.00088427      0.00634843      0.00301197  ~
      4    -150.786648343781     -0.000014875953      0.00040035      0.00020127      0.00593179      0.00184647  ~
      5    -150.786649103968     -0.000000760187      0.00003878      0.00002018      0.00113108      0.00034768  ~
[...]
	   Coordinate                Previous        Force       Change         New 
	   ----------                --------       ------       ------       ------
	    1 R(1,2)          =      0.948255    -0.000119    -0.000007     0.948249
	    2 R(2,3)          =      1.400000     0.000000     0.000000     1.400000
	    3 R(3,4)          =      0.948255    -0.000119    -0.000007     0.948249
	    4 B(1,2,3)        =    102.111076    -0.000002    -0.002988   102.108088
	    5 B(2,3,4)        =    102.111076    -0.000002    -0.002988   102.108088
	    6 D(1,2,3,4)      =    115.958760    -0.000000    -0.090014   115.868746
	    7 *R(2,X)         =     -0.000000    -0.000000    -0.000000    -0.000000
	    8 *R(2,Y)         =      0.700000    -0.000000     0.000000     0.700000
	    9 *R(2,Z)         =     -0.000000    -0.000000     0.000000     0.000000
	   10 *R(3,X)         =      0.000000    -0.000000     0.000000     0.000000
	   11 *R(3,Y)         =     -0.700000     0.000000    -0.000000    -0.700000
	   12 *R(3,Z)         =     -0.000000     0.000000    -0.000000    -0.000000
	 ---------------------------------------------------------------------------

  ==> Convergence Check <==

  Measures of convergence in internal coordinates in au.
  Criteria marked as inactive (o), active & met (*), and active & unmet ( ).
  ---------------------------------------------------------------------------------------------
   Step     Total Energy     Delta E     MAX Force     RMS Force      MAX Disp      RMS Disp   
  ---------------------------------------------------------------------------------------------
    Convergence Criteria    1.00e-06 *    3.00e-04 *             o    1.20e-03 *             o
  ---------------------------------------------------------------------------------------------
      7    -150.78663896   -1.53e-06      3.05e-05 *    1.43e-05 o    1.57e-03      4.54e-04 o  ~
  ---------------------------------------------------------------------------------------------

	Writing optimization data to binary file.
	Structure for next step:
	Cartesian Geometry (in Angstrom)
	    H     0.7857074564   0.8989013764   0.4922167602
	    O    -0.0000000000   0.7000000000  -0.0000000000
	    O     0.0000000000  -0.7000000000  -0.0000000000
	    H    -0.7857074564  -0.8989013764   0.4922167602
			--------------------------
			 OPTKING Finished Execution 
			--------------------------

    Structure for next step:
    Molecular point group: c2
    Full point group: C2

    Geometry (in Angstrom), charge = 0, multiplicity = 1:

    H            0.785707456439     0.898901376355     0.492216760244
    O           -0.000000000000     0.700000000000    -0.000000000000
    O            0.000000000000    -0.700000000000    -0.000000000000
    H           -0.785707456439    -0.898901376355     0.492216760244

gradient() will perform analytic gradient computation.

*** tstart() called on gimli.chem.bethel.edu
*** at Tue Jan 12 11:06:51 2016

    There are an even number of electrons - assuming singlet.
    Specify the multiplicity with the MULTP option in the
    input if this is incorrect


         ---------------------------------------------------------
                                   SCF
            by Justin Turney, Rob Parrish, and Andy Simmonett
                              RHF Reference
                        8 Threads,    256 MiB Core
         ---------------------------------------------------------

  ==> Geometry <==

    Molecular point group: c2
    Full point group: C2

    Geometry (in Angstrom), charge = 0, multiplicity = 1:

       Center              X                  Y                   Z               Mass       
    ------------   -----------------  -----------------  -----------------  -----------------
           H          0.785707456439     0.898901376355     0.492216760244     1.007825032070
           O         -0.000000000000     0.700000000000    -0.000000000000    15.994914619560
           O          0.000000000000    -0.700000000000    -0.000000000000    15.994914619560
           H         -0.785707456439    -0.898901376355     0.492216760244     1.007825032070

  Running in c2 symmetry.

  Rotational constants: A =     10.48712  B =      0.94086  C =      0.90886 [cm^-1]
  Rotational constants: A = 314396.01879  B =  28206.24130  C =  27247.02561 [MHz]
  Nuclear repulsion =   37.922451457699083

  Charge       = 0
  Multiplicity = 1
  Electrons    = 18
  Nalpha       = 9
  Nbeta        = 9

  ==> Algorithm <==

  SCF Algorithm Type is DF.
  DIIS enabled.
  MOM disabled.
  Fractional occupation disabled.
  Guess Type is READ.
  Energy threshold   = 1.00e-08
  Density threshold  = 1.00e-08
  Integral threshold = 0.00e+00

  ==> Primary Basis <==

  Basis Set: CC-PVDZ
    Number of shells: 18
    Number of basis function: 38
    Number of Cartesian functions: 40
    Spherical Harmonics?: true
    Max angular momentum: 2

  ==> Pre-Iterations <==

   -------------------------------------------------------
    Irrep   Nso     Nmo     Nalpha   Nbeta   Ndocc  Nsocc
   -------------------------------------------------------
     A         19      19       0       0       0       0
     B         19      19       0       0       0       0
   -------------------------------------------------------
    Total      38      38       9       9       9       0
   -------------------------------------------------------

 OEINTS: Overlap, kinetic, potential, dipole, and quadrupole integrals
         stored in file 35.

  ==> Integral Setup <==

  ==> DFJK: Density-Fitted J/K Matrices <==

    J tasked:                  Yes
    K tasked:                  Yes
    wK tasked:                  No
    OpenMP threads:              8
    Integrals threads:           8
    Memory (MB):               183
    Algorithm:                Core
    Integral Cache:           NONE
    Schwarz Cutoff:          1E-12
    Fitting Condition:       1E-12

   => Auxiliary Basis Set <=

  Basis Set: 
    Number of shells: 66
    Number of basis function: 186
    Number of Cartesian functions: 212
    Spherical Harmonics?: true
    Max angular momentum: 3

  Minimum eigenvalue in the overlap matrix is 2.2472212204E-02.
  Using Symmetric Orthogonalization.
  SCF Guess: Reading in previously saved MOs, projecting if necessary.

  Using orbitals from previous SCF, no projection.
  Recomputing DOCC and SOCC from number of alpha and beta electrons from previous calculation.
              A     B 
    DOCC [     5,    4 ]

  ==> Iterations <==

                           Total Energy        Delta E     RMS |[F,P]|

   @DF-RHF iter   0:  -150.78664155893304   -1.50787e+02   2.21658e-05 
   @DF-RHF iter   1:  -150.78663895102557    2.60791e-06   5.86811e-06 
   @DF-RHF iter   2:  -150.78663896982414   -1.87986e-08   2.06013e-06 DIIS
   @DF-RHF iter   3:  -150.78663897417772   -4.35358e-09   7.26117e-07 DIIS
   @DF-RHF iter   4:  -150.78663897484068   -6.62965e-10   1.48688e-07 DIIS
   @DF-RHF iter   5:  -150.78663897486808   -2.73985e-11   4.37020e-08 DIIS
   @DF-RHF iter   6:  -150.78663897486950   -1.42109e-12   2.10082e-08 DIIS
   @DF-RHF iter   7:  -150.78663897487024   -7.38964e-13   7.38990e-09 DIIS

  ==> Post-Iterations <==

    Orbital Energies (a.u.)
    -----------------------

    Doubly Occupied:                                                      

       1A    -20.617447     1B    -20.617115     2A     -1.494885  
       2B     -1.205169     3A     -0.721807     3B     -0.711543  
       4A     -0.614000     5A     -0.505873     4B     -0.467404  

    Virtual:                                                              

       6A      0.191910     5B      0.200091     6B      0.341993  
       7B      0.833794     7A      0.840681     8B      1.119308  
       8A      1.142204     9A      1.152798     9B      1.217456  
      10B      1.280305    10A      1.333010    11B      1.472924  
      11A      1.512675    12B      1.652728    12A      1.681567  
      13A      1.957126    13B      2.012876    14A      2.478026  
      14B      2.479148    15A      2.723411    16A      2.819047  
      15B      2.875204    17A      3.252981    16B      3.312237  
      17B      3.510854    18A      3.604673    18B      3.922525  
      19A      3.966689    19B      4.280386  

    Final Occupation by Irrep:
              A     B 
    DOCC [     5,    4 ]

  Energy converged.

  @DF-RHF Final Energy:  -150.78663897487024

   => Energetics <=

    Nuclear Repulsion Energy =             37.9224514576990828
    One-Electron Energy =                -283.5076934762437304
    Two-Electron Energy =                  94.7986030436743476
    DFT Exchange-Correlation Energy =       0.0000000000000000
    Empirical Dispersion Energy =           0.0000000000000000
    PCM Polarization Energy =               0.0000000000000000
    EFP Energy =                            0.0000000000000000
    Total Energy =                       -150.7866389748703000

    Alert: EFP and PCM quantities not currently incorporated into SCF psivars.

Properties will be evaluated at   0.000000,   0.000000,   0.000000 Bohr
  ==> Properties <==


Properties computed using the SCF density matrix

  Nuclear Dipole Moment: (a.u.)
     X:     0.0000      Y:     0.0000      Z:     1.8603

  Electronic Dipole Moment: (a.u.)
     X:     0.0000      Y:     0.0000      Z:    -1.1226

  Dipole Moment: (a.u.)
     X:     0.0000      Y:     0.0000      Z:     0.7377     Total:     0.7377

  Dipole Moment: (Debye)
     X:     0.0000      Y:     0.0000      Z:     1.8750     Total:     1.8750


  Saving occupied orbitals to File 180.

*** tstop() called on gimli.chem.bethel.edu at Tue Jan 12 11:06:51 2016
Module time:
	user time   =       0.73 seconds =       0.01 minutes
	system time =       0.01 seconds =       0.00 minutes
	total time  =          0 seconds =       0.00 minutes
Total time:
	user time   =      22.33 seconds =       0.37 minutes
	system time =       0.99 seconds =       0.02 minutes
	total time  =         16 seconds =       0.27 minutes

*** tstart() called on gimli.chem.bethel.edu
*** at Tue Jan 12 11:06:51 2016


         ------------------------------------------------------------
                                   SCF GRAD                          
                          Rob Parrish, Justin Turney,                
                       Andy Simmonett, and Alex Sokolov              
         ------------------------------------------------------------

  ==> Geometry <==

    Molecular point group: c2
    Full point group: C2

    Geometry (in Angstrom), charge = 0, multiplicity = 1:

       Center              X                  Y                   Z               Mass       
    ------------   -----------------  -----------------  -----------------  -----------------
           H          0.785707456439     0.898901376355     0.492216760244     1.007825032070
           O         -0.000000000000     0.700000000000    -0.000000000000    15.994914619560
           O          0.000000000000    -0.700000000000    -0.000000000000    15.994914619560
           H         -0.785707456439    -0.898901376355     0.492216760244     1.007825032070

  Nuclear repulsion =   37.922451457699076

  ==> Basis Set <==

  Basis Set: CC-PVDZ
    Number of shells: 18
    Number of basis function: 38
    Number of Cartesian functions: 40
    Spherical Harmonics?: true
    Max angular momentum: 2

  ==> DFJKGrad: Density-Fitted SCF Gradients <==

    Gradient:                    1
    J tasked:                  Yes
    K tasked:                  Yes
    wK tasked:                  No
    OpenMP threads:              8
    Integrals threads:           8
    Memory (MB):               183
    Schwarz Cutoff:          0E+00
    Fitting Condition:       1E-12

   => Auxiliary Basis Set <=

  Basis Set: 
    Number of shells: 66
    Number of basis function: 186
    Number of Cartesian functions: 212
    Spherical Harmonics?: true
    Max angular momentum: 3


  -Total Gradient:
     Atom            X                  Y                   Z
    ------   -----------------  -----------------  -----------------
       1        0.000002871590     0.000000542213     0.000002008371
       2       -0.000003079504     0.005113346573    -0.000002008371
       3        0.000003079498    -0.005113346576    -0.000002008368
       4       -0.000002871584    -0.000000542210     0.000002008368


*** tstop() called on gimli.chem.bethel.edu at Tue Jan 12 11:06:52 2016
Module time:
	user time   =       1.01 seconds =       0.02 minutes
	system time =       0.06 seconds =       0.00 minutes
	total time  =          1 seconds =       0.02 minutes
Total time:
	user time   =      23.35 seconds =       0.39 minutes
	system time =       1.05 seconds =       0.02 minutes
	total time  =         17 seconds =       0.28 minutes
CURRENT ENERGY: -150.7866389749

			-----------------------------------------
			 OPTKING 2.0: for geometry optimizations 
			  - R.A. King,  Bethel University        
			-----------------------------------------

	Previous internal coordinate definitions found.
	---Fragment 1 Geometry and Gradient---
	 H           1.4847719132        1.6986774218        0.9301548749
	 O          -0.0000000000        1.3228082930       -0.0000000000
	 O           0.0000000000       -1.3228082930       -0.0000000000
	 H          -1.4847719132       -1.6986774218        0.9301548749
	             0.0000028716        0.0000005422        0.0000020084
	            -0.0000030795        0.0051133466       -0.0000020084
	             0.0000030795       -0.0051133466       -0.0000020084
	            -0.0000028716       -0.0000005422        0.0000020084

	---Fragment 1 Intrafragment Coordinates---
	 - Coordinate -           - BOHR/RAD -       - ANG/DEG -
	 R(1,2)           =         1.791930	       0.948249
	 R(2,3)           =         2.645617	       1.400000
	 R(3,4)           =         1.791930	       0.948249
	 B(1,2,3)         =         1.782122	     102.108088
	 B(2,3,4)         =         1.782122	     102.108088
	 D(1,2,3,4)       =         2.022291	     115.868746
	*R(2,X)           =        -0.000000	      -0.000000
	*R(2,Y)           =         1.322808	       0.700000
	*R(2,Z)           =        -0.000000	      -0.000000
	*R(3,X)           =         0.000000	       0.000000
	*R(3,Y)           =        -1.322808	      -0.700000
	*R(3,Z)           =        -0.000000	      -0.000000

	Current energy   :      -150.7866389749

	Energy change for the previous step:
		Projected    :        -0.0000000256
		Actual       :        -0.0000000126

	Performing BFGS update.
	Previous computed or guess Hessian on step 1.
	Denominators (dg)(dq) or (dq)(dq) are very small.
	 Skipping Hessian update for step 7.
	Steps to be used in Hessian update: 6 5
	Taking RFO optimization step.
	Going to follow RFO solution 1.
	Using RFO vector 1.
	Norm of target step-size    0.00004
	Projected energy change by RFO approximation:        -0.0000000001

	Back-transformation to cartesian coordinates...
	Successfully converged to displaced geometry.

	Back-transformation to cartesian coordinates to adjust frozen coordinates...
	Successfully converged to displaced geometry.

	--- Internal Coordinate Step in ANG or DEG, aJ/ANG or AJ/DEG ---
	 ---------------------------------------------------------------------------
	   Coordinate                Previous        Force       Change         New 
	   ----------                --------       ------       ------       ------
	    1 R(1,2)          =      0.948249    -0.000029    -0.000003     0.948245
	    2 R(2,3)          =      1.400000     0.000000     0.000000     1.400000
	    3 R(3,4)          =      0.948249    -0.000029    -0.000003     0.948245
	    4 B(1,2,3)        =    102.108088     0.000000     0.000008   102.108096
	    5 B(2,3,4)        =    102.108088     0.000000     0.000008   102.108096
	    6 D(1,2,3,4)      =    115.868746     0.000000     0.002427   115.871173
	    7 *R(2,X)         =     -0.000000    -0.000000    -0.000000    -0.000000
	    8 *R(2,Y)         =      0.700000    -0.000000     0.000000     0.700000
	    9 *R(2,Z)         =     -0.000000     0.000000    -0.000000    -0.000000
	   10 *R(3,X)         =      0.000000     0.000000     0.000000     0.000000
	   11 *R(3,Y)         =     -0.700000    -0.000000    -0.000000    -0.700000
	   12 *R(3,Z)         =     -0.000000    -0.000000     0.000000    -0.000000
	 ---------------------------------------------------------------------------

  ==> Convergence Check <==

  Measures of convergence in internal coordinates in au.
  Criteria marked as inactive (o), active & met (*), and active & unmet ( ).
  ---------------------------------------------------------------------------------------------
   Step     Total Energy     Delta E     MAX Force     RMS Force      MAX Disp      RMS Disp   
  ---------------------------------------------------------------------------------------------
    Convergence Criteria    1.00e-06 *    3.00e-04 *             o    1.20e-03 *             o
  ---------------------------------------------------------------------------------------------
      8    -150.78663897   -1.26e-08 *    3.54e-06 *    1.45e-06 o    4.24e-05 *    1.25e-05 o  ~
  ---------------------------------------------------------------------------------------------


  **** Optimization is complete! (in 8 steps) ****

  ==> Optimization Summary <==

  Measures of convergence in internal coordinates in au.
  --------------------------------------------------------------------------------------------------------------- ~
   Step         Total Energy             Delta E       MAX Force       RMS Force        MAX Disp        RMS Disp  ~
  --------------------------------------------------------------------------------------------------------------- ~
      1    -150.769562686654   -150.769562686654      0.07440016      0.03322963      0.16892107      0.09597255  ~
      2    -150.785599189530     -0.016036502876      0.01667551      0.00683329      0.31663636      0.09595694  ~
      3    -150.786184483767     -0.000585294237      0.00971740      0.00477879      0.11900025      0.03608632  ~
      4    -150.786601891939     -0.000417408172      0.00301102      0.00124206      0.12404049      0.03608443  ~
      5    -150.786622521524     -0.000020629585      0.00143342      0.00072477      0.03026210      0.00902110  ~
      6    -150.786637432931     -0.000014911407      0.00015650      0.00005602      0.01848354      0.00533941  ~
      7    -150.786638962293     -0.000001529362      0.00003046      0.00001434      0.00157105      0.00045405  ~
      8    -150.786638974870     -0.000000012577      0.00000354      0.00000145      0.00004237      0.00001249  ~
  --------------------------------------------------------------------------------------------------------------- ~

	Writing optimization data to binary file.
	Final energy is   -150.7866389748702
	Final (previous) structure:
	Cartesian Geometry (in Angstrom)
	    H     0.7857074564   0.8989013764   0.4922167602
	    O    -0.0000000000   0.7000000000  -0.0000000000
	    O     0.0000000000  -0.7000000000  -0.0000000000
	    H    -0.7857074564  -0.8989013764   0.4922167602
	Saving final (previous) structure.
			--------------------------
			 OPTKING Finished Execution 
			--------------------------

    Final optimized geometry and variables:
    Molecular point group: c2
    Full point group: C2

    Geometry (in Angstrom), charge = 0, multiplicity = 1:

    H            0.785707456439     0.898901376355     0.492216760244
    O           -0.000000000000     0.700000000000    -0.000000000000
    O            0.000000000000    -0.700000000000    -0.000000000000
    H           -0.785707456439    -0.898901376355     0.492216760244

	Cleaning optimization helper files.

*** PSI4 exiting successfully. Buy a developer a beer!
