                  Welcome to Q-Chem
     A Quantum Leap Into The Future Of Chemistry

 Y. Shao, L. Fusti-Molnar, Y. Jung, J. Kussmann, C. Ochsenfeld, S. T. Brown, 
 A. T. B. Gilbert, L. V. Slipchenko, S. V. Levchenko, D. P. O'Neill, 
 R. A. DiStasio Jr., R. C. Lochan, T. Wang, G. J. O. Beran, N. A. Besley, 
 J. M. Herbert, C. Y. Lin, T. Van Voorhis, S. H. Chien, A. Sodt, R. P. Steele, 
 V. A. Rassolov, P. E. Maslen, P. P. Korambath, R. D. Adamson, B. Austin, 
 J. Baker, E. F. C. Byrd, H. Dachsel, R. J. Doerksen, A. Dreuw, B. D. Dunietz, 
 A. D. Dutoi, T. R. Furlani, S. R. Gwaltney, A. Heyden, S. Hirata, C.-P. Hsu, 
 G. Kedziora, R. Z. Khaliullin, P. Klunzinger, A. M. Lee, M. S. Lee, W. Liang, 
 I. Lotan, N. Nair, B. Peters, E. I. Proynov, P. A. Pieniazek, Y. M. Rhee, 
 J. Ritchie, E. Rosta, C. D. Sherrill, A. C. Simmonett, J. E. Subotnik, 
 H. L. Woodcock III, W. Zhang, A. T. Bell, A. K. Chakraborty, D. M. Chipman, 
 F. J. Keil, A. Warshel, W. J. Hehre, H. F. Schaefer III, J. Kong, 
 A. I. Krylov, P. M. W. Gill, M. Head-Gordon

 Additional authors for Version 3.1: 
 Z. Gan, Y. Zhao, N. E. Schultz, D. Truhlar, E. Epifanovsky, M. Oana

 Additional authors for Version 3.2: 
 R. Baer, B. R. Brooks, D. Casanova, J.-D. Chai, C.-L. Cheng, C. Cramer, 
 D. Crittenden, A. Ghysels, G. Hawkins, E. G. Hohenstein, C. Kelley, 
 W. Kurlancheek, D. Liotard, E. Livshits, P. Manohar, A. Marenich, 
 D. Neuhauser, R. Olson, M. A. Rohrdanz, K. S. Thanthiriwatte, A. J. W. Thom, 
 V. Vanovschi, C. F. Williams, Q. Wu, Z.-Q. You

 Additional authors for Version 4.0: 
 A. Aspuru-Guzik, Y. Bernard, C. Chang, J. Deng, A. Dreuw, M. Diedenhofen, 
 R. G. Edgar, D. Ghosh, W. A. Goddard III, M. Goldey, L. D. Jacobson, 
 M. Gordon, B. Kaduk, I. Kaliman, K. Khistyaev, R. King, A. Klamt, 
 D. Kosenkov, T. Kus, D. Lambrecht, A. Landau, A. W. Lange, K. Lawler, F. Liu, 
 J. Liu, R. Olivares-Amaya, S. P. Mao, J. Parkhill, N. Russ, M. Schmidt, 
 N. Shenvi, D. Small, Y. C. Su, E. Sundstrom, L. Vogt, O. Vydrov, M. Watson, 
 M. Wormit, X. Xu, S. Yeganeh, I. Y. Zhang, D. Zuev

 Additional authors for Version 4.1: 
 X. Feng, M. W. D. Hanson-Heine, P. Horn, H. Ji, A. Laurent, R. Peverati, 
 N. Mardirossian, N. Sergueev, S. Sharada, P. Zimmerman


 Q-Chem, Version 4.1, Q-Chem, Inc., Pittsburgh, PA (2013).

 MAC (Intel) OSX Version 4.1.1

 Q-chem begins on Mon Nov 17 12:45:53 2014  

QuickSilver.local
Host: 0

     Scratch files written to /tmp1/andysim/qchem94546//
 Nov1314 |Users|andysim|programming -1

--------------------------------------------------------------
EFP input options:
--------------------------------------------------------------

EFP_FRAGMENTS_ONLY = 0 : QM/EFP job
FEFP_EFP = 0 : FEFP_EFP is disabled
FEFP_QM = 0 : FEFP_QM is disabled

EFP fragment - fragment interactions:

EFP_ELEC  = 1 : electrostatics is enabled
EFP_POL   = 1 : polarization is enabled
EFP_EXREP = 1 : exchange-repulsion is enabled
EFP_DISP  = 1 : dispersion is enabled

QM/EFP interactions:

EFP_QM_ELEC  = 1 : electrostatics is enabled
EFP_QM_POL   = 1 : polarization is enabled
EFP_QM_EXREP = 0 : exchange-repulsion is disabled
EFP_QM_DISP  = 0 : dispersion is disabled

EFP/EFP screening: 

EFP_ELEC_DAMP = 2 : electrostatic damping  using exponential formula for charges only if screening parameters are provided in the EFP input.
EFP_DISP_DAMP = 1 : dispersion damping  using Tang-Toennies damping, with a fixed parameter b=1.5.

QM/EFP screening: 

EFP_QM_ELEC_DAMP = 0 : electrostatic damping is disabled

--------------------------------------------------------------

Now the induced dipoles have been set to zero
 EFP polarizabilities initialized 4
Finally everything over in PARseQInput

--------------------------------------------------------------
User input:
--------------------------------------------------------------
$comment
QM/MM computation of one water molecule in QM part and
one water + two ammonia molecules in EFP part.
$end

$molecule
0 1
O1   0 0 0.118720
H2   -0.753299, 0.0, -0.474880
H3   0.753299, 0.0, -0.474880
$end

$rem
exchange hf
basis 6-31G(d)
jobtype sp
purecart 2222
efp_use_efpman2 0
scf_guess core
mem_total 1024
THRESH             12
SCF_CONVERGENCE    10
$end

$efp_fragments
H2O -2.12417561  1.22597097 -0.95332054 -2.902133 1.734999 -1.953647
$end
$comment
NH3  1.04358758  1.90477190  2.88279926 -1.105309 2.033306 -1.488582
NH3 -4.16795656 -0.98129149 -1.27785935  2.526442 1.658262 -2.742084
$end

$efp_params
fragment H2O
O 0.0000000000 0.0630300262 0.0000000000
H -0.7526519592 -0.5001659990 0.0000000000
H 0.7526519592 -0.5001659990 0.0000000000
mult 0.0000000000 0.0630300262 0.0000000000
8.0
mult -0.7526519592 -0.5001659990 0.0000000000
1.0
mult 0.7526519592 -0.5001659990 0.0000000000
1.0
mult 0.0000000000 0.0630300262 0.0000000000
cdamp 1.9953003930 
-8.4173680991
0.0000000000 -0.4127062480 0.0000000000
-3.7495006512 -4.1291495807 -4.6378678881 0.0000000000 0.0000000000 0.0000000000
0.0000000000 -1.0017712994 0.0000000000 -0.3012532793 0.0000000000 0.0000000000 0.0000000000 0.0000000000 -0.3304258976 0.0000000000
mult -0.7526519592 -0.5001659990 0.0000000000
cdamp 2.3431648880 
-0.3512187169
-0.0027268078 -0.0014022974 0.0000000000
-0.1692608571 -0.1690206886 -0.1691689065 0.0000353147 0.0000000000 0.0000000000
-0.0011623499 -0.0005685770 0.0000000000 -0.0001715688 0.0000000000 -0.0003501195 0.0000000000 -0.0003998870 -0.0002082332 0.0000000000
mult 0.7526519592 -0.5001659990 0.0000000000
cdamp 2.3448807010 
-0.3512187169
0.0027268078 -0.0014022974 0.0000000000
-0.1692608571 -0.1690206886 -0.1691689065 -0.0000353147 0.0000000000 0.0000000000
0.0011623499 -0.0005685770 0.0000000000 -0.0001715688 0.0000000000 0.0003501195 0.0000000000 0.0003998870 -0.0002082332 0.0000000000
mult -0.3763259796 -0.2185679864 0.0000000000
cdamp 3.2250577620 
-0.4400972335
0.2657818726 0.2358863756 0.0000000000
-0.1924885465 -0.1846098691 -0.1848031216 -0.0092326484 0.0000000000 0.0000000000
0.6405629452 0.5638506515 0.0000000000 0.2088443825 0.0000000000 0.2236371522 0.0000000000 0.2011226630 0.1831196699 0.0000000000
mult 0.3763259796 -0.2185679864 0.0000000000
cdamp 3.2165055970 
-0.4400972335
-0.2657818726 0.2358863756 0.0000000000
-0.1924885465 -0.1846098691 -0.1848031216 0.0092326484 0.0000000000 0.0000000000
-0.6405629452 0.5638506515 0.0000000000 0.2088443825 0.0000000000 -0.2236371522 0.0000000000 -0.2011226630 0.1831196699 0.0000000000
pol -0.3964262905 -0.2587872427 0.0000000011
2.6629294234 1.7670590537 0.7812922107 1.2832534969 -0.0000000037 -0.0000000033 1.1482095947 -0.0000000144 -0.0000000132
pol 0.3964262902 -0.2587872428 0.0000000021
2.6629294254 1.7670590567 0.7812922113 -1.2832535009 0.0000000076 -0.0000000067 -1.1482095971 0.0000000195 -0.0000000177
pol 0.0000000006 0.2059639203 -0.2623653463
1.4502428775 1.8574126776 2.7113709049 0.0000000046 -0.0000000029 -0.9972382204 0.0000000048 -0.0000000034 -1.0913249895
pol -0.0000000003 0.2059639241 0.2623653431
1.4502428978 1.8574127185 2.7113708742 -0.0000000023 -0.0000000009 0.9972382303 -0.0000000024 -0.0000000017 1.0913250020
disp -0.3964262905 -0.2587872427 0.0000000011
1.7370179214 1.7362633410 1.7318592752 1.7166131112 1.6750638554 1.5779842441 1.3831194658 1.0599413542 0.6397488823 0.2539854382 0.0498541608 0.0019032192 
disp 0.3964262902 -0.2587872428 0.0000000021
1.7370179227 1.7362633423 1.7318592765 1.7166131125 1.6750638566 1.5779842451 1.3831194667 1.0599413548 0.6397488826 0.2539854384 0.0498541608 0.0019032192 
disp 0.0000000006 0.2059639203 -0.2623653463
2.0063440537 2.0050769280 1.9977082860 1.9725427951 1.9064357400 1.7634043503 1.5082994239 1.1327201532 0.6754237484 0.2656524024 0.0527895323 0.0020694410 
disp -0.0000000003 0.2059639241 0.2623653431
2.0063440613 2.0050769357 1.9977082936 1.9725428026 1.9064357473 1.7634043569 1.5082994292 1.1327201566 0.6754237500 0.2656524029 0.0527895324 0.0020694410 
er_basis 6-311++G(3df,2p)
er_wavefunction
1 -5.05028060E-02  -8.96007592E-02  -1.64436933E-01  -1.25432643E-01   9.01096238E-10 
1  2.38840429E-01  -2.44752246E-01  -1.90392291E-01   1.34642888E-09   1.16480804E-01 
1 -1.11251074E-01  -1.20577903E-01   1.27933818E-09  -1.95806755E-02  -7.04029141E-03 
1 -1.78887586E-02   2.39862309E-10  -3.65025450E-03   2.26173348E-03  -3.53828179E-03 
1  0.00000000E+00  -3.31913265E-12  -4.95391577E-03  -8.02974463E-03   1.92649506E-02 
1 -4.28815901E-03   0.00000000E+00  -4.11201623E-11  -2.10687637E-02  -3.37543102E-02 
1 -6.58581935E-03  -1.26128911E-02   0.00000000E+00  -7.36703284E-11  -2.30393466E-02 
1 -6.29053161E-03  -3.98317166E-03  -1.45518639E-03  -3.48327085E-03   2.84620798E-11 
1  0.00000000E+00   1.78139485E-11   1.35760624E-03   1.12938441E-03   4.43128321E-12 
1  1.93015410E-01   2.99444779E-01   6.61631627E-02  -1.09251953E-03   1.46234603E-02 
1  1.01069903E-02   3.76705059E-11   4.45010740E-02   3.16758830E-02   6.51568662E-11 
1 -1.61847713E-02  -5.85492715E-02  -1.88699889E-02   6.06526658E-04  -4.65363673E-03 
1 -5.02423910E-03   3.76705059E-11   1.60223811E-03  -1.43807194E-02   6.51568662E-11 
2  5.05028059E-02   8.96007591E-02  -1.64436933E-01   1.25432643E-01  -1.85007287E-09 
2 -2.38840429E-01  -2.44752246E-01   1.90392291E-01  -2.76440123E-09  -1.16480803E-01 
2 -1.11251074E-01   1.20577903E-01  -2.62665491E-09   1.95806756E-02  -7.04029141E-03 
2  1.78887586E-02  -4.92469874E-10   3.65025449E-03   2.26173348E-03   3.53828178E-03 
2  0.00000000E+00   6.81462978E-12   4.95391577E-03   8.02974461E-03   1.92649506E-02 
2  4.28815897E-03   0.00000000E+00   8.44252738E-11   2.10687637E-02   3.37543101E-02 
2 -6.58581934E-03   1.26128911E-02   0.00000000E+00   1.51255182E-10   2.30393465E-02 
2 -6.29053161E-03   3.98317167E-03  -1.45518639E-03   3.48327086E-03  -5.84365126E-11 
2  0.00000000E+00  -3.65744540E-11   1.35760624E-03  -1.12938441E-03  -9.09802582E-12 
2  1.61847712E-02   5.85492712E-02   1.88699888E-02  -6.06526660E-04  -4.65363674E-03 
2  5.02423910E-03  -7.73426611E-11   1.60223805E-03   1.43807194E-02  -1.33775889E-10 
2 -1.93015410E-01  -2.99444780E-01  -6.61631627E-02   1.09251953E-03   1.46234603E-02 
2 -1.01069903E-02  -7.73426611E-11   4.45010740E-02  -3.16758830E-02  -1.33775889E-10 
3  6.62153318E-02   1.22074202E-01  -5.10009005E-10  -1.34345378E-01   2.04679123E-01 
3 -3.35198358E-01  -7.59110786E-10  -1.93873371E-01   3.05834018E-01  -4.87774285E-01 
3 -3.45050523E-10  -1.44841302E-01   2.90594729E-01  -6.88772451E-02  -2.18358002E-11 
3 -2.31502718E-02   5.44834226E-02   6.82923370E-03   7.01487445E-12   7.30106249E-03 
3  0.00000000E+00  -7.53922978E-04   6.05234724E-03   1.79601088E-02   5.97511648E-11 
3  2.91806393E-02   0.00000000E+00  -9.34022183E-03   1.92801504E-02   2.25167256E-02 
3 -2.04262334E-11   4.91504905E-02   0.00000000E+00  -1.67338155E-02   3.94697753E-02 
3 -1.95103844E-11  -1.08470720E-03  -4.51333012E-12  -4.04086307E-03   6.46500705E-03 
3  0.00000000E+00   4.04634179E-03   4.21068061E-12   1.83510168E-04   1.00654195E-03 
3  1.21565635E-02   8.11644374E-02   3.66828070E-02   1.22433872E-03   7.63402733E-04 
3 -4.93039362E-03   8.55665110E-03   1.94960866E-02   5.04822337E-03   1.48000288E-02 
3  1.21565629E-02   8.11644363E-02   3.66828068E-02   1.22433873E-03  -7.63402703E-04 
3 -4.93039367E-03   8.55665110E-03  -1.94960865E-02   5.04822323E-03   1.48000288E-02 
4  6.62153319E-02   1.22074202E-01   2.52388278E-10  -1.34345381E-01  -2.04679121E-01 
4 -3.35198358E-01   3.75661335E-10  -1.93873376E-01  -3.05834015E-01  -4.87774289E-01 
4  1.70755234E-10  -1.44841305E-01  -2.90594726E-01  -6.88772461E-02   1.08058876E-11 
4 -2.31502723E-02  -5.44834220E-02   6.82923373E-03  -3.47145259E-12   7.30106253E-03 
4  0.00000000E+00   7.53922970E-04   6.05234724E-03   1.79601088E-02  -2.95690731E-11 
4  2.91806396E-02   0.00000000E+00   9.34022173E-03   1.92801504E-02   2.25167254E-02 
4  1.01083350E-11   4.91504909E-02   0.00000000E+00   1.67338153E-02   3.94697755E-02 
4  9.65510855E-12  -1.08470726E-03   2.23351275E-12  -4.04086316E-03  -6.46500698E-03 
4  0.00000000E+00  -4.04634175E-03  -2.08374051E-12   1.83510185E-04  -1.00654193E-03 
4  1.21565643E-02   8.11644391E-02   3.66828076E-02   1.22433874E-03   7.63402849E-04 
4 -4.93039368E-03  -8.55665101E-03   1.94960870E-02   5.04822344E-03  -1.48000286E-02 
4  1.21565647E-02   8.11644397E-02   3.66828077E-02   1.22433873E-03  -7.63402864E-04 
4 -4.93039365E-03  -8.55665101E-03  -1.94960871E-02   5.04822351E-03  -1.48000286E-02 
er_fock_matrix
-0.9202084588 0.1883945642 -0.9202084584 0.1819831225 -0.1819831230
-0.6746177047 0.1819831210 -0.1819831205 -0.1633796667 -0.6746177035

er_lmos
-0.3964262905 -0.2587872427 0.0000000011
0.3964262902 -0.2587872428 0.0000000021
0.0000000006 0.2059639203 -0.2623653463
-0.0000000003 0.2059639241 0.2623653431
labels
A01O1 O 0.0000000000 0.0630300262 0.0000000000
A02H2 H -0.7526519592 -0.5001659990 0.0000000000
A03H3 H 0.7526519592 -0.5001659990 0.0000000000
fragment NH3
N 0.0000000000 0.0000000000 -0.0631774656
H -0.4667913138 -0.8085061803 0.2926031914
H -0.4667913074 0.8085061840 0.2926031914
H 0.9335825215 0.0000000000 0.2926032294
mult 0.0000000000 0.0000000000 -0.0631774656
7.0
mult -0.4667913138 -0.8085061803 0.2926031914
1.0
mult -0.4667913074 0.8085061840 0.2926031914
1.0
mult 0.9335825215 0.0000000000 0.2926032294
1.0
mult 0.0000000000 0.0000000000 -0.0631774656
cdamp 1.6384533840 
-6.6449324364
-0.0000000307 0.0000000005 0.8238262734
-3.5655228692 -3.5655228921 -4.6990856666 0.0000000007 0.0000000259 0.0000000009
-0.0441347524 0.0000000009 2.5095104451 0.0000000008 0.9039995065 0.0441346142 0.9039995000 -0.0000000311 0.0000000009 0.0000000002
mult -0.4667913138 -0.8085061803 0.2926031914
cdamp 2.3610462260 
-0.6086717606
-0.0354570447 -0.0614133945 0.0085447729
-0.3615717478 -0.3623324771 -0.3644565695 -0.0006588110 -0.0032104756 -0.0055607072
-0.0586056886 -0.1005168638 -0.0088276318 -0.0335056212 -0.0040551505 -0.0187722391 -0.0055830635 -0.0194887561 -0.0337555112 -0.0013232116
mult -0.4667913074 0.8085061840 0.2926031914
cdamp 2.3610380490 
-0.6086717614
-0.0354570442 0.0614133949 0.0085447730
-0.3615717485 -0.3623324778 -0.3644565702 0.0006588110 -0.0032104756 0.0055607072
-0.0586056877 0.1005168644 -0.0088276317 0.0335056214 -0.0040551505 -0.0187722388 -0.0055830635 -0.0194887558 0.0337555114 0.0013232116
mult 0.9335825215 0.0000000000 0.2926032294
cdamp 2.1889210790 
-0.6086717517
0.0709140813 0.0000000001 0.0085447745
-0.3627128297 -0.3611913697 -0.3644565553 0.0000000000 0.0064209516 0.0000000000
0.1154946370 0.0000000001 -0.0088276307 0.0000000000 -0.0063470197 0.0392612025 -0.0032911935 0.0389775074 0.0000000000 0.0000000000
mult -0.2333956569 -0.4042530902 0.1147128629
cdamp 10.0000000000 
-0.5096840942
0.1491195192 0.2582825851 -0.1701222687
-0.2621192678 -0.2327947160 -0.3137355944 0.0253958115 -0.0095309739 -0.0165081327
0.4494657036 0.7938380938 -0.5248487871 0.2646126991 -0.1747825688 0.1616311276 -0.1805281162 0.1494813753 0.2589093442 -0.0049757905
mult -0.2333956537 0.4042530920 0.1147128629
cdamp 10.0000000000 
-0.5096840935
0.1491195189 -0.2582825864 -0.1701222683
-0.2621192673 -0.2327947148 -0.3137355936 -0.0253958114 -0.0095309739 0.0165081329
0.4494657037 -0.7938380979 -0.5248487838 -0.2646127003 -0.1747825676 0.1616311277 -0.1805281151 0.1494813753 -0.2589093455 0.0049757904
mult 0.4667912607 0.0000000000 0.1147128819
cdamp 10.0000000000 
-0.5096841021
-0.2982390205 0.0000000012 -0.1701222947
-0.2181324437 -0.2767815519 -0.3137355960 0.0000000000 0.0190619546 -0.0000000001
-0.9255021073 0.0000000043 -0.5248488855 0.0000000015 -0.1834009247 -0.2966914772 -0.1719098276 -0.2989627322 0.0000000014 0.0000000000
pol -0.2778918474 -0.4813227572 0.1726103417
2.1998617706 3.6186399671 1.6907027672 1.2286117581 -0.5999455800 -1.0390957328 1.2286810814 -0.5197672535 -0.9002568524
pol 0.5557836403 -0.0000000006 0.1726103694
4.3279192391 1.4905404427 1.6907028567 0.0000023009 1.1999151563 0.0000399911 0.0000997249 1.0395289942 -0.0000031988
pol -0.2778918432 0.4813227597 0.1726103400
2.1998587983 3.6185729021 1.6907027645 -1.2286021977 -0.5999429308 1.0390557848 -1.2285980104 -0.5197617151 0.9002600542
pol 0.0000000104 -0.0000000004 -0.3996571210
2.9058878661 2.9056968381 7.2806674938 -0.0000069845 -0.0000030096 0.0000000072 -0.0000095214 -0.0000001528 0.0000000113
disp -0.2778918474 -0.4813227572 0.1726103417
2.5029328180 2.5016291538 2.4940294931 2.4678330498 2.3971764240 2.2348973055 1.9159130414 1.4034423214 0.7837969428 0.2845853361 0.0521975589 0.0019210848 
disp 0.5557836403 -0.0000000006 0.1726103694
2.5029327368 2.5016290727 2.4940294126 2.4678329712 2.3971763503 2.2348972422 1.9159129955 1.4034422960 0.7837969336 0.2845853345 0.0521975588 0.0019210848 
disp -0.2778918432 0.4813227597 0.1726103400
2.5029328263 2.5016291622 2.4940295014 2.4678330581 2.3971764321 2.2348973129 1.9159130478 1.4034423261 0.7837969454 0.2845853370 0.0521975590 0.0019210848 
disp 0.0000000104 -0.0000000004 -0.3996571210
4.3642187574 4.3589892310 4.3287457378 4.2275290658 3.9753122615 3.4829921151 2.7280048599 1.8049135613 0.9174118095 0.3132941542 0.0568950396 0.0021203641 
er_basis 6-311++G(3df,2p)
er_wavefunction
1 -5.16168414E-02  -9.03966786E-02  -8.62686461E-02  -1.49421671E-01   6.73654870E-02 
1  2.32640095E-01  -1.30186262E-01  -2.25489209E-01   1.05149038E-01   1.58041223E-01 
1 -8.02681828E-02  -1.39028571E-01   8.08305120E-02   1.54846723E-02  -3.97290324E-03 
1 -6.88126985E-03   1.97781192E-02  -5.00384927E-03   2.30785458E-03  -2.69599511E-03 
1 -1.29371713E-03  -2.24078354E-03  -4.32747062E-03  -1.46271805E-02   1.24184443E-02 
1 -2.20873954E-03  -9.50762790E-03  -1.64676929E-02  -1.09368266E-02  -2.01100216E-02 
1  2.15258801E-04  -1.98947632E-02  -5.25569009E-03  -9.10312207E-03  -1.14082295E-02 
1 -1.29773656E-03  -2.04142421E-03  -2.97337020E-03  -4.56476227E-03   2.46945207E-03 
1  7.18388606E-04   3.18784017E-03   6.00681447E-04   1.04041030E-03  -9.11659992E-04 
1  1.92913270E-01   2.68419337E-01   7.51818153E-02   3.84816634E-04   6.90542221E-03 
1  1.19605403E-02  -4.57009292E-03   1.33154826E-02   2.30630900E-02  -8.22492813E-03 
1 -1.25262144E-02  -3.75683524E-02  -2.70695842E-02  -2.82363073E-03  -2.75999035E-03 
1 -4.07496680E-03   2.25477362E-03  -7.06884302E-03  -3.30744943E-03   6.70329016E-03 
1 -1.25262163E-02  -3.75683536E-02  -2.70695812E-02  -2.82363050E-03  -2.14902922E-03 
1 -4.42770513E-03   2.25477383E-03   6.70086638E-04  -7.77552154E-03   6.70329036E-03 
2  5.16168425E-02   9.03966807E-02  -1.72537282E-01   4.81512760E-10  -6.73654980E-02 
2 -2.32640101E-01  -2.60372508E-01   7.12314383E-10  -1.05149055E-01  -1.58041231E-01 
2 -1.60536356E-01   6.78464419E-10  -8.08305250E-02  -1.54846747E-02  -7.94580406E-03 
2  3.92141902E-11  -1.97781209E-02   1.54206808E-03   6.67366921E-12   6.15777691E-03 
2 -2.58743426E-03   4.93100538E-12   4.32747060E-03  -4.00048085E-03  -1.81175621E-11 
2  2.08364041E-02  -1.90152549E-02   2.29431658E-11   1.09368255E-02   1.97871362E-02 
2  1.76217307E-11   2.02176520E-02  -1.05113789E-02   4.61425144E-11   1.14082287E-02 
2 -6.60866348E-03   4.21003246E-12  -5.62478847E-04   3.01731213E-11  -3.54703508E-03 
2 -1.80274409E-11  -2.11025767E-03   1.20136246E-03   1.68764307E-12   9.11659977E-04 
2  1.25262170E-02   3.75683550E-02   2.70695824E-02   2.82363074E-03  -4.90901937E-03 
2  3.52738777E-04  -2.25477414E-03  -6.39875495E-03   4.46807366E-03  -6.70329063E-03 
2  1.25262170E-02   3.75683551E-02   2.70695827E-02   2.82363077E-03  -4.90901938E-03 
2 -3.52738725E-04  -2.25477414E-03  -6.39875503E-03  -4.46807363E-03  -6.70329065E-03 
2 -1.92913272E-01  -2.68419334E-01  -7.51818098E-02  -3.84816609E-04   1.38108431E-02 
2  2.23597342E-11   4.57009349E-03   2.66309616E-02   3.61810897E-12   8.22492900E-03 
3 -5.16168411E-02  -9.03966781E-02  -8.62686447E-02   1.49421673E-01   6.73654860E-02 
3  2.32640094E-01  -1.30186260E-01   2.25489212E-01   1.05149037E-01   1.58041222E-01 
3 -8.02681819E-02   1.39028572E-01   8.08305105E-02   1.54846721E-02  -3.97290324E-03 
3  6.88126995E-03   1.97781188E-02  -5.00384927E-03  -2.30785459E-03  -2.69599506E-03 
3 -1.29371711E-03   2.24078355E-03  -4.32747061E-03  -1.46271806E-02  -1.24184443E-02 
3 -2.20873932E-03  -9.50762773E-03   1.64676931E-02  -1.09368266E-02  -2.01100214E-02 
3 -2.15258809E-04  -1.98947630E-02  -5.25569005E-03   9.10312215E-03  -1.14082295E-02 
3 -1.29773657E-03   2.04142418E-03  -2.97337015E-03   4.56476235E-03   2.46945202E-03 
3 -7.18388592E-04   3.18784015E-03   6.00681424E-04  -1.04041031E-03  -9.11660001E-04 
3 -1.25262156E-02  -3.75683542E-02  -2.70695848E-02  -2.82363071E-03  -2.75999037E-03 
3  4.07496675E-03   2.25477362E-03  -7.06884309E-03   3.30744933E-03   6.70329019E-03 
3  1.92913271E-01   2.68419337E-01   7.51818157E-02   3.84816655E-04   6.90542211E-03 
3 -1.19605403E-02  -4.57009295E-03   1.33154825E-02  -2.30630901E-02  -8.22492821E-03 
3 -1.25262160E-02  -3.75683532E-02  -2.70695812E-02  -2.82363050E-03  -2.14902924E-03 
3  4.42770518E-03   2.25477378E-03   6.70086573E-04   7.77552164E-03   6.70329028E-03 
4 -6.58395641E-02  -1.17915197E-01   7.65222435E-09  -3.02027805E-10  -2.25392567E-01 
4  3.09874245E-01   1.11766732E-08  -4.51260586E-10  -3.27935060E-01   4.82772486E-01 
4  9.21922700E-09  -5.99072332E-11  -3.29997506E-01   4.92674001E-02   3.73483812E-09 
4 -5.96070775E-11  -9.03797431E-02  -4.90901023E-03   6.63315141E-12  -4.90901020E-03 
4  6.62159163E-11  -6.44037842E-12  -5.81235189E-03  -7.73328910E-03   3.21248982E-11 
4 -7.73328968E-03   1.01695287E-09  -3.51568995E-11  -3.09624753E-02  -2.43817200E-02 
4  3.93366148E-11  -2.43817219E-02   1.31143227E-09   1.17173353E-11  -5.82135142E-02 
4  2.45863895E-03  -1.63254212E-11  -3.29860992E-03   3.60166601E-11  -6.10849561E-03 
4 -1.47008396E-11  -6.10849541E-03  -3.82013956E-11   2.99030934E-12  -4.92927415E-03 
4 -6.28754927E-03  -5.53684768E-02  -1.38240969E-02  -3.54556692E-03  -4.94923502E-04 
4 -8.57232960E-04  -8.14357410E-03  -7.14544561E-03  -1.23762763E-02  -1.44751110E-02 
4 -6.28754965E-03  -5.53684775E-02  -1.38240971E-02  -3.54556679E-03  -4.94923515E-04 
4  8.57232985E-04  -8.14357408E-03  -7.14544566E-03   1.23762765E-02  -1.44751110E-02 
4 -6.28754820E-03  -5.53684767E-02  -1.38240972E-02  -3.54556837E-03   9.89847607E-04 
4 -1.27259490E-11  -8.14357427E-03   1.42908929E-02  -9.28680553E-11  -1.44751102E-02 
er_fock_matrix
-0.7788656494 0.1422818701 -0.7788656580 -0.1422818783 0.1422818701
-0.7788656479 -0.1333910398 0.1333910427 -0.1333910386 -0.5099993592

er_lmos
-0.2778918474 -0.4813227572 0.1726103417
0.5557836403 -0.0000000006 0.1726103694
-0.2778918432 0.4813227597 0.1726103400
0.0000000104 -0.0000000004 -0.3996571210
labels
A01N1 N 0.0000000000 0.0000000000 -0.0631774656
A02H2 H -0.4667913138 -0.8085061803 0.2926031914
A03H3 H -0.4667913074 0.8085061840 0.2926031914
A04H4 H 0.9335825215 0.0000000000 0.2926032294
$end

--------------------------------------------------------------
 ----------------------------------------------------
       Standard Nuclear Orientation (Angstroms)
    I     Atom         X            Y            Z
 ----------------------------------------------------
    1      O      -0.000000    -0.000000     0.118720
    2      H      -0.753299    -0.000000    -0.474880
    3      H       0.753299     0.000000    -0.474880
 ----------------------------------------------------
 Molecular Point Group                 C2v   NOp =  1
 Largest Abelian Subgroup              C2v   NOp =  1
 Nuclear Repulsion Energy =     9.1793879214 hartrees
 There are        5 alpha and        5 beta electrons

 Q-Chem warning in module /Users/andysim/programming/qchem/forms1/BasisType.C, line 1147:

 You are not using the predefined 5D/6D in this basis set.

 Requested basis set is 6-31G(d)
 There are 8 shells and 19 basis functions

Total QAlloc Memory Limit   1024 MB
Mega-Array Size        61 MB
MEM_STATIC part        62 MB

                       Distance Matrix (Angstroms)
             O (  1)   H (  2)
   H (  2)  0.959073
   H (  3)  0.959073  1.506598

 A cutoff of  1.0D-12 yielded     36 shell pairs
 There are       217 function pairs
 Smallest overlap matrix eigenvalue = 2.23E-02

  Scale SEOQF with 1.000000e+00/1.000000e+00/1.000000e+00

 Standard Electronic Orientation quadrupole field applied
 Nucleus-field energy     =    -0.0000000002 hartrees
 NEW_GEOM_ORIGIN
            1
    1   0.0000000
    2   0.0000000
    3   0.0000000
 QCHEM ORIENT_MATRIX
            1           2           3
    1   1.0000000   0.0000000   0.0000000
    2   0.0000000   1.0000000   0.0000000
    3   0.0000000   0.0000000   1.0000000

 Coordintates of atoms in the effective region (ANGSTROMS)

     O  -2.180061   1.208365  -0.976550
     H  -1.980913   1.409865  -0.080217
     H  -1.380492   1.321499  -1.457760

 NEW_GEOM_ORIGIN
            1
    1   0.0000000
    2   0.0000000
    3   0.0000000
NCycle 0
NCycle new Nfrag 0 1 3 
NCycle1 0
Check the number of atoms 3
Polarization::UpdateRepresentation
REL COM  -4.014109679030   2.316749517068  -1.801514536543 =
 Nuclear - Fragment Charge Energy      =   0.145410466733
 Nuclear - Fragment Dipole Energy      =   0.017470595420
 Nuclear - Fragment Quadrupole Energy  =  -0.025259680043
 Nuclear - Fragment Octupole Energy    =   0.001410098264
 Nuclear - Fragment Total Energy       =   0.139031480374
 Charge - Charge Energy                =   0.000000000000
 Charge - Dipole Energy                =   0.000000000000
 Charge - Quadrupole Energy            =   0.000000000000
 Charge - Octupole Energy              =   0.000000000000
 Dipole - Dipole Energy                =   0.000000000000
 Dipole - Quadrupole Energy            =   0.000000000000
 Quadrupole - Quadrupole Energy        =   0.000000000000
 Fragment - Fragment Total Energy      =   0.000000000000
 EFP Electrostatics Energy             =   0.139031480374
EFP Polarization Energy  0.000000000000
With multipoles electrostatic force on point 0  = -0.371729089789
With multipoles electrostatic force on point 1  = 0.256076531831
With multipoles electrostatic force on point 2  = -0.087282350610
With multipoles electrostatic force on point 3  = -0.316313282372
Induced dipole on0 R=(-3.87931321, 2.49732873, -0.93572925) 
 ID=(-0.37322499, 0.13426457, -0.33549805)
ID_=(-0.37886869, 0.13971251, -0.29547831) 

 EFP Polarization Energy Epol              =      -0.49092577
 EFP Polarization Energy EPol2             =      -0.49092577
Induced dipole on1 R=(-3.28169561, 2.40937522, -2.30683940) 
 ID=(-0.53257989, 0.15379841, -0.03074398)
ID_=(-0.50843690, 0.15407676, -0.06367072) 

 EFP Polarization Energy Epol              =      -0.49092577
 EFP Polarization Energy EPol2             =      -0.49092577
Induced dipole on2 R=(-4.24319816, 1.73285695, -1.86391062) 
 ID=(-0.40365834, 0.23344198, -0.17846608)
ID_=(-0.38910997, 0.27045368, -0.17449919) 

 EFP Polarization Energy Epol              =      -0.49092577
 EFP Polarization Energy EPol2             =      -0.49092577
Induced dipole on3 R=(-4.47521950, 2.68320288, -2.02600285) 
 ID=(-0.78754661, 0.66342927, -0.37844048)
ID_=(-0.80215737, 0.63694739, -0.38311003) 

 EFP Polarization Energy Epol              =      -0.49092577
 EFP Polarization Energy EPol2             =      -0.49092577
 EFP Polarization Energy EPol2             =  -0.490925766084
 Dispersion Energy is damped and multiplied by 4.0/3.0
 EFP Dispersion Energy                 =   0.000000000000
 Guess MOs from core Hamiltonian diagonalization
EFP Polarization Hamiltonian Calculation
EFP polarization integrals has been computed
 A restricted Hartree-Fock SCF calculation will be
 performed using Pulay DIIS extrapolation
 SCF converges when DIIS error is below 1.0E-10
EFP Polarization Hamiltonian Calculation
EFP polarization integrals has been computed
EFP Polarization Energy  -0.490925766084
Electrostatic force on point 0  = 0.360877896586
Electrostatic force on point 1  = 0.299160986908
Electrostatic force on point 2  = 0.333226117629
Electrostatic force on point 3  = 0.244590143872
With multipoles electrostatic force on point 0  = -0.010851193203
With multipoles electrostatic force on point 1  = 0.023659816876
With multipoles electrostatic force on point 2  = 0.019113537238
With multipoles electrostatic force on point 3  = -0.017152295463
Induced dipole on0 R=(-3.87931321, 2.49732873, -0.93572925) 
 ID=(-0.00080871, 0.02990630, 0.07091705)
ID_=(0.00218737, 0.03074980, 0.07157385) 

 EFP Polarization Energy Epol              =      -0.04566972
 EFP Polarization Energy EPol2             =      -0.02466249
Induced dipole on1 R=(-3.28169561, 2.40937522, -2.30683940) 
 ID=(-0.03647076, 0.02342297, 0.01532688)
ID_=(-0.03715257, 0.02305981, 0.01417368) 

 EFP Polarization Energy Epol              =      -0.04566972
 EFP Polarization Energy EPol2             =      -0.02466249
Induced dipole on2 R=(-4.24319816, 1.73285695, -1.86391062) 
 ID=(-0.02536959, 0.05429369, 0.01053481)
ID_=(-0.02344730, 0.05650889, 0.01123057) 

 EFP Polarization Energy Epol              =      -0.04566972
 EFP Polarization Energy EPol2             =      -0.02466249
Induced dipole on3 R=(-4.47521950, 2.68320288, -2.02600285) 
 ID=(-0.03982412, 0.04215347, -0.00386584)
ID_=(-0.04112733, 0.04131330, -0.00437997) 

 EFP Polarization Energy Epol              =      -0.04566972
 EFP Polarization Energy EPol2             =      -0.02466249
 ---------------------------------------
  Cycle       Energy         DIIS Error
 ---------------------------------------
    1     -68.0259686205      3.48E-01
EFP Polarization Hamiltonian Calculation
EFP polarization integrals has been computed
EFP Polarization Energy  -0.04566972
Electrostatic force on point 0  = 0.35787876
Electrostatic force on point 1  = 0.31842702
Electrostatic force on point 2  = 0.38046182
Electrostatic force on point 3  = 0.26313080
With multipoles electrostatic force on point 0  = -0.01385033
With multipoles electrostatic force on point 1  = -0.02126234
With multipoles electrostatic force on point 2  = -0.03874589
With multipoles electrostatic force on point 3  = 0.00211374
Induced dipole on0 R=(-3.87931321, 2.49732873, -0.93572925) 
 ID=(-0.03093363, -0.04145393, -0.14713005)
ID_=(-0.03641772, -0.04237249, -0.14466560) 

 EFP Polarization Energy Epol              =       0.02158823
 EFP Polarization Energy EPol2             =       0.00767161
Induced dipole on1 R=(-3.28169561, 2.40937522, -2.30683940) 
 ID=(0.02146075, -0.02783818, -0.03681583)
ID_=(0.02538625, -0.02703716, -0.03773845) 

 EFP Polarization Energy Epol              =       0.02158823
 EFP Polarization Energy EPol2             =       0.00767161
Induced dipole on2 R=(-4.24319816, 1.73285695, -1.86391062) 
 ID=(0.01136822, -0.08535124, -0.03433768)
ID_=(0.00892176, -0.08629429, -0.03534351) 

 EFP Polarization Energy Epol              =       0.02158823
 EFP Polarization Energy EPol2             =       0.00767161
Induced dipole on3 R=(-4.47521950, 2.68320288, -2.02600285) 
 ID=(0.02687269, -0.03943480, -0.01542912)
ID_=(0.02846297, -0.03947806, -0.01473320) 

 EFP Polarization Energy Epol              =       0.02158823
 EFP Polarization Energy EPol2             =       0.00767161
    2     -71.7824270776      2.52E-01
EFP Polarization Hamiltonian Calculation
EFP polarization integrals has been computed
EFP Polarization Energy  0.02158823
Electrostatic force on point 0  = 0.36692297
Electrostatic force on point 1  = 0.30688237
Electrostatic force on point 2  = 0.34563033
Electrostatic force on point 3  = 0.25022483
With multipoles electrostatic force on point 0  = -0.00480612
With multipoles electrostatic force on point 1  = 0.01273132
With multipoles electrostatic force on point 2  = 0.01222171
With multipoles electrostatic force on point 3  = -0.00943091
Induced dipole on0 R=(-3.87931321, 2.49732873, -0.93572925) 
 ID=(0.00132598, 0.01725059, 0.04509739)
ID_=(0.00318883, 0.01774288, 0.04531713) 

 EFP Polarization Energy Epol              =      -0.02394781
 EFP Polarization Energy EPol2             =      -0.01262885
Induced dipole on1 R=(-3.28169561, 2.40937522, -2.30683940) 
 ID=(-0.02187387, 0.01302139, 0.01129190)
ID_=(-0.02248497, 0.01276633, 0.01067126) 

 EFP Polarization Energy Epol              =      -0.02394781
 EFP Polarization Energy EPol2             =      -0.01262885
Induced dipole on2 R=(-4.24319816, 1.73285695, -1.86391062) 
 ID=(-0.01373400, 0.03129832, 0.00783654)
ID_=(-0.01265404, 0.03245822, 0.00823285) 

 EFP Polarization Energy Epol              =      -0.02394781
 EFP Polarization Energy EPol2             =      -0.01262885
Induced dipole on3 R=(-4.47521950, 2.68320288, -2.02600285) 
 ID=(-0.02079486, 0.02227937, -0.00014868)
ID_=(-0.02150234, 0.02188192, -0.00043155) 

 EFP Polarization Energy Epol              =      -0.02394781
 EFP Polarization Energy EPol2             =      -0.01262885
    3     -75.9052141432      6.48E-02
EFP Polarization Hamiltonian Calculation
EFP polarization integrals has been computed
EFP Polarization Energy  -0.02394781
Electrostatic force on point 0  = 0.36785592
Electrostatic force on point 1  = 0.30918859
Electrostatic force on point 2  = 0.34817349
Electrostatic force on point 3  = 0.25147718
With multipoles electrostatic force on point 0  = -0.00387317
With multipoles electrostatic force on point 1  = 0.01146454
With multipoles electrostatic force on point 2  = 0.00934354
With multipoles electrostatic force on point 3  = -0.00712470
Induced dipole on0 R=(-3.87931321, 2.49732873, -0.93572925) 
 ID=(0.00101805, 0.01472666, 0.03533780)
ID_=(0.00248042, 0.01510740, 0.03547683) 

 EFP Polarization Energy Epol              =      -0.02068289
 EFP Polarization Energy EPol2             =      -0.01080625
Induced dipole on1 R=(-3.28169561, 2.40937522, -2.30683940) 
 ID=(-0.01547391, 0.01144513, 0.00746671)
ID_=(-0.01591664, 0.01126722, 0.00705732) 

 EFP Polarization Energy Epol              =      -0.02068289
 EFP Polarization Energy EPol2             =      -0.01080625
Induced dipole on2 R=(-4.24319816, 1.73285695, -1.86391062) 
 ID=(-0.01101009, 0.02774211, 0.00544564)
ID_=(-0.01005754, 0.02873616, 0.00579706) 

 EFP Polarization Energy Epol              =      -0.02068289
 EFP Polarization Energy EPol2             =      -0.01080625
Induced dipole on3 R=(-4.47521950, 2.68320288, -2.02600285) 
 ID=(-0.01739955, 0.01931013, -0.00100066)
ID_=(-0.01802145, 0.01897829, -0.00125043) 

 EFP Polarization Energy Epol              =      -0.02068289
 EFP Polarization Energy EPol2             =      -0.01080625
    4     -76.0036892758      1.42E-02
EFP Polarization Hamiltonian Calculation
EFP polarization integrals has been computed
EFP Polarization Energy  -0.02068289
Electrostatic force on point 0  = 0.36757020
Electrostatic force on point 1  = 0.30957190
Electrostatic force on point 2  = 0.34815440
Electrostatic force on point 3  = 0.25149305
With multipoles electrostatic force on point 0  = -0.00415889
With multipoles electrostatic force on point 1  = 0.01202102
With multipoles electrostatic force on point 2  = 0.00833811
With multipoles electrostatic force on point 3  = -0.00674138
Induced dipole on0 R=(-3.87931321, 2.49732873, -0.93572925) 
 ID=(0.00041823, 0.01466366, 0.03217282)
ID_=(0.00176276, 0.01501894, 0.03233124) 

 EFP Polarization Energy Epol              =      -0.02166809
 EFP Polarization Energy EPol2             =      -0.01128559
Induced dipole on1 R=(-3.28169561, 2.40937522, -2.30683940) 
 ID=(-0.01341259, 0.01175479, 0.00548818)
ID_=(-0.01374305, 0.01161342, 0.00513239) 

 EFP Polarization Energy Epol              =      -0.02166809
 EFP Polarization Energy EPol2             =      -0.01128559
Induced dipole on2 R=(-4.24319816, 1.73285695, -1.86391062) 
 ID=(-0.01085159, 0.02828384, 0.00420923)
ID_=(-0.00987469, 0.02931327, 0.00456899) 

 EFP Polarization Energy Epol              =      -0.02166809
 EFP Polarization Energy EPol2             =      -0.01128559
Induced dipole on3 R=(-4.47521950, 2.68320288, -2.02600285) 
 ID=(-0.01783931, 0.02006394, -0.00214664)
ID_=(-0.01848361, 0.01970975, -0.00240475) 

 EFP Polarization Energy Epol              =      -0.02166809
 EFP Polarization Energy EPol2             =      -0.01128559
    5     -76.0169366017      2.13E-03
EFP Polarization Hamiltonian Calculation
EFP polarization integrals has been computed
EFP Polarization Energy  -0.02166809
Electrostatic force on point 0  = 0.36749402
Electrostatic force on point 1  = 0.30961449
Electrostatic force on point 2  = 0.34807164
Electrostatic force on point 3  = 0.25146835
With multipoles electrostatic force on point 0  = -0.00423507
With multipoles electrostatic force on point 1  = 0.01219310
With multipoles electrostatic force on point 2  = 0.00820795
With multipoles electrostatic force on point 3  = -0.00669879
Induced dipole on0 R=(-3.87931321, 2.49732873, -0.93572925) 
 ID=(0.00031325, 0.01474055, 0.03179876)
ID_=(0.00164473, 0.01509340, 0.03196161) 

 EFP Polarization Energy Epol              =      -0.02197010
 EFP Polarization Energy EPol2             =      -0.01143977
Induced dipole on1 R=(-3.28169561, 2.40937522, -2.30683940) 
 ID=(-0.01306343, 0.01189190, 0.00511848)
ID_=(-0.01337362, 0.01175711, 0.00477221) 

 EFP Polarization Energy Epol              =      -0.02197010
 EFP Polarization Energy EPol2             =      -0.01143977
Induced dipole on2 R=(-4.24319816, 1.73285695, -1.86391062) 
 ID=(-0.01088969, 0.02856931, 0.00400308)
ID_=(-0.00990190, 0.02961194, 0.00436674) 

 EFP Polarization Energy Epol              =      -0.02197010
 EFP Polarization Energy EPol2             =      -0.01143977
Induced dipole on3 R=(-4.47521950, 2.68320288, -2.02600285) 
 ID=(-0.01802314, 0.02032228, -0.00237591)
ID_=(-0.01867545, 0.01996193, -0.00263711) 

 EFP Polarization Energy Epol              =      -0.02197010
 EFP Polarization Energy EPol2             =      -0.01143977
    6     -76.0165254004      7.22E-04
EFP Polarization Hamiltonian Calculation
EFP polarization integrals has been computed
EFP Polarization Energy  -0.02197010
Electrostatic force on point 0  = 0.36743898
Electrostatic force on point 1  = 0.30959770
Electrostatic force on point 2  = 0.34798732
Electrostatic force on point 3  = 0.25143417
With multipoles electrostatic force on point 0  = -0.00429011
With multipoles electrostatic force on point 1  = 0.01230630
With multipoles electrostatic force on point 2  = 0.00818895
With multipoles electrostatic force on point 3  = -0.00671559
Induced dipole on0 R=(-3.87931321, 2.49732873, -0.93572925) 
 ID=(0.00026448, 0.01482534, 0.03177078)
ID_=(0.00159601, 0.01517880, 0.03193717) 

 EFP Polarization Energy Epol              =      -0.02218476
 EFP Polarization Energy EPol2             =      -0.01155164
Induced dipole on1 R=(-3.28169561, 2.40937522, -2.30683940) 
 ID=(-0.01299154, 0.01199037, 0.00499349)
ID_=(-0.01329426, 0.01185764, 0.00464864) 

 EFP Polarization Energy Epol              =      -0.02218476
 EFP Polarization Energy EPol2             =      -0.01155164
Induced dipole on2 R=(-4.24319816, 1.73285695, -1.86391062) 
 ID=(-0.01095159, 0.02878791, 0.00393766)
ID_=(-0.00995575, 0.02984002, 0.00430422) 

 EFP Polarization Energy Epol              =      -0.02218476
 EFP Polarization Energy EPol2             =      -0.01155164
Induced dipole on3 R=(-4.47521950, 2.68320288, -2.02600285) 
 ID=(-0.01817888, 0.02051232, -0.00248122)
ID_=(-0.01883703, 0.02014766, -0.00274469) 

 EFP Polarization Energy Epol              =      -0.02218476
 EFP Polarization Energy EPol2             =      -0.01155164
    7     -76.0164752885      1.17E-04
EFP Polarization Hamiltonian Calculation
EFP polarization integrals has been computed
EFP Polarization Energy  -0.02218476
Electrostatic force on point 0  = 0.36743408
Electrostatic force on point 1  = 0.30959935
Electrostatic force on point 2  = 0.34797807
Electrostatic force on point 3  = 0.25143129
With multipoles electrostatic force on point 0  = -0.00429501
With multipoles electrostatic force on point 1  = 0.01232166
With multipoles electrostatic force on point 2  = 0.00818533
With multipoles electrostatic force on point 3  = -0.00671393
Induced dipole on0 R=(-3.87931321, 2.49732873, -0.93572925) 
 ID=(0.00026003, 0.01483666, 0.03176484)
ID_=(0.00159143, 0.01519012, 0.03193138) 

 EFP Polarization Energy Epol              =      -0.02220968
 EFP Polarization Energy EPol2             =      -0.01156469
Induced dipole on1 R=(-3.28169561, 2.40937522, -2.30683940) 
 ID=(-0.01297102, 0.01200432, 0.00497139)
ID_=(-0.01327269, 0.01187197, 0.00462722) 

 EFP Polarization Energy Epol              =      -0.02220968
 EFP Polarization Energy EPol2             =      -0.01156469
Induced dipole on2 R=(-4.24319816, 1.73285695, -1.86391062) 
 ID=(-0.01095622, 0.02882235, 0.00392770)
ID_=(-0.00995919, 0.02987559, 0.00429470) 

 EFP Polarization Energy Epol              =      -0.02220968
 EFP Polarization Energy EPol2             =      -0.01156469
Induced dipole on3 R=(-4.47521950, 2.68320288, -2.02600285) 
 ID=(-0.01819639, 0.02053684, -0.00249577)
ID_=(-0.01885535, 0.02017172, -0.00275956) 

 EFP Polarization Energy Epol              =      -0.02220968
 EFP Polarization Energy EPol2             =      -0.01156469
    8     -76.0162867304      4.72E-05
EFP Polarization Hamiltonian Calculation
EFP polarization integrals has been computed
EFP Polarization Energy  -0.02220968
Electrostatic force on point 0  = 0.36743366
Electrostatic force on point 1  = 0.30960029
Electrostatic force on point 2  = 0.34797705
Electrostatic force on point 3  = 0.25143112
With multipoles electrostatic force on point 0  = -0.00429543
With multipoles electrostatic force on point 1  = 0.01232420
With multipoles electrostatic force on point 2  = 0.00818453
With multipoles electrostatic force on point 3  = -0.00671299
Induced dipole on0 R=(-3.87931321, 2.49732873, -0.93572925) 
 ID=(0.00025961, 0.01483848, 0.03176339)
ID_=(0.00159095, 0.01519192, 0.03192990) 

 EFP Polarization Energy Epol              =      -0.02221296
 EFP Polarization Energy EPol2             =      -0.01156642
Induced dipole on1 R=(-3.28169561, 2.40937522, -2.30683940) 
 ID=(-0.01296601, 0.01200657, 0.00496713)
ID_=(-0.01326752, 0.01187429, 0.00462315) 

 EFP Polarization Energy Epol              =      -0.02221296
 EFP Polarization Energy EPol2             =      -0.01156642
Induced dipole on2 R=(-4.24319816, 1.73285695, -1.86391062) 
 ID=(-0.01095616, 0.02882890, 0.00392596)
ID_=(-0.00995892, 0.02988228, 0.00429305) 

 EFP Polarization Energy Epol              =      -0.02221296
 EFP Polarization Energy EPol2             =      -0.01156642
Induced dipole on3 R=(-4.47521950, 2.68320288, -2.02600285) 
 ID=(-0.01819859, 0.02054060, -0.00249806)
ID_=(-0.01885768, 0.02017543, -0.00276191) 

 EFP Polarization Energy Epol              =      -0.02221296
 EFP Polarization Energy EPol2             =      -0.01156642
    9     -76.0162652028      5.66E-06
EFP Polarization Hamiltonian Calculation
EFP polarization integrals has been computed
EFP Polarization Energy  -0.02221296
Electrostatic force on point 0  = 0.36743398
Electrostatic force on point 1  = 0.30960068
Electrostatic force on point 2  = 0.34797728
Electrostatic force on point 3  = 0.25143132
With multipoles electrostatic force on point 0  = -0.00429511
With multipoles electrostatic force on point 1  = 0.01232425
With multipoles electrostatic force on point 2  = 0.00818452
With multipoles electrostatic force on point 3  = -0.00671260
Induced dipole on0 R=(-3.87931321, 2.49732873, -0.93572925) 
 ID=(0.00025992, 0.01483856, 0.03176353)
ID_=(0.00159127, 0.01519199, 0.03193000) 

 EFP Polarization Energy Epol              =      -0.02221247
 EFP Polarization Energy EPol2             =      -0.01156617
Induced dipole on1 R=(-3.28169561, 2.40937522, -2.30683940) 
 ID=(-0.01296505, 0.01200667, 0.00496681)
ID_=(-0.01326657, 0.01187440, 0.00462288) 

 EFP Polarization Energy Epol              =      -0.02221247
 EFP Polarization Energy EPol2             =      -0.01156617
Induced dipole on2 R=(-4.24319816, 1.73285695, -1.86391062) 
 ID=(-0.01095574, 0.02882963, 0.00392597)
ID_=(-0.00995848, 0.02988299, 0.00429307) 

 EFP Polarization Energy Epol              =      -0.02221247
 EFP Polarization Energy EPol2             =      -0.01156617
Induced dipole on3 R=(-4.47521950, 2.68320288, -2.02600285) 
 ID=(-0.01819817, 0.02054047, -0.00249796)
ID_=(-0.01885727, 0.02017532, -0.00276182) 

 EFP Polarization Energy Epol              =      -0.02221247
 EFP Polarization Energy EPol2             =      -0.01156617
   10     -76.0162614331      1.58E-06
EFP Polarization Hamiltonian Calculation
EFP polarization integrals has been computed
EFP Polarization Energy  -0.02221247
Electrostatic force on point 0  = 0.36743411
Electrostatic force on point 1  = 0.30960081
Electrostatic force on point 2  = 0.34797739
Electrostatic force on point 3  = 0.25143140
With multipoles electrostatic force on point 0  = -0.00429498
With multipoles electrostatic force on point 1  = 0.01232421
With multipoles electrostatic force on point 2  = 0.00818451
With multipoles electrostatic force on point 3  = -0.00671247
Induced dipole on0 R=(-3.87931321, 2.49732873, -0.93572925) 
 ID=(0.00026005, 0.01483853, 0.03176355)
ID_=(0.00159139, 0.01519196, 0.03193001) 

 EFP Polarization Energy Epol              =      -0.02221221
 EFP Polarization Energy EPol2             =      -0.01156604
Induced dipole on1 R=(-3.28169561, 2.40937522, -2.30683940) 
 ID=(-0.01296479, 0.01200666, 0.00496678)
ID_=(-0.01326632, 0.01187438, 0.00462286) 

 EFP Polarization Energy Epol              =      -0.02221221
 EFP Polarization Energy EPol2             =      -0.01156604
Induced dipole on2 R=(-4.24319816, 1.73285695, -1.86391062) 
 ID=(-0.01095557, 0.02882973, 0.00392600)
ID_=(-0.00995832, 0.02988308, 0.00429310) 

 EFP Polarization Energy Epol              =      -0.02221221
 EFP Polarization Energy EPol2             =      -0.01156604
Induced dipole on3 R=(-4.47521950, 2.68320288, -2.02600285) 
 ID=(-0.01819797, 0.02054035, -0.00249789)
ID_=(-0.01885706, 0.02017520, -0.00276174) 

 EFP Polarization Energy Epol              =      -0.02221221
 EFP Polarization Energy EPol2             =      -0.01156604
   11     -76.0162616734      3.46E-07
EFP Polarization Hamiltonian Calculation
EFP polarization integrals has been computed
EFP Polarization Energy  -0.02221221
Electrostatic force on point 0  = 0.36743420
Electrostatic force on point 1  = 0.30960090
Electrostatic force on point 2  = 0.34797749
Electrostatic force on point 3  = 0.25143146
With multipoles electrostatic force on point 0  = -0.00429489
With multipoles electrostatic force on point 1  = 0.01232415
With multipoles electrostatic force on point 2  = 0.00818451
With multipoles electrostatic force on point 3  = -0.00671238
Induced dipole on0 R=(-3.87931321, 2.49732873, -0.93572925) 
 ID=(0.00026014, 0.01483850, 0.03176358)
ID_=(0.00159148, 0.01519193, 0.03193002) 

 EFP Polarization Energy Epol              =      -0.02221200
 EFP Polarization Energy EPol2             =      -0.01156593
Induced dipole on1 R=(-3.28169561, 2.40937522, -2.30683940) 
 ID=(-0.01296465, 0.01200662, 0.00496679)
ID_=(-0.01326619, 0.01187435, 0.00462289) 

 EFP Polarization Energy Epol              =      -0.02221200
 EFP Polarization Energy EPol2             =      -0.01156593
Induced dipole on2 R=(-4.24319816, 1.73285695, -1.86391062) 
 ID=(-0.01095546, 0.02882974, 0.00392604)
ID_=(-0.00995820, 0.02988309, 0.00429314) 

 EFP Polarization Energy Epol              =      -0.02221200
 EFP Polarization Energy EPol2             =      -0.01156593
Induced dipole on3 R=(-4.47521950, 2.68320288, -2.02600285) 
 ID=(-0.01819780, 0.02054022, -0.00249782)
ID_=(-0.01885689, 0.02017508, -0.00276167) 

 EFP Polarization Energy Epol              =      -0.02221200
 EFP Polarization Energy EPol2             =      -0.01156593
   12     -76.0162617158      5.61E-08
EFP Polarization Hamiltonian Calculation
EFP polarization integrals has been computed
EFP Polarization Energy  -0.02221200
Electrostatic force on point 0  = 0.36743421
Electrostatic force on point 1  = 0.30960090
Electrostatic force on point 2  = 0.34797749
Electrostatic force on point 3  = 0.25143146
With multipoles electrostatic force on point 0  = -0.00429488
With multipoles electrostatic force on point 1  = 0.01232415
With multipoles electrostatic force on point 2  = 0.00818451
With multipoles electrostatic force on point 3  = -0.00671238
Induced dipole on0 R=(-3.87931321, 2.49732873, -0.93572925) 
 ID=(0.00026014, 0.01483850, 0.03176358)
ID_=(0.00159149, 0.01519193, 0.03193002) 

 EFP Polarization Energy Epol              =      -0.02221199
 EFP Polarization Energy EPol2             =      -0.01156593
Induced dipole on1 R=(-3.28169561, 2.40937522, -2.30683940) 
 ID=(-0.01296465, 0.01200662, 0.00496679)
ID_=(-0.01326618, 0.01187435, 0.00462289) 

 EFP Polarization Energy Epol              =      -0.02221199
 EFP Polarization Energy EPol2             =      -0.01156593
Induced dipole on2 R=(-4.24319816, 1.73285695, -1.86391062) 
 ID=(-0.01095545, 0.02882974, 0.00392604)
ID_=(-0.00995820, 0.02988309, 0.00429314) 

 EFP Polarization Energy Epol              =      -0.02221199
 EFP Polarization Energy EPol2             =      -0.01156593
Induced dipole on3 R=(-4.47521950, 2.68320288, -2.02600285) 
 ID=(-0.01819779, 0.02054021, -0.00249781)
ID_=(-0.01885688, 0.02017508, -0.00276166) 

 EFP Polarization Energy Epol              =      -0.02221199
 EFP Polarization Energy EPol2             =      -0.01156593
   13     -76.0162619166      2.76E-08
EFP Polarization Hamiltonian Calculation
EFP polarization integrals has been computed
EFP Polarization Energy  -0.02221199
Electrostatic force on point 0  = 0.36743421
Electrostatic force on point 1  = 0.30960090
Electrostatic force on point 2  = 0.34797749
Electrostatic force on point 3  = 0.25143146
With multipoles electrostatic force on point 0  = -0.00429488
With multipoles electrostatic force on point 1  = 0.01232415
With multipoles electrostatic force on point 2  = 0.00818451
With multipoles electrostatic force on point 3  = -0.00671238
Induced dipole on0 R=(-3.87931321, 2.49732873, -0.93572925) 
 ID=(0.00026015, 0.01483850, 0.03176358)
ID_=(0.00159149, 0.01519193, 0.03193003) 

 EFP Polarization Energy Epol              =      -0.02221198
 EFP Polarization Energy EPol2             =      -0.01156592
Induced dipole on1 R=(-3.28169561, 2.40937522, -2.30683940) 
 ID=(-0.01296464, 0.01200662, 0.00496679)
ID_=(-0.01326618, 0.01187435, 0.00462289) 

 EFP Polarization Energy Epol              =      -0.02221198
 EFP Polarization Energy EPol2             =      -0.01156592
Induced dipole on2 R=(-4.24319816, 1.73285695, -1.86391062) 
 ID=(-0.01095545, 0.02882975, 0.00392604)
ID_=(-0.00995819, 0.02988309, 0.00429314) 

 EFP Polarization Energy Epol              =      -0.02221198
 EFP Polarization Energy EPol2             =      -0.01156592
Induced dipole on3 R=(-4.47521950, 2.68320288, -2.02600285) 
 ID=(-0.01819779, 0.02054021, -0.00249781)
ID_=(-0.01885688, 0.02017507, -0.00276166) 

 EFP Polarization Energy Epol              =      -0.02221198
 EFP Polarization Energy EPol2             =      -0.01156592
   14     -76.0162619235      1.44E-08
EFP Polarization Hamiltonian Calculation
EFP polarization integrals has been computed
EFP Polarization Energy  -0.02221198
Electrostatic force on point 0  = 0.36743421
Electrostatic force on point 1  = 0.30960091
Electrostatic force on point 2  = 0.34797750
Electrostatic force on point 3  = 0.25143146
With multipoles electrostatic force on point 0  = -0.00429488
With multipoles electrostatic force on point 1  = 0.01232415
With multipoles electrostatic force on point 2  = 0.00818451
With multipoles electrostatic force on point 3  = -0.00671238
Induced dipole on0 R=(-3.87931321, 2.49732873, -0.93572925) 
 ID=(0.00026015, 0.01483850, 0.03176358)
ID_=(0.00159149, 0.01519193, 0.03193003) 

 EFP Polarization Energy Epol              =      -0.02221198
 EFP Polarization Energy EPol2             =      -0.01156592
Induced dipole on1 R=(-3.28169561, 2.40937522, -2.30683940) 
 ID=(-0.01296464, 0.01200662, 0.00496679)
ID_=(-0.01326618, 0.01187435, 0.00462289) 

 EFP Polarization Energy Epol              =      -0.02221198
 EFP Polarization Energy EPol2             =      -0.01156592
Induced dipole on2 R=(-4.24319816, 1.73285695, -1.86391062) 
 ID=(-0.01095545, 0.02882975, 0.00392604)
ID_=(-0.00995819, 0.02988309, 0.00429314) 

 EFP Polarization Energy Epol              =      -0.02221198
 EFP Polarization Energy EPol2             =      -0.01156592
Induced dipole on3 R=(-4.47521950, 2.68320288, -2.02600285) 
 ID=(-0.01819779, 0.02054021, -0.00249781)
ID_=(-0.01885687, 0.02017507, -0.00276166) 

 EFP Polarization Energy Epol              =      -0.02221198
 EFP Polarization Energy EPol2             =      -0.01156592
   15     -76.0162619231      1.82E-09
EFP Polarization Hamiltonian Calculation
EFP polarization integrals has been computed
EFP Polarization Energy  -0.02221198
Electrostatic force on point 0  = 0.36743421
Electrostatic force on point 1  = 0.30960091
Electrostatic force on point 2  = 0.34797750
Electrostatic force on point 3  = 0.25143146
With multipoles electrostatic force on point 0  = -0.00429488
With multipoles electrostatic force on point 1  = 0.01232415
With multipoles electrostatic force on point 2  = 0.00818451
With multipoles electrostatic force on point 3  = -0.00671238
Induced dipole on0 R=(-3.87931321, 2.49732873, -0.93572925) 
 ID=(0.00026015, 0.01483850, 0.03176358)
ID_=(0.00159149, 0.01519193, 0.03193003) 

 EFP Polarization Energy Epol              =      -0.02221198
 EFP Polarization Energy EPol2             =      -0.01156592
Induced dipole on1 R=(-3.28169561, 2.40937522, -2.30683940) 
 ID=(-0.01296464, 0.01200662, 0.00496679)
ID_=(-0.01326618, 0.01187435, 0.00462289) 

 EFP Polarization Energy Epol              =      -0.02221198
 EFP Polarization Energy EPol2             =      -0.01156592
Induced dipole on2 R=(-4.24319816, 1.73285695, -1.86391062) 
 ID=(-0.01095545, 0.02882975, 0.00392604)
ID_=(-0.00995819, 0.02988309, 0.00429314) 

 EFP Polarization Energy Epol              =      -0.02221198
 EFP Polarization Energy EPol2             =      -0.01156592
Induced dipole on3 R=(-4.47521950, 2.68320288, -2.02600285) 
 ID=(-0.01819779, 0.02054021, -0.00249781)
ID_=(-0.01885688, 0.02017507, -0.00276166) 

 EFP Polarization Energy Epol              =      -0.02221198
 EFP Polarization Energy EPol2             =      -0.01156592
   16     -76.0162619286      8.34E-10
EFP Polarization Hamiltonian Calculation
EFP polarization integrals has been computed
EFP Polarization Energy  -0.02221198
Electrostatic force on point 0  = 0.36743421
Electrostatic force on point 1  = 0.30960091
Electrostatic force on point 2  = 0.34797750
Electrostatic force on point 3  = 0.25143146
With multipoles electrostatic force on point 0  = -0.00429488
With multipoles electrostatic force on point 1  = 0.01232415
With multipoles electrostatic force on point 2  = 0.00818451
With multipoles electrostatic force on point 3  = -0.00671238
Induced dipole on0 R=(-3.87931321, 2.49732873, -0.93572925) 
 ID=(0.00026015, 0.01483850, 0.03176358)
ID_=(0.00159149, 0.01519193, 0.03193003) 

 EFP Polarization Energy Epol              =      -0.02221198
 EFP Polarization Energy EPol2             =      -0.01156592
Induced dipole on1 R=(-3.28169561, 2.40937522, -2.30683940) 
 ID=(-0.01296464, 0.01200662, 0.00496679)
ID_=(-0.01326618, 0.01187435, 0.00462289) 

 EFP Polarization Energy Epol              =      -0.02221198
 EFP Polarization Energy EPol2             =      -0.01156592
Induced dipole on2 R=(-4.24319816, 1.73285695, -1.86391062) 
 ID=(-0.01095545, 0.02882975, 0.00392604)
ID_=(-0.00995819, 0.02988309, 0.00429314) 

 EFP Polarization Energy Epol              =      -0.02221198
 EFP Polarization Energy EPol2             =      -0.01156592
Induced dipole on3 R=(-4.47521950, 2.68320288, -2.02600285) 
 ID=(-0.01819779, 0.02054021, -0.00249781)
ID_=(-0.01885688, 0.02017507, -0.00276166) 

 EFP Polarization Energy Epol              =      -0.02221198
 EFP Polarization Energy EPol2             =      -0.01156592
   17     -76.0162619282      4.07E-10
EFP Polarization Hamiltonian Calculation
EFP polarization integrals has been computed
EFP Polarization Energy  -0.02221198
Electrostatic force on point 0  = 0.36743421
Electrostatic force on point 1  = 0.30960091
Electrostatic force on point 2  = 0.34797750
Electrostatic force on point 3  = 0.25143146
With multipoles electrostatic force on point 0  = -0.00429488
With multipoles electrostatic force on point 1  = 0.01232415
With multipoles electrostatic force on point 2  = 0.00818451
With multipoles electrostatic force on point 3  = -0.00671238
Induced dipole on0 R=(-3.87931321, 2.49732873, -0.93572925) 
 ID=(0.00026015, 0.01483850, 0.03176358)
ID_=(0.00159149, 0.01519193, 0.03193003) 

 EFP Polarization Energy Epol              =      -0.02221198
 EFP Polarization Energy EPol2             =      -0.01156592
Induced dipole on1 R=(-3.28169561, 2.40937522, -2.30683940) 
 ID=(-0.01296464, 0.01200662, 0.00496679)
ID_=(-0.01326618, 0.01187435, 0.00462289) 

 EFP Polarization Energy Epol              =      -0.02221198
 EFP Polarization Energy EPol2             =      -0.01156592
Induced dipole on2 R=(-4.24319816, 1.73285695, -1.86391062) 
 ID=(-0.01095545, 0.02882975, 0.00392604)
ID_=(-0.00995819, 0.02988309, 0.00429314) 

 EFP Polarization Energy Epol              =      -0.02221198
 EFP Polarization Energy EPol2             =      -0.01156592
Induced dipole on3 R=(-4.47521950, 2.68320288, -2.02600285) 
 ID=(-0.01819779, 0.02054021, -0.00249781)
ID_=(-0.01885688, 0.02017507, -0.00276166) 

 EFP Polarization Energy Epol              =      -0.02221198
 EFP Polarization Energy EPol2             =      -0.01156592
   18     -76.0162619283      2.13E-10
EFP Polarization Hamiltonian Calculation
EFP polarization integrals has been computed
EFP Polarization Energy  -0.02221198
Electrostatic force on point 0  = 0.36743421
Electrostatic force on point 1  = 0.30960091
Electrostatic force on point 2  = 0.34797750
Electrostatic force on point 3  = 0.25143146
With multipoles electrostatic force on point 0  = -0.00429488
With multipoles electrostatic force on point 1  = 0.01232415
With multipoles electrostatic force on point 2  = 0.00818451
With multipoles electrostatic force on point 3  = -0.00671238
Induced dipole on0 R=(-3.87931321, 2.49732873, -0.93572925) 
 ID=(0.00026015, 0.01483850, 0.03176358)
ID_=(0.00159149, 0.01519193, 0.03193003) 

 EFP Polarization Energy Epol              =      -0.02221198
 EFP Polarization Energy EPol2             =      -0.01156592
Induced dipole on1 R=(-3.28169561, 2.40937522, -2.30683940) 
 ID=(-0.01296464, 0.01200662, 0.00496679)
ID_=(-0.01326618, 0.01187435, 0.00462289) 

 EFP Polarization Energy Epol              =      -0.02221198
 EFP Polarization Energy EPol2             =      -0.01156592
Induced dipole on2 R=(-4.24319816, 1.73285695, -1.86391062) 
 ID=(-0.01095545, 0.02882975, 0.00392604)
ID_=(-0.00995819, 0.02988309, 0.00429314) 

 EFP Polarization Energy Epol              =      -0.02221198
 EFP Polarization Energy EPol2             =      -0.01156592
Induced dipole on3 R=(-4.47521950, 2.68320288, -2.02600285) 
 ID=(-0.01819779, 0.02054021, -0.00249781)
ID_=(-0.01885688, 0.02017507, -0.00276166) 

 EFP Polarization Energy Epol              =      -0.02221198
 EFP Polarization Energy EPol2             =      -0.01156592
   19     -76.0162619283      1.11E-10
EFP Polarization Hamiltonian Calculation
EFP polarization integrals has been computed
EFP Polarization Energy  -0.02221198
Electrostatic force on point 0  = 0.36743421
Electrostatic force on point 1  = 0.30960091
Electrostatic force on point 2  = 0.34797750
Electrostatic force on point 3  = 0.25143146
With multipoles electrostatic force on point 0  = -0.00429488
With multipoles electrostatic force on point 1  = 0.01232415
With multipoles electrostatic force on point 2  = 0.00818451
With multipoles electrostatic force on point 3  = -0.00671238
Induced dipole on0 R=(-3.87931321, 2.49732873, -0.93572925) 
 ID=(0.00026015, 0.01483850, 0.03176358)
ID_=(0.00159149, 0.01519193, 0.03193003) 

 EFP Polarization Energy Epol              =      -0.02221198
 EFP Polarization Energy EPol2             =      -0.01156592
Induced dipole on1 R=(-3.28169561, 2.40937522, -2.30683940) 
 ID=(-0.01296464, 0.01200662, 0.00496679)
ID_=(-0.01326618, 0.01187435, 0.00462289) 

 EFP Polarization Energy Epol              =      -0.02221198
 EFP Polarization Energy EPol2             =      -0.01156592
Induced dipole on2 R=(-4.24319816, 1.73285695, -1.86391062) 
 ID=(-0.01095545, 0.02882975, 0.00392604)
ID_=(-0.00995819, 0.02988309, 0.00429314) 

 EFP Polarization Energy Epol              =      -0.02221198
 EFP Polarization Energy EPol2             =      -0.01156592
Induced dipole on3 R=(-4.47521950, 2.68320288, -2.02600285) 
 ID=(-0.01819779, 0.02054021, -0.00249781)
ID_=(-0.01885688, 0.02017507, -0.00276166) 

 EFP Polarization Energy Epol              =      -0.02221198
 EFP Polarization Energy EPol2             =      -0.01156592
   20     -76.0162619283      5.94E-11 Convergence criterion met
 ---------------------------------------
 SCF time:  CPU 0.71 s  wall 0.72 s

          Summary of EFP interfragment interaction energies           

           Electrostatics Energy            =   0.139031480374
           Exchange-Repulsion Energy        =   0.000000000000
           Polarization Energy              =  -0.011565920077
           Dispersion Energy                =   0.000000000000
           Total Interfragment Energy       =   0.127465560296

 SCF   energy in the final basis set = -76.0162619283
 Total energy in the final basis set = -76.0162619283
 Analysis of SCF Wavefunction

 --------------------------------------------------------------
                    Orbital Energies (a.u.)
 --------------------------------------------------------------

 Alpha MOs
 -- Occupied --
-20.571  -1.352  -0.713  -0.583  -0.509
 -- Virtual --
  0.206   0.308   1.009   1.122   1.154   1.165   1.372   1.428
  2.007   2.024   2.055   2.609   2.933   3.958
 --------------------------------------------------------------

          Ground-State Mulliken Net Atomic Charges

     Atom                 Charge (a.u.)
  ----------------------------------------
      1 O                    -0.889263
      2 H                     0.456797
      3 H                     0.432466
  ----------------------------------------
  Sum of atomic charges =     0.000000

 -----------------------------------------------------------------
                    Cartesian Multipole Moments
 -----------------------------------------------------------------
    Charge (ESU x 10^10)
                 0.0000
    Dipole Moment (Debye)
         X      -0.0608      Y      -0.0530      Z      -2.2910
       Tot       2.2925
    Quadrupole Moments (Debye-Ang)
        XX      -4.1181     XY       0.0074     YY      -7.2385
        XZ       0.0359     YZ      -0.0003     ZZ      -5.9352
    Octopole Moments (Debye-Ang^2)
       XXX      -0.1010    XXY      -0.0175    XYY      -0.0159
       YYY      -0.0488    XXZ      -1.4308    XYZ       0.0003
       YYZ      -0.4004    XZZ      -0.0392    YZZ      -0.0164
       ZZZ      -1.5205
    Hexadecapole Moments (Debye-Ang^3)
      XXXX      -5.3803   XXXY       0.0068   XXYY      -2.0290
      XYYY       0.0067   YYYY      -5.2203   XXXZ       0.0531
      XXYZ       0.0004   XYYZ       0.0098   YYYZ       0.0008
      XXZZ      -1.5498   XYZZ       0.0022   YYZZ      -1.9332
      XZZZ       0.0380   YZZZ       0.0008   ZZZZ      -6.0558
 -----------------------------------------------------------------
Archival summary:
1\1\QuickSilver.local\SP\HF\6-31G*\12\MonNov1712:45:542014MonNov1712:45:542014\0\\#,HF,6-31G*,\\0,1\O\H,1,0.959073\H,1,0.959073,2,103.524\\HF=-76.0162619\\@

 Total job time:  0.87s(wall), 0.85s(cpu) 
 Mon Nov 17 12:45:54 2014

        *************************************************************
        *                                                           *
        *  Thank you very much for using Q-Chem.  Have a nice day.  *
        *                                                           *
        *************************************************************


