    -----------------------------------------------------------------------
          PSI4: An Open-Source Ab Initio Electronic Structure Package
                              PSI 4.0.0-beta1 Driver

               Git: Rev 1ece03341d311215be82f817f71d0f792a9fa070

    J. M. Turney, A. C. Simmonett, R. M. Parrish, E. G. Hohenstein,
    F. Evangelista, J. T. Fermann, B. J. Mintz, L. A. Burns, J. J. Wilke,
    M. L. Abrams, N. J. Russ, M. L. Leininger, C. L. Janssen, E. T. Seidl,
    W. D. Allen, H. F. Schaefer, R. A. King, E. F. Valeev, C. D. Sherrill,
    and T. D. Crawford, WIREs Comput. Mol. Sci., (2011) (doi: 10.1002/wcms.93)

                         Additional Contributions by
    A. E. DePrince, M. Saitow, U. Bozkaya, A. Yu. Sokolov
    -----------------------------------------------------------------------


    Using LocalCommunicator (Number of processes = 1)

    Memory level set to 256.000 MB

  ==> Input File <==

--------------------------------------------------------------------------
#! 6-31G** H2O CCSD(T) optimization by energies, with Z-Matrix input

# PYTHONPATH must include directory above plugin directory.
#     Define either externally or here, then import plugin.
sys.path.insert(0, '/home/deprince/psi4/tests')
import plugin_ccsd_serial

memory 250 mb
molecule h2o {
    o
    h 1 0.97
    h 1 0.97 2 103.0
}

set globals {
  basis 6-31G**
  r_convergence 1e-10
  d_convergence 1e-10
  e_convergence 1e-10
}

optimize('_ccsd(t)', dertype=0)
clean()

refnuc   = 9.15670280505  #TEST
refscf   = -76.0228552393  #TEST
refccsd  = -0.211162891845  #TEST
reftotal = -76.2340181311  #TEST

compare_values(refnuc,   h2o.nuclear_repulsion_energy(),             3, "Nuclear repulsion energy") #TEST
compare_values(refscf,   get_variable("SCF total energy"),           7, "SCF energy")               #TEST
compare_values(refccsd,  get_variable("CCSD(T) correlation energy"), 7, "CCSD(T) contribution")     #TEST
compare_values(reftotal, get_variable("Current energy"),             7, "Total energy")             #TEST
--------------------------------------------------------------------------
/home/deprince/psi4/tests/plugin_ccsd_serial/plugin_ccsd_serial.so loaded.

  Memory set to 250.000 MiB by Python script.

-------------------------------------------------------------

  Using finite-differences of energies to determine gradients (fd_geoms_1_0).
	Generating geometries for use with 3-point formula.
	Displacement size will be 5.00e-03.
	Number of atoms is 3.
	Number of symmetric SALC's is 2.
	Number of displacements (including reference) is 5.

-------------------------------------------------------------

  //>>>>>>>>>>>>>>>>>>>>>>>>>>>>>>>>>>>//
  //    Loading displacement 1 of 5    //
  //<<<<<<<<<<<<<<<<<<<<<<<<<<<<<<<<<<<//

*** tstart() called on ds12
*** at Tue Mar 27 13:36:34 2012

	There are an even number of electrons - assuming singlet.
	Specify the multiplicity with the MULTP option in the
	input if this is incorrect


         ---------------------------------------------------------
                                   SCF
            by Justin Turney, Rob Parrish, and Andy Simmonett
                              RHF Reference
                        1 Threads,    250 MiB Core
         ---------------------------------------------------------

  ==> Geometry <==

    Molecular point group: c2v

    Geometry (in Angstrom), charge = 0, multiplicity = 1:

       Center              X                  Y                   Z       
    ------------   -----------------  -----------------  -----------------
           O         -0.000000000000     0.000000000000    -0.067799909009
           H          0.000000000000    -0.759129912147     0.538016878581
           H         -0.000000000000     0.759129912147     0.538016878581

  Running in c2v symmetry.

  Nuclear repulsion =    9.066163073103997

  Charge       = 0
  Multiplicity = 1
  Electrons    = 10
  Nalpha       = 5
  Nbeta        = 5

  ==> Algorithm <==

  SCF Algorithm Type is PK.
  DIIS enabled.
  MOM disabled.
  Fractional occupation disabled.
  Guess Type is CORE.
  Energy threshold   = 1.00e-10
  Density threshold  = 1.00e-10
  Integral threshold = 0.00e+00

  ==> Primary Basis <==

  Basis Set: 6-31G**
    Number of shells: 12
    Number of basis function: 25
    Number of Cartesian functions: 25
    Spherical Harmonics?: false
    Max angular momentum: 2

  ==> Pre-Iterations <==

  Minimum eigenvalue in the overlap matrix is 2.2347906928E-02.
  Using Symmetric Orthogonalization.
  SCF Guess: Core (One-Electron) Hamiltonian.

  Initial RHF energy:   -58.67927277956227

   -------------------------------------------------------
    Irrep   Nso     Nmo     Nalpha   Nbeta   Ndocc  Nsocc
   -------------------------------------------------------
     A1        12      12       3       3       3       0
     A2         2       2       0       0       0       0
     B1         4       4       1       1       1       0
     B2         7       7       1       1       1       0
   -------------------------------------------------------
    Total      25      25       5       5       5       0
   -------------------------------------------------------

  ==> Integral Setup <==

 MINTS: Wrapper to libmints.
   by Justin Turney

   Calculation information:
      Number of atoms:                   3
      Number of AO shells:              12
      Number of SO shells:               9
      Number of primitives:             25
      Number of atomic orbitals:        25
      Number of basis functions:        25

      Number of irreps:                  4
      Number of functions per irrep: [  12    2    4    7 ]

      Overlap, kinetic, potential, dipole, and quadrupole integrals
        stored in file 35.

      Computing two-electron integrals...done
      Computed 13617 non-zero two-electron integrals.
        Stored in file 33.

  ==> Iterations <==

                        Total Energy        Delta E     Density RMS

   @RHF iter   1:   -68.29678760739553   -9.61751e+00   0.00000e+00 
	Occupation by irrep:
	         A1    A2    B1    B2 
	DOCC [     4,    0,    0,    1 ]
   @RHF iter   2:   -71.40035542806041   -3.10357e+00   5.20756e-01 DIIS
	Occupation by irrep:
	         A1    A2    B1    B2 
	DOCC [     3,    0,    1,    1 ]
   @RHF iter   3:   -75.76839158747295   -4.36804e+00   4.94801e-01 DIIS
   @RHF iter   4:   -76.00447654921379   -2.36085e-01   1.70778e-02 DIIS
   @RHF iter   5:   -76.02142111855909   -1.69446e-02   7.75736e-03 DIIS
   @RHF iter   6:   -76.02180581342868   -3.84695e-04   1.23173e-03 DIIS
   @RHF iter   7:   -76.02184431140165   -3.84980e-05   5.23967e-04 DIIS
   @RHF iter   8:   -76.02184549621380   -1.18481e-06   8.35157e-05 DIIS
   @RHF iter   9:   -76.02184556933277   -7.31190e-08   2.43694e-05 DIIS
   @RHF iter  10:   -76.02184557107293   -1.74016e-09   3.85010e-06 DIIS
   @RHF iter  11:   -76.02184557108043   -7.50333e-12   1.90823e-07 DIIS
   @RHF iter  12:   -76.02184557108073   -2.98428e-13   3.82888e-08 DIIS
   @RHF iter  13:   -76.02184557108076   -2.84217e-14   6.48460e-09 DIIS
   @RHF iter  14:   -76.02184557108072    4.26326e-14   6.27906e-10 DIIS

  ==> Post-Iterations <==

	Orbital Energies (a.u.)
	-----------------------

	Doubly Occupied:                                                      

	   1A1   -20.564080     2A1    -1.334668     1B2    -0.692889  
	   3A1    -0.569698     1B1    -0.496888  

	Virtual:                                                              

	   4A1     0.208855     2B2     0.300831     3B2     0.991803  
	   5A1     1.080447     6A1     1.130964     2B1     1.168569  
	   4B2     1.294467     7A1     1.418944     8A1     1.804105  
	   1A2     1.805836     3B1     1.918728     9A1     2.553188  
	   5B2     2.571057     6B2     2.776019     2A2     2.953258  
	   4B1     2.984804    10A1     3.346823    11A1     3.678515  
	   7B2     3.911983    12A1     4.092131  

	Final Occupation by Irrep:
	         A1    A2    B1    B2 
	DOCC [     3,    0,    1,    1 ]

  Energy converged.

  @RHF Final Energy:   -76.02184557108072

  ==> Properties <==

  Nuclear Dipole Moment: (a.u.)
     X:    -0.0000      Y:     0.0000      Z:     1.0084

  Electronic Dipole Moment: (a.u.)
     X:     0.0000      Y:     0.0000      Z:    -0.1332

  Dipole Moment: (a.u.)
     X:    -0.0000      Y:     0.0000      Z:     0.8752     Total:     0.8752

  Dipole Moment: (Debye)
     X:    -0.0000      Y:     0.0000      Z:     2.2246     Total:     2.2246


  Saving occupied orbitals to File 180.

*** tstop() called on ds12 at Tue Mar 27 13:36:34 2012
Module time:
	user time   =       0.06 seconds =       0.00 minutes
	system time =       0.00 seconds =       0.00 minutes
	total time  =          0 seconds =       0.00 minutes
Total time:
	user time   =       0.06 seconds =       0.00 minutes
	system time =       0.00 seconds =       0.00 minutes
	total time  =          0 seconds =       0.00 minutes

*** tstart() called on ds12
*** at Tue Mar 27 13:36:34 2012


	**************************************************
	* TRANSQT2: Program to transform integrals from  *
	*           the SO basis to the MO basis.        *
	*                                                *
	*            Daniel, David, & Justin             *
	**************************************************


	Input parameters:
	-----------------
	Wave function   =	CCSD
	Backtransform   =	No
	Print Level     =	1
	Print TEIs      =	No
	Reference wfn   =	RHF
	Derivative      =	None
	Delete TEI File =	Yes
	Memory (Mbytes) =	250.0
	Cache Level     =	2
	Cache Type      =	LRU
	Chkpt Parameters:
	--------------------
	Number of irreps     = 4
	Number of SOs        = 25
	Number of MOs        = 25
	Number of active MOs = 25

	Label	# SOs	# FZDC	# DOCC	# SOCC	# VIRT	# FZVR
	-----	-----	------	------	------	------	------
	 A1	   12	    0	    3	    0	    9	    0
	 A2	   2	    0	    0	    0	    2	    0
	 B1	   4	    0	    1	    0	    3	    0
	 B2	   7	    0	    1	    0	    6	    0

	Nuclear Rep. energy (chkpt) =      9.06616307310400
	SCF energy          (chkpt) =    -76.02184557108072

	Presorting SO-basis two-electron integrals.
	Sorting File: SO Ints (pq,rs) nbuckets = 1
	Frozen-core energy =    0.000000000000000
	Starting first half-transformation.
	Sorting half-transformed integrals.
	Starting second half-transformation.
	Two-electron integral transformation complete.

*** tstop() called on ds12 at Tue Mar 27 13:36:35 2012
Module time:
	user time   =       0.01 seconds =       0.00 minutes
	system time =       0.01 seconds =       0.00 minutes
	total time  =          1 seconds =       0.02 minutes
Total time:
	user time   =       0.07 seconds =       0.00 minutes
	system time =       0.01 seconds =       0.00 minutes
	total time  =          1 seconds =       0.02 minutes
Reading options from the PLUGIN_CCSD_SERIAL block
Calling plugin plugin_ccsd_serial.so.

*** tstart() called on ds12
*** at Tue Mar 27 13:36:35 2012



        *******************************************************
        *                                                     *
        *                        CCSD                         *
        *           Coupled-Cluster Singles Doubles           *
        *                                                     *
        *                   Eugene DePrince                   *
        *                                                     *
        *******************************************************



        Begin CC integral sort

        CC integral sort will use                      1.01 mb

        Initial sort.....done.

        IJKL block.......done.
        IJAK block 1/2...done.
        IJAK block 2/2...done.
        KCLD block.......done.
        KLCD block.......done.
        ABCI block 1/3...done.
        ABCI block 2/3...done.
        ABCI block 3/3...done.
        ABCD block 1/2...done.
        ABCD block 2/2...done.

  Time for integral sort:             0.01 s (user)
                                      0.03 s (system)
                                         0 s (total)

  available memory =                           238.42 mb
  minimum memory requirements for CCSD =         0.24 mb
  minimum memory requirements for CCSD(T) =      0.36 mb

  Define tiling:

        v(ab,cd) diagrams will be evaluated in   1 blocks.
        v(ab,ci) diagrams will be evaluated in   1 blocks over ov2.
        v(ab,ci) diagrams will be evaluated in   1 blocks over ov.

  Allocate cpu memory (     0.57 mb).....done.
  Initialize cpu memory..................done.

  Begin singles and doubles coupled cluster iterations

   Iter  DIIS          Energy       d(Energy)          |d(T)|     time
      0   0 1   -0.2003881622   -0.2003881622    0.1961153755        0
      1   1 1   -0.2046091019   -0.0042209398    0.0273893735        0
      2   2 1   -0.2085511748   -0.0039420729    0.0098282145        0
      3   3 1   -0.2090761255   -0.0005249507    0.0028099817        0
      4   4 1   -0.2090803902   -0.0000042647    0.0006500996        0
      5   5 1   -0.2090953518   -0.0000149616    0.0002065610        0
      6   6 1   -0.2090914206    0.0000039312    0.0000648917        0
      7   7 1   -0.2090908631    0.0000005575    0.0000157268        0
      8   8 1   -0.2090908425    0.0000000206    0.0000029562        0
      9   8 2   -0.2090907652    0.0000000773    0.0000007137        0
     10   8 3   -0.2090907855   -0.0000000204    0.0000001523        0
     11   8 4   -0.2090907839    0.0000000017    0.0000000297        0
     12   8 5   -0.2090907845   -0.0000000006    0.0000000048        0
     13   8 6   -0.2090907844    0.0000000001    0.0000000011        0
     14   8 7   -0.2090907844    0.0000000000    0.0000000002        0
     15   8 8   -0.2090907844    0.0000000000    0.0000000001        1

  CCSD iterations converged!

        OS MP2 correlation energy:           -0.150037725351
        SS MP2 correlation energy:           -0.050350436812
        MP2 correlation energy:              -0.200388162163
      * MP2 total energy:                   -76.222233733244

        OS CCSD correlation energy:          -0.164495867938
        SS CCSD correlation energy:          -0.044594916449
        CCSD correlation energy:             -0.209090784387
      * CCSD total energy:                  -76.230936355468

  Total time for CCSD iterations:       0.42 s (user)
                                        0.25 s (system)
                                           1 s (total)

  Time per iteration:                   0.03 s (user)
                                        0.02 s (system)
                                        0.07 s (total)

*** tstop() called on ds12 at Tue Mar 27 13:36:36 2012
Module time:
	user time   =       0.43 seconds =       0.01 minutes
	system time =       0.28 seconds =       0.00 minutes
	total time  =          1 seconds =       0.02 minutes
Total time:
	user time   =       0.50 seconds =       0.01 minutes
	system time =       0.29 seconds =       0.00 minutes
	total time  =          2 seconds =       0.03 minutes

*** tstart() called on ds12
*** at Tue Mar 27 13:36:36 2012


        *******************************************************
        *                                                     *
        *                      CCSD(T)                        *
        *                                                     *
        *******************************************************

        num_threads =                     1
        available memory =        238.06 mb
        memory requirements =       0.36 mb

        Number of ijk combinations: 35

        Computing (T) correction...

        % complete  total time
              11.4         0 s
              20.0         0 s
              31.4         0 s
              40.0         0 s
              51.4         0 s
              60.0         0 s
              71.4         0 s
              80.0         0 s
              91.4         0 s

        (T) energy                        -0.002888039173

        CCSD(T) correlation energy        -0.211978823560
      * CCSD(T) total energy             -76.233824394641

*** tstop() called on ds12 at Tue Mar 27 13:36:36 2012
Module time:
	user time   =       0.07 seconds =       0.00 minutes
	system time =       0.01 seconds =       0.00 minutes
	total time  =          0 seconds =       0.00 minutes
Total time:
	user time   =       0.57 seconds =       0.01 minutes
	system time =       0.30 seconds =       0.01 minutes
	total time  =          2 seconds =       0.03 minutes

  //>>>>>>>>>>>>>>>>>>>>>>>>>>>>>>>>>>>//
  //    Loading displacement 2 of 5    //
  //<<<<<<<<<<<<<<<<<<<<<<<<<<<<<<<<<<<//

*** tstart() called on ds12
*** at Tue Mar 27 13:36:36 2012

	There are an even number of electrons - assuming singlet.
	Specify the multiplicity with the MULTP option in the
	input if this is incorrect


         ---------------------------------------------------------
                                   SCF
            by Justin Turney, Rob Parrish, and Andy Simmonett
                              RHF Reference
                        1 Threads,    250 MiB Core
         ---------------------------------------------------------

  ==> Geometry <==

    Molecular point group: c2v

    Geometry (in Angstrom), charge = 0, multiplicity = 1:

       Center              X                  Y                   Z       
    ------------   -----------------  -----------------  -----------------
           O          0.000000000000     0.000000000000    -0.067357265529
           H          0.000000000000    -0.759129912147     0.534504341957
           H         -0.000000000000     0.759129912147     0.534504341957

  Running in c2v symmetry.

  Nuclear repulsion =    9.088319132346149

  Charge       = 0
  Multiplicity = 1
  Electrons    = 10
  Nalpha       = 5
  Nbeta        = 5

  ==> Algorithm <==

  SCF Algorithm Type is PK.
  DIIS enabled.
  MOM disabled.
  Fractional occupation disabled.
  Guess Type is CORE.
  Energy threshold   = 1.00e-10
  Density threshold  = 1.00e-10
  Integral threshold = 0.00e+00

  ==> Primary Basis <==

  Basis Set: 6-31G**
    Number of shells: 12
    Number of basis function: 25
    Number of Cartesian functions: 25
    Spherical Harmonics?: false
    Max angular momentum: 2

  ==> Pre-Iterations <==

  Minimum eigenvalue in the overlap matrix is 2.2269509831E-02.
  Using Symmetric Orthogonalization.
  SCF Guess: Core (One-Electron) Hamiltonian.

  Initial RHF energy:   -58.67298252268031

   -------------------------------------------------------
    Irrep   Nso     Nmo     Nalpha   Nbeta   Ndocc  Nsocc
   -------------------------------------------------------
     A1        12      12       3       3       3       0
     A2         2       2       0       0       0       0
     B1         4       4       1       1       1       0
     B2         7       7       1       1       1       0
   -------------------------------------------------------
    Total      25      25       5       5       5       0
   -------------------------------------------------------

  ==> Integral Setup <==

 MINTS: Wrapper to libmints.
   by Justin Turney

   Calculation information:
      Number of atoms:                   3
      Number of AO shells:              12
      Number of SO shells:               9
      Number of primitives:             25
      Number of atomic orbitals:        25
      Number of basis functions:        25

      Number of irreps:                  4
      Number of functions per irrep: [  12    2    4    7 ]

      Overlap, kinetic, potential, dipole, and quadrupole integrals
        stored in file 35.

      Computing two-electron integrals...done
      Computed 13617 non-zero two-electron integrals.
        Stored in file 33.

  ==> Iterations <==

                        Total Energy        Delta E     Density RMS

   @RHF iter   1:   -68.29235823501615   -9.61938e+00   0.00000e+00 
	Occupation by irrep:
	         A1    A2    B1    B2 
	DOCC [     4,    0,    0,    1 ]
   @RHF iter   2:   -71.40392873523068   -3.11157e+00   5.22358e-01 DIIS
	Occupation by irrep:
	         A1    A2    B1    B2 
	DOCC [     3,    0,    1,    1 ]
   @RHF iter   3:   -75.76860004734306   -4.36467e+00   4.96480e-01 DIIS
   @RHF iter   4:   -76.00482946053404   -2.36229e-01   1.70898e-02 DIIS
   @RHF iter   5:   -76.02172387621330   -1.68944e-02   7.73872e-03 DIIS
   @RHF iter   6:   -76.02210423063774   -3.80354e-04   1.22814e-03 DIIS
   @RHF iter   7:   -76.02214210322842   -3.78726e-05   5.21389e-04 DIIS
   @RHF iter   8:   -76.02214325520549   -1.15198e-06   8.28350e-05 DIIS
   @RHF iter   9:   -76.02214332548624   -7.02807e-08   2.38978e-05 DIIS
   @RHF iter  10:   -76.02214332716328   -1.67704e-09   3.79873e-06 DIIS
   @RHF iter  11:   -76.02214332717007   -6.79279e-12   1.82099e-07 DIIS
   @RHF iter  12:   -76.02214332717031   -2.41585e-13   3.62114e-08 DIIS
   @RHF iter  13:   -76.02214332717027    4.26326e-14   6.32358e-09 DIIS
   @RHF iter  14:   -76.02214332717035   -8.52651e-14   6.35982e-10 DIIS

  ==> Post-Iterations <==

	Orbital Energies (a.u.)
	-----------------------

	Doubly Occupied:                                                      

	   1A1   -20.563432     2A1    -1.335587     1B2    -0.694848  
	   3A1    -0.569393     1B1    -0.496900  

	Virtual:                                                              

	   4A1     0.209441     2B2     0.301547     3B2     0.994180  
	   5A1     1.081347     6A1     1.131299     2B1     1.168655  
	   4B2     1.294509     7A1     1.417802     1A2     1.805277  
	   8A1     1.807011     3B1     1.920126     9A1     2.556256  
	   5B2     2.571725     6B2     2.781501     2A2     2.958343  
	   4B1     2.985409    10A1     3.352596    11A1     3.683910  
	   7B2     3.914204    12A1     4.095169  

	Final Occupation by Irrep:
	         A1    A2    B1    B2 
	DOCC [     3,    0,    1,    1 ]

  Energy converged.

  @RHF Final Energy:   -76.02214332717035

  ==> Properties <==

  Nuclear Dipole Moment: (a.u.)
     X:     0.0000      Y:     0.0000      Z:     1.0018

  Electronic Dipole Moment: (a.u.)
     X:     0.0000      Y:     0.0000      Z:    -0.1298

  Dipole Moment: (a.u.)
     X:     0.0000      Y:     0.0000      Z:     0.8720     Total:     0.8720

  Dipole Moment: (Debye)
     X:     0.0000      Y:     0.0000      Z:     2.2165     Total:     2.2165


  Saving occupied orbitals to File 180.

*** tstop() called on ds12 at Tue Mar 27 13:36:36 2012
Module time:
	user time   =       0.05 seconds =       0.00 minutes
	system time =       0.01 seconds =       0.00 minutes
	total time  =          0 seconds =       0.00 minutes
Total time:
	user time   =       0.62 seconds =       0.01 minutes
	system time =       0.31 seconds =       0.01 minutes
	total time  =          2 seconds =       0.03 minutes

*** tstart() called on ds12
*** at Tue Mar 27 13:36:36 2012


	**************************************************
	* TRANSQT2: Program to transform integrals from  *
	*           the SO basis to the MO basis.        *
	*                                                *
	*            Daniel, David, & Justin             *
	**************************************************


	Input parameters:
	-----------------
	Wave function   =	CCSD
	Backtransform   =	No
	Print Level     =	1
	Print TEIs      =	No
	Reference wfn   =	RHF
	Derivative      =	None
	Delete TEI File =	Yes
	Memory (Mbytes) =	250.0
	Cache Level     =	2
	Cache Type      =	LRU
	Chkpt Parameters:
	--------------------
	Number of irreps     = 4
	Number of SOs        = 25
	Number of MOs        = 25
	Number of active MOs = 25

	Label	# SOs	# FZDC	# DOCC	# SOCC	# VIRT	# FZVR
	-----	-----	------	------	------	------	------
	 A1	   12	    0	    3	    0	    9	    0
	 A2	   2	    0	    0	    0	    2	    0
	 B1	   4	    0	    1	    0	    3	    0
	 B2	   7	    0	    1	    0	    6	    0

	Nuclear Rep. energy (chkpt) =      9.08831913234615
	SCF energy          (chkpt) =    -76.02214332717035

	Presorting SO-basis two-electron integrals.
	Sorting File: SO Ints (pq,rs) nbuckets = 1
	Frozen-core energy =    0.000000000000000
	Starting first half-transformation.
	Sorting half-transformed integrals.
	Starting second half-transformation.
	Two-electron integral transformation complete.

*** tstop() called on ds12 at Tue Mar 27 13:36:36 2012
Module time:
	user time   =       0.02 seconds =       0.00 minutes
	system time =       0.00 seconds =       0.00 minutes
	total time  =          0 seconds =       0.00 minutes
Total time:
	user time   =       0.64 seconds =       0.01 minutes
	system time =       0.31 seconds =       0.01 minutes
	total time  =          2 seconds =       0.03 minutes
Reading options from the PLUGIN_CCSD_SERIAL block
Calling plugin plugin_ccsd_serial.so.

*** tstart() called on ds12
*** at Tue Mar 27 13:36:36 2012



        *******************************************************
        *                                                     *
        *                        CCSD                         *
        *           Coupled-Cluster Singles Doubles           *
        *                                                     *
        *                   Eugene DePrince                   *
        *                                                     *
        *******************************************************



        Begin CC integral sort

        CC integral sort will use                      1.01 mb

        Initial sort.....done.

        IJKL block.......done.
        IJAK block 1/2...done.
        IJAK block 2/2...done.
        KCLD block.......done.
        KLCD block.......done.
        ABCI block 1/3...done.
        ABCI block 2/3...done.
        ABCI block 3/3...done.
        ABCD block 1/2...done.
        ABCD block 2/2...done.

  Time for integral sort:             0.01 s (user)
                                      0.03 s (system)
                                         0 s (total)

  available memory =                           238.42 mb
  minimum memory requirements for CCSD =         0.24 mb
  minimum memory requirements for CCSD(T) =      0.36 mb

  Define tiling:

        v(ab,cd) diagrams will be evaluated in   1 blocks.
        v(ab,ci) diagrams will be evaluated in   1 blocks over ov2.
        v(ab,ci) diagrams will be evaluated in   1 blocks over ov.

  Allocate cpu memory (     0.57 mb).....done.
  Initialize cpu memory..................done.

  Begin singles and doubles coupled cluster iterations

   Iter  DIIS          Energy       d(Energy)          |d(T)|     time
      0   0 1   -0.2001814481   -0.2001814481    0.1957852625        0
      1   1 1   -0.2044401958   -0.0042587477    0.0272737639        0
      2   2 1   -0.2083590605   -0.0039188648    0.0097598091        0
      3   3 1   -0.2088769837   -0.0005179232    0.0027795816        0
      4   4 1   -0.2088813617   -0.0000043780    0.0006431946        0
      5   5 1   -0.2088960831   -0.0000147214    0.0002040685        0
      6   6 1   -0.2088922130    0.0000038702    0.0000641594        0
      7   7 1   -0.2088916549    0.0000005581    0.0000155782        0
      8   8 1   -0.2088916372    0.0000000177    0.0000029184        0
      9   8 2   -0.2088915608    0.0000000764    0.0000007005        0
     10   8 3   -0.2088915808   -0.0000000200    0.0000001491        0
     11   8 4   -0.2088915792    0.0000000016    0.0000000291        1
     12   8 5   -0.2088915798   -0.0000000006    0.0000000047        0
     13   8 6   -0.2088915797    0.0000000001    0.0000000010        0
     14   8 7   -0.2088915797    0.0000000000    0.0000000002        0
     15   8 8   -0.2088915797    0.0000000000    0.0000000001        0

  CCSD iterations converged!

        OS MP2 correlation energy:           -0.149872525228
        SS MP2 correlation energy:           -0.050308922841
        MP2 correlation energy:              -0.200181448069
      * MP2 total energy:                   -76.222324775240

        OS CCSD correlation energy:          -0.164304658448
        SS CCSD correlation energy:          -0.044586921264
        CCSD correlation energy:             -0.208891579712
      * CCSD total energy:                  -76.231034906882

  Total time for CCSD iterations:       0.42 s (user)
                                        0.22 s (system)
                                           1 s (total)

  Time per iteration:                   0.03 s (user)
                                        0.01 s (system)
                                        0.07 s (total)

*** tstop() called on ds12 at Tue Mar 27 13:36:37 2012
Module time:
	user time   =       0.43 seconds =       0.01 minutes
	system time =       0.25 seconds =       0.00 minutes
	total time  =          1 seconds =       0.02 minutes
Total time:
	user time   =       1.07 seconds =       0.02 minutes
	system time =       0.56 seconds =       0.01 minutes
	total time  =          3 seconds =       0.05 minutes

*** tstart() called on ds12
*** at Tue Mar 27 13:36:37 2012


        *******************************************************
        *                                                     *
        *                      CCSD(T)                        *
        *                                                     *
        *******************************************************

        num_threads =                     1
        available memory =        238.06 mb
        memory requirements =       0.36 mb

        Number of ijk combinations: 35

        Computing (T) correction...

        % complete  total time
              11.4         0 s
              20.0         0 s
              31.4         0 s
              40.0         0 s
              51.4         0 s
              60.0         0 s
              71.4         0 s
              80.0         0 s
              91.4         0 s

        (T) energy                        -0.002875658069

        CCSD(T) correlation energy        -0.211767237781
      * CCSD(T) total energy             -76.233910564952

*** tstop() called on ds12 at Tue Mar 27 13:36:37 2012
Module time:
	user time   =       0.07 seconds =       0.00 minutes
	system time =       0.01 seconds =       0.00 minutes
	total time  =          0 seconds =       0.00 minutes
Total time:
	user time   =       1.14 seconds =       0.02 minutes
	system time =       0.57 seconds =       0.01 minutes
	total time  =          3 seconds =       0.05 minutes

  //>>>>>>>>>>>>>>>>>>>>>>>>>>>>>>>>>>>//
  //    Loading displacement 3 of 5    //
  //<<<<<<<<<<<<<<<<<<<<<<<<<<<<<<<<<<<//

*** tstart() called on ds12
*** at Tue Mar 27 13:36:37 2012

	There are an even number of electrons - assuming singlet.
	Specify the multiplicity with the MULTP option in the
	input if this is incorrect


         ---------------------------------------------------------
                                   SCF
            by Justin Turney, Rob Parrish, and Andy Simmonett
                              RHF Reference
                        1 Threads,    250 MiB Core
         ---------------------------------------------------------

  ==> Geometry <==

    Molecular point group: c2v

    Geometry (in Angstrom), charge = 0, multiplicity = 1:

       Center              X                  Y                   Z       
    ------------   -----------------  -----------------  -----------------
           O         -0.000000000000     0.000000000000    -0.067578587269
           H          0.000000000000    -0.760993558771     0.536260610269
           H         -0.000000000000     0.760993558771     0.536260610269

  Running in c2v symmetry.

  Nuclear repulsion =    9.063273491186601

  Charge       = 0
  Multiplicity = 1
  Electrons    = 10
  Nalpha       = 5
  Nbeta        = 5

  ==> Algorithm <==

  SCF Algorithm Type is PK.
  DIIS enabled.
  MOM disabled.
  Fractional occupation disabled.
  Guess Type is CORE.
  Energy threshold   = 1.00e-10
  Density threshold  = 1.00e-10
  Integral threshold = 0.00e+00

  ==> Primary Basis <==

  Basis Set: 6-31G**
    Number of shells: 12
    Number of basis function: 25
    Number of Cartesian functions: 25
    Spherical Harmonics?: false
    Max angular momentum: 2

  ==> Pre-Iterations <==

  Minimum eigenvalue in the overlap matrix is 2.2362643987E-02.
  Using Symmetric Orthogonalization.
  SCF Guess: Core (One-Electron) Hamiltonian.

  Initial RHF energy:   -58.68051151385766

   -------------------------------------------------------
    Irrep   Nso     Nmo     Nalpha   Nbeta   Ndocc  Nsocc
   -------------------------------------------------------
     A1        12      12       3       3       3       0
     A2         2       2       0       0       0       0
     B1         4       4       1       1       1       0
     B2         7       7       1       1       1       0
   -------------------------------------------------------
    Total      25      25       5       5       5       0
   -------------------------------------------------------

  ==> Integral Setup <==

 MINTS: Wrapper to libmints.
   by Justin Turney

   Calculation information:
      Number of atoms:                   3
      Number of AO shells:              12
      Number of SO shells:               9
      Number of primitives:             25
      Number of atomic orbitals:        25
      Number of basis functions:        25

      Number of irreps:                  4
      Number of functions per irrep: [  12    2    4    7 ]

      Overlap, kinetic, potential, dipole, and quadrupole integrals
        stored in file 35.

      Computing two-electron integrals...done
      Computed 13617 non-zero two-electron integrals.
        Stored in file 33.

  ==> Iterations <==

                        Total Energy        Delta E     Density RMS

   @RHF iter   1:   -68.29812872334851   -9.61762e+00   0.00000e+00 
	Occupation by irrep:
	         A1    A2    B1    B2 
	DOCC [     4,    0,    0,    1 ]
   @RHF iter   2:   -71.40330902394300   -3.10518e+00   5.20690e-01 DIIS
	Occupation by irrep:
	         A1    A2    B1    B2 
	DOCC [     3,    0,    1,    1 ]
   @RHF iter   3:   -75.76898026462409   -4.36567e+00   4.94744e-01 DIIS
   @RHF iter   4:   -76.00454136428772   -2.35561e-01   1.70613e-02 DIIS
   @RHF iter   5:   -76.02143137190315   -1.68900e-02   7.74648e-03 DIIS
   @RHF iter   6:   -76.02181554747990   -3.84176e-04   1.23242e-03 DIIS
   @RHF iter   7:   -76.02185405903920   -3.85116e-05   5.25187e-04 DIIS
   @RHF iter   8:   -76.02185524347939   -1.18444e-06   8.37039e-05 DIIS
   @RHF iter   9:   -76.02185531612380   -7.26444e-08   2.43186e-05 DIIS
   @RHF iter  10:   -76.02185531785855   -1.73475e-09   3.84437e-06 DIIS
   @RHF iter  11:   -76.02185531786591   -7.36122e-12   1.89819e-07 DIIS
   @RHF iter  12:   -76.02185531786618   -2.70006e-13   3.79484e-08 DIIS
   @RHF iter  13:   -76.02185531786616    2.84217e-14   6.46558e-09 DIIS
   @RHF iter  14:   -76.02185531786620   -4.26326e-14   6.32940e-10 DIIS

  ==> Post-Iterations <==

	Orbital Energies (a.u.)
	-----------------------

	Doubly Occupied:                                                      

	   1A1   -20.563937     2A1    -1.334280     1B2    -0.693358  
	   3A1    -0.569002     1B1    -0.496741  

	Virtual:                                                              

	   4A1     0.208853     2B2     0.300806     3B2     0.992855  
	   5A1     1.079363     6A1     1.130964     2B1     1.168664  
	   4B2     1.294488     7A1     1.417588     1A2     1.805091  
	   8A1     1.806638     3B1     1.919834     9A1     2.552603  
	   5B2     2.568899     6B2     2.775644     2A2     2.954885  
	   4B1     2.982394    10A1     3.347278    11A1     3.678123  
	   7B2     3.910535    12A1     4.093320  

	Final Occupation by Irrep:
	         A1    A2    B1    B2 
	DOCC [     3,    0,    1,    1 ]

  Energy converged.

  @RHF Final Energy:   -76.02185531786620

  ==> Properties <==

  Nuclear Dipole Moment: (a.u.)
     X:    -0.0000      Y:     0.0000      Z:     1.0051

  Electronic Dipole Moment: (a.u.)
     X:     0.0000      Y:     0.0000      Z:    -0.1320

  Dipole Moment: (a.u.)
     X:    -0.0000      Y:     0.0000      Z:     0.8732     Total:     0.8732

  Dipole Moment: (Debye)
     X:    -0.0000      Y:     0.0000      Z:     2.2194     Total:     2.2194


  Saving occupied orbitals to File 180.

*** tstop() called on ds12 at Tue Mar 27 13:36:37 2012
Module time:
	user time   =       0.06 seconds =       0.00 minutes
	system time =       0.01 seconds =       0.00 minutes
	total time  =          0 seconds =       0.00 minutes
Total time:
	user time   =       1.20 seconds =       0.02 minutes
	system time =       0.58 seconds =       0.01 minutes
	total time  =          3 seconds =       0.05 minutes

*** tstart() called on ds12
*** at Tue Mar 27 13:36:37 2012


	**************************************************
	* TRANSQT2: Program to transform integrals from  *
	*           the SO basis to the MO basis.        *
	*                                                *
	*            Daniel, David, & Justin             *
	**************************************************


	Input parameters:
	-----------------
	Wave function   =	CCSD
	Backtransform   =	No
	Print Level     =	1
	Print TEIs      =	No
	Reference wfn   =	RHF
	Derivative      =	None
	Delete TEI File =	Yes
	Memory (Mbytes) =	250.0
	Cache Level     =	2
	Cache Type      =	LRU
	Chkpt Parameters:
	--------------------
	Number of irreps     = 4
	Number of SOs        = 25
	Number of MOs        = 25
	Number of active MOs = 25

	Label	# SOs	# FZDC	# DOCC	# SOCC	# VIRT	# FZVR
	-----	-----	------	------	------	------	------
	 A1	   12	    0	    3	    0	    9	    0
	 A2	   2	    0	    0	    0	    2	    0
	 B1	   4	    0	    1	    0	    3	    0
	 B2	   7	    0	    1	    0	    6	    0

	Nuclear Rep. energy (chkpt) =      9.06327349118660
	SCF energy          (chkpt) =    -76.02185531786620

	Presorting SO-basis two-electron integrals.
	Sorting File: SO Ints (pq,rs) nbuckets = 1
	Frozen-core energy =    0.000000000000000
	Starting first half-transformation.
	Sorting half-transformed integrals.
	Starting second half-transformation.
	Two-electron integral transformation complete.

*** tstop() called on ds12 at Tue Mar 27 13:36:37 2012
Module time:
	user time   =       0.00 seconds =       0.00 minutes
	system time =       0.01 seconds =       0.00 minutes
	total time  =          0 seconds =       0.00 minutes
Total time:
	user time   =       1.20 seconds =       0.02 minutes
	system time =       0.59 seconds =       0.01 minutes
	total time  =          3 seconds =       0.05 minutes
Reading options from the PLUGIN_CCSD_SERIAL block
Calling plugin plugin_ccsd_serial.so.

*** tstart() called on ds12
*** at Tue Mar 27 13:36:37 2012



        *******************************************************
        *                                                     *
        *                        CCSD                         *
        *           Coupled-Cluster Singles Doubles           *
        *                                                     *
        *                   Eugene DePrince                   *
        *                                                     *
        *******************************************************



        Begin CC integral sort

        CC integral sort will use                      1.01 mb

        Initial sort.....done.

        IJKL block.......done.
        IJAK block 1/2...done.
        IJAK block 2/2...done.
        KCLD block.......done.
        KLCD block.......done.
        ABCI block 1/3...done.
        ABCI block 2/3...done.
        ABCI block 3/3...done.
        ABCD block 1/2...done.
        ABCD block 2/2...done.

  Time for integral sort:             0.02 s (user)
                                      0.03 s (system)
                                         0 s (total)

  available memory =                           238.42 mb
  minimum memory requirements for CCSD =         0.24 mb
  minimum memory requirements for CCSD(T) =      0.36 mb

  Define tiling:

        v(ab,cd) diagrams will be evaluated in   1 blocks.
        v(ab,ci) diagrams will be evaluated in   1 blocks over ov2.
        v(ab,ci) diagrams will be evaluated in   1 blocks over ov.

  Allocate cpu memory (     0.57 mb).....done.
  Initialize cpu memory..................done.

  Begin singles and doubles coupled cluster iterations

   Iter  DIIS          Energy       d(Energy)          |d(T)|     time
      0   0 1   -0.2003769688   -0.2003769688    0.1961115474        0
      1   1 1   -0.2046013025   -0.0042243338    0.0273884654        0
      2   2 1   -0.2085442454   -0.0039429429    0.0098297760        0
      3   3 1   -0.2090684378   -0.0005241924    0.0028095357        0
      4   4 1   -0.2090727893   -0.0000043515    0.0006513107        0
      5   5 1   -0.2090877418   -0.0000149525    0.0002075281        0
      6   6 1   -0.2090837756    0.0000039662    0.0000652358        0
      7   7 1   -0.2090832156    0.0000005600    0.0000157763        1
      8   8 1   -0.2090831946    0.0000000209    0.0000029627        0
      9   8 2   -0.2090831171    0.0000000775    0.0000007148        0
     10   8 3   -0.2090831376   -0.0000000204    0.0000001525        0
     11   8 4   -0.2090831359    0.0000000017    0.0000000298        0
     12   8 5   -0.2090831365   -0.0000000006    0.0000000048        0
     13   8 6   -0.2090831364    0.0000000001    0.0000000011        0
     14   8 7   -0.2090831364    0.0000000000    0.0000000002        0
     15   8 8   -0.2090831364    0.0000000000    0.0000000001        0

  CCSD iterations converged!

        OS MP2 correlation energy:           -0.150029846948
        SS MP2 correlation energy:           -0.050347121808
        MP2 correlation energy:              -0.200376968756
      * MP2 total energy:                   -76.222232286622

        OS CCSD correlation energy:          -0.164491183716
        SS CCSD correlation energy:          -0.044591952671
        CCSD correlation energy:             -0.209083136387
      * CCSD total energy:                  -76.230938454253

  Total time for CCSD iterations:       0.45 s (user)
                                        0.21 s (system)
                                           1 s (total)

  Time per iteration:                   0.03 s (user)
                                        0.01 s (system)
                                        0.07 s (total)

*** tstop() called on ds12 at Tue Mar 27 13:36:38 2012
Module time:
	user time   =       0.47 seconds =       0.01 minutes
	system time =       0.24 seconds =       0.00 minutes
	total time  =          1 seconds =       0.02 minutes
Total time:
	user time   =       1.67 seconds =       0.03 minutes
	system time =       0.83 seconds =       0.01 minutes
	total time  =          4 seconds =       0.07 minutes

*** tstart() called on ds12
*** at Tue Mar 27 13:36:38 2012


        *******************************************************
        *                                                     *
        *                      CCSD(T)                        *
        *                                                     *
        *******************************************************

        num_threads =                     1
        available memory =        238.06 mb
        memory requirements =       0.36 mb

        Number of ijk combinations: 35

        Computing (T) correction...

        % complete  total time
              11.4         0 s
              20.0         0 s
              31.4         0 s
              40.0         0 s
              51.4         0 s
              60.0         0 s
              71.4         0 s
              80.0         0 s
              91.4         0 s

        (T) energy                        -0.002886204277

        CCSD(T) correlation energy        -0.211969340663
      * CCSD(T) total energy             -76.233824658529

*** tstop() called on ds12 at Tue Mar 27 13:36:38 2012
Module time:
	user time   =       0.07 seconds =       0.00 minutes
	system time =       0.01 seconds =       0.00 minutes
	total time  =          0 seconds =       0.00 minutes
Total time:
	user time   =       1.74 seconds =       0.03 minutes
	system time =       0.84 seconds =       0.01 minutes
	total time  =          4 seconds =       0.07 minutes

  //>>>>>>>>>>>>>>>>>>>>>>>>>>>>>>>>>>>//
  //    Loading displacement 4 of 5    //
  //<<<<<<<<<<<<<<<<<<<<<<<<<<<<<<<<<<<//

*** tstart() called on ds12
*** at Tue Mar 27 13:36:38 2012

	There are an even number of electrons - assuming singlet.
	Specify the multiplicity with the MULTP option in the
	input if this is incorrect


         ---------------------------------------------------------
                                   SCF
            by Justin Turney, Rob Parrish, and Andy Simmonett
                              RHF Reference
                        1 Threads,    250 MiB Core
         ---------------------------------------------------------

  ==> Geometry <==

    Molecular point group: c2v

    Geometry (in Angstrom), charge = 0, multiplicity = 1:

       Center              X                  Y                   Z       
    ------------   -----------------  -----------------  -----------------
           O         -0.000000000000     0.000000000000    -0.067578587269
           H          0.000000000000    -0.757266265522     0.536260610269
           H         -0.000000000000     0.757266265522     0.536260610269

  Running in c2v symmetry.

  Nuclear repulsion =    9.091233999648598

  Charge       = 0
  Multiplicity = 1
  Electrons    = 10
  Nalpha       = 5
  Nbeta        = 5

  ==> Algorithm <==

  SCF Algorithm Type is PK.
  DIIS enabled.
  MOM disabled.
  Fractional occupation disabled.
  Guess Type is CORE.
  Energy threshold   = 1.00e-10
  Density threshold  = 1.00e-10
  Integral threshold = 0.00e+00

  ==> Primary Basis <==

  Basis Set: 6-31G**
    Number of shells: 12
    Number of basis function: 25
    Number of Cartesian functions: 25
    Spherical Harmonics?: false
    Max angular momentum: 2

  ==> Pre-Iterations <==

  Minimum eigenvalue in the overlap matrix is 2.2254739623E-02.
  Using Symmetric Orthogonalization.
  SCF Guess: Core (One-Electron) Hamiltonian.

  Initial RHF energy:   -58.67173872790900

   -------------------------------------------------------
    Irrep   Nso     Nmo     Nalpha   Nbeta   Ndocc  Nsocc
   -------------------------------------------------------
     A1        12      12       3       3       3       0
     A2         2       2       0       0       0       0
     B1         4       4       1       1       1       0
     B2         7       7       1       1       1       0
   -------------------------------------------------------
    Total      25      25       5       5       5       0
   -------------------------------------------------------

  ==> Integral Setup <==

 MINTS: Wrapper to libmints.
   by Justin Turney

   Calculation information:
      Number of atoms:                   3
      Number of AO shells:              12
      Number of SO shells:               9
      Number of primitives:             25
      Number of atomic orbitals:        25
      Number of basis functions:        25

      Number of irreps:                  4
      Number of functions per irrep: [  12    2    4    7 ]

      Overlap, kinetic, potential, dipole, and quadrupole integrals
        stored in file 35.

      Computing two-electron integrals...done
      Computed 13617 non-zero two-electron integrals.
        Stored in file 33.

  ==> Iterations <==

                        Total Energy        Delta E     Density RMS

   @RHF iter   1:   -68.29099184054387   -9.61925e+00   0.00000e+00 
	Occupation by irrep:
	         A1    A2    B1    B2 
	DOCC [     4,    0,    0,    1 ]
   @RHF iter   2:   -71.40097079134986   -3.10998e+00   5.22424e-01 DIIS
	Occupation by irrep:
	         A1    A2    B1    B2 
	DOCC [     3,    0,    1,    1 ]
   @RHF iter   3:   -75.76800546272686   -4.36703e+00   4.96537e-01 DIIS
   @RHF iter   4:   -76.00476136272519   -2.36756e-01   1.71064e-02 DIIS
   @RHF iter   5:   -76.02171048373972   -1.69491e-02   7.74964e-03 DIIS
   @RHF iter   6:   -76.02209135523363   -3.80871e-04   1.22746e-03 DIIS
   @RHF iter   7:   -76.02212921446248   -3.78592e-05   5.20173e-04 DIIS
   @RHF iter   8:   -76.02213036677186   -1.15231e-06   8.26481e-05 DIIS
   @RHF iter   9:   -76.02213043751037   -7.07385e-08   2.39475e-05 DIIS
   @RHF iter  10:   -76.02213043919257   -1.68220e-09   3.80418e-06 DIIS
   @RHF iter  11:   -76.02213043919947   -6.90648e-12   1.82983e-07 DIIS
   @RHF iter  12:   -76.02213043919967   -1.98952e-13   3.65437e-08 DIIS
   @RHF iter  13:   -76.02213043919969   -1.42109e-14   6.34836e-09 DIIS
   @RHF iter  14:   -76.02213043919969    0.00000e+00   6.31051e-10 DIIS

  ==> Post-Iterations <==

	Orbital Energies (a.u.)
	-----------------------

	Doubly Occupied:                                                      

	   1A1   -20.563575     2A1    -1.335979     1B2    -0.694375  
	   3A1    -0.570092     1B1    -0.497047  

	Virtual:                                                              

	   4A1     0.209441     2B2     0.301575     3B2     0.993118  
	   5A1     1.082411     6A1     1.131334     2B1     1.168560  
	   4B2     1.294492     7A1     1.419153     8A1     1.804469  
	   1A2     1.806024     3B1     1.919019     9A1     2.556843  
	   5B2     2.573916     6B2     2.781868     2A2     2.956705  
	   4B1     2.987835    10A1     3.352143    11A1     3.684285  
	   7B2     3.915670    12A1     4.093958  

	Final Occupation by Irrep:
	         A1    A2    B1    B2 
	DOCC [     3,    0,    1,    1 ]

  Energy converged.

  @RHF Final Energy:   -76.02213043919969

  ==> Properties <==

  Nuclear Dipole Moment: (a.u.)
     X:     0.0000      Y:     0.0000      Z:     1.0051

  Electronic Dipole Moment: (a.u.)
     X:     0.0000      Y:     0.0000      Z:    -0.1311

  Dipole Moment: (a.u.)
     X:     0.0000      Y:     0.0000      Z:     0.8741     Total:     0.8741

  Dipole Moment: (Debye)
     X:     0.0000      Y:     0.0000      Z:     2.2217     Total:     2.2217


  Saving occupied orbitals to File 180.

*** tstop() called on ds12 at Tue Mar 27 13:36:38 2012
Module time:
	user time   =       0.05 seconds =       0.00 minutes
	system time =       0.01 seconds =       0.00 minutes
	total time  =          0 seconds =       0.00 minutes
Total time:
	user time   =       1.79 seconds =       0.03 minutes
	system time =       0.85 seconds =       0.01 minutes
	total time  =          4 seconds =       0.07 minutes

*** tstart() called on ds12
*** at Tue Mar 27 13:36:38 2012


	**************************************************
	* TRANSQT2: Program to transform integrals from  *
	*           the SO basis to the MO basis.        *
	*                                                *
	*            Daniel, David, & Justin             *
	**************************************************


	Input parameters:
	-----------------
	Wave function   =	CCSD
	Backtransform   =	No
	Print Level     =	1
	Print TEIs      =	No
	Reference wfn   =	RHF
	Derivative      =	None
	Delete TEI File =	Yes
	Memory (Mbytes) =	250.0
	Cache Level     =	2
	Cache Type      =	LRU
	Chkpt Parameters:
	--------------------
	Number of irreps     = 4
	Number of SOs        = 25
	Number of MOs        = 25
	Number of active MOs = 25

	Label	# SOs	# FZDC	# DOCC	# SOCC	# VIRT	# FZVR
	-----	-----	------	------	------	------	------
	 A1	   12	    0	    3	    0	    9	    0
	 A2	   2	    0	    0	    0	    2	    0
	 B1	   4	    0	    1	    0	    3	    0
	 B2	   7	    0	    1	    0	    6	    0

	Nuclear Rep. energy (chkpt) =      9.09123399964860
	SCF energy          (chkpt) =    -76.02213043919969

	Presorting SO-basis two-electron integrals.
	Sorting File: SO Ints (pq,rs) nbuckets = 1
	Frozen-core energy =    0.000000000000000
	Starting first half-transformation.
	Sorting half-transformed integrals.
	Starting second half-transformation.
	Two-electron integral transformation complete.

*** tstop() called on ds12 at Tue Mar 27 13:36:38 2012
Module time:
	user time   =       0.01 seconds =       0.00 minutes
	system time =       0.01 seconds =       0.00 minutes
	total time  =          0 seconds =       0.00 minutes
Total time:
	user time   =       1.80 seconds =       0.03 minutes
	system time =       0.86 seconds =       0.01 minutes
	total time  =          4 seconds =       0.07 minutes
Reading options from the PLUGIN_CCSD_SERIAL block
Calling plugin plugin_ccsd_serial.so.

*** tstart() called on ds12
*** at Tue Mar 27 13:36:38 2012



        *******************************************************
        *                                                     *
        *                        CCSD                         *
        *           Coupled-Cluster Singles Doubles           *
        *                                                     *
        *                   Eugene DePrince                   *
        *                                                     *
        *******************************************************



        Begin CC integral sort

        CC integral sort will use                      1.01 mb

        Initial sort.....done.

        IJKL block.......done.
        IJAK block 1/2...done.
        IJAK block 2/2...done.
        KCLD block.......done.
        KLCD block.......done.
        ABCI block 1/3...done.
        ABCI block 2/3...done.
        ABCI block 3/3...done.
        ABCD block 1/2...done.
        ABCD block 2/2...done.

  Time for integral sort:             0.01 s (user)
                                      0.02 s (system)
                                         0 s (total)

  available memory =                           238.42 mb
  minimum memory requirements for CCSD =         0.24 mb
  minimum memory requirements for CCSD(T) =      0.36 mb

  Define tiling:

        v(ab,cd) diagrams will be evaluated in   1 blocks.
        v(ab,ci) diagrams will be evaluated in   1 blocks over ov2.
        v(ab,ci) diagrams will be evaluated in   1 blocks over ov.

  Allocate cpu memory (     0.57 mb).....done.
  Initialize cpu memory..................done.

  Begin singles and doubles coupled cluster iterations

   Iter  DIIS          Energy       d(Energy)          |d(T)|     time
      0   0 1   -0.2001923786   -0.2001923786    0.1957887897        0
      1   1 1   -0.2044477991   -0.0042554204    0.0272746572        0
      2   2 1   -0.2083657939   -0.0039179948    0.0097582544        0
      3   3 1   -0.2088844634   -0.0005186695    0.0027800505        0
      4   4 1   -0.2088887549   -0.0000042914    0.0006420252        1
      5   5 1   -0.2089034853   -0.0000147305    0.0002031271        0
      6   6 1   -0.2088996492    0.0000038361    0.0000638219        0
      7   7 1   -0.2088990936    0.0000005556    0.0000155294        0
      8   8 1   -0.2088990762    0.0000000174    0.0000029121        0
      9   8 2   -0.2088990000    0.0000000762    0.0000006994        0
     10   8 3   -0.2088990201   -0.0000000200    0.0000001488        0
     11   8 4   -0.2088990185    0.0000000016    0.0000000290        0
     12   8 5   -0.2088990191   -0.0000000006    0.0000000047        0
     13   8 6   -0.2088990190    0.0000000001    0.0000000010        0
     14   8 7   -0.2088990190    0.0000000000    0.0000000002        0
     15   8 8   -0.2088990189    0.0000000000    0.0000000001        0

  CCSD iterations converged!

        OS MP2 correlation energy:           -0.149880226965
        SS MP2 correlation energy:           -0.050312151658
        MP2 correlation energy:              -0.200192378623
      * MP2 total energy:                   -76.222322817823

        OS CCSD correlation energy:          -0.164309181654
        SS CCSD correlation energy:          -0.044589837294
        CCSD correlation energy:             -0.208899018948
      * CCSD total energy:                  -76.231029458148

  Total time for CCSD iterations:       0.45 s (user)
                                        0.22 s (system)
                                           1 s (total)

  Time per iteration:                   0.03 s (user)
                                        0.01 s (system)
                                        0.07 s (total)

*** tstop() called on ds12 at Tue Mar 27 13:36:39 2012
Module time:
	user time   =       0.46 seconds =       0.01 minutes
	system time =       0.24 seconds =       0.00 minutes
	total time  =          1 seconds =       0.02 minutes
Total time:
	user time   =       2.26 seconds =       0.04 minutes
	system time =       1.10 seconds =       0.02 minutes
	total time  =          5 seconds =       0.08 minutes

*** tstart() called on ds12
*** at Tue Mar 27 13:36:39 2012


        *******************************************************
        *                                                     *
        *                      CCSD(T)                        *
        *                                                     *
        *******************************************************

        num_threads =                     1
        available memory =        238.06 mb
        memory requirements =       0.36 mb

        Number of ijk combinations: 35

        Computing (T) correction...

        % complete  total time
              11.4         0 s
              20.0         0 s
              31.4         0 s
              40.0         0 s
              51.4         0 s
              60.0         0 s
              71.4         0 s
              80.0         0 s
              91.4         0 s

        (T) energy                        -0.002877489467

        CCSD(T) correlation energy        -0.211776508415
      * CCSD(T) total energy             -76.233906947615

*** tstop() called on ds12 at Tue Mar 27 13:36:39 2012
Module time:
	user time   =       0.07 seconds =       0.00 minutes
	system time =       0.01 seconds =       0.00 minutes
	total time  =          0 seconds =       0.00 minutes
Total time:
	user time   =       2.33 seconds =       0.04 minutes
	system time =       1.11 seconds =       0.02 minutes
	total time  =          5 seconds =       0.08 minutes

  //>>>>>>>>>>>>>>>>>>>>>>>>>>>>>>>>>>>//
  //    Loading displacement 5 of 5    //
  //<<<<<<<<<<<<<<<<<<<<<<<<<<<<<<<<<<<//

*** tstart() called on ds12
*** at Tue Mar 27 13:36:39 2012

	There are an even number of electrons - assuming singlet.
	Specify the multiplicity with the MULTP option in the
	input if this is incorrect


         ---------------------------------------------------------
                                   SCF
            by Justin Turney, Rob Parrish, and Andy Simmonett
                              RHF Reference
                        1 Threads,    250 MiB Core
         ---------------------------------------------------------

  ==> Geometry <==

    Molecular point group: c2v

    Geometry (in Angstrom), charge = 0, multiplicity = 1:

       Center              X                  Y                   Z       
    ------------   -----------------  -----------------  -----------------
           O         -0.000000000000     0.000000000000    -0.067578587269
           H          0.000000000000    -0.759129912147     0.536260610269
           H         -0.000000000000     0.759129912147     0.536260610269

  Running in c2v symmetry.

  Nuclear repulsion =    9.077238153630930

  Charge       = 0
  Multiplicity = 1
  Electrons    = 10
  Nalpha       = 5
  Nbeta        = 5

  ==> Algorithm <==

  SCF Algorithm Type is PK.
  DIIS enabled.
  MOM disabled.
  Fractional occupation disabled.
  Guess Type is CORE.
  Energy threshold   = 1.00e-10
  Density threshold  = 1.00e-10
  Integral threshold = 0.00e+00

  ==> Primary Basis <==

  Basis Set: 6-31G**
    Number of shells: 12
    Number of basis function: 25
    Number of Cartesian functions: 25
    Spherical Harmonics?: false
    Max angular momentum: 2

  ==> Pre-Iterations <==

  Minimum eigenvalue in the overlap matrix is 2.2308645666E-02.
  Using Symmetric Orthogonalization.
  SCF Guess: Core (One-Electron) Hamiltonian.

  Initial RHF energy:   -58.67612896328605

   -------------------------------------------------------
    Irrep   Nso     Nmo     Nalpha   Nbeta   Ndocc  Nsocc
   -------------------------------------------------------
     A1        12      12       3       3       3       0
     A2         2       2       0       0       0       0
     B1         4       4       1       1       1       0
     B2         7       7       1       1       1       0
   -------------------------------------------------------
    Total      25      25       5       5       5       0
   -------------------------------------------------------

  ==> Integral Setup <==

 MINTS: Wrapper to libmints.
   by Justin Turney

   Calculation information:
      Number of atoms:                   3
      Number of AO shells:              12
      Number of SO shells:               9
      Number of primitives:             25
      Number of atomic orbitals:        25
      Number of basis functions:        25

      Number of irreps:                  4
      Number of functions per irrep: [  12    2    4    7 ]

      Overlap, kinetic, potential, dipole, and quadrupole integrals
        stored in file 35.

      Computing two-electron integrals...done
      Computed 13617 non-zero two-electron integrals.
        Stored in file 33.

  ==> Iterations <==

                        Total Energy        Delta E     Density RMS

   @RHF iter   1:   -68.29457538492355   -9.61845e+00   0.00000e+00 
	Occupation by irrep:
	         A1    A2    B1    B2 
	DOCC [     4,    0,    0,    1 ]
   @RHF iter   2:   -71.40214895176787   -3.10757e+00   5.21557e-01 DIIS
	Occupation by irrep:
	         A1    A2    B1    B2 
	DOCC [     3,    0,    1,    1 ]
   @RHF iter   3:   -75.76849950140169   -4.36635e+00   4.95640e-01 DIIS
   @RHF iter   4:   -76.00465639463494   -2.36157e-01   1.70838e-02 DIIS
   @RHF iter   5:   -76.02157592921310   -1.69195e-02   7.74804e-03 DIIS
   @RHF iter   6:   -76.02195844293938   -3.82514e-04   1.22994e-03 DIIS
   @RHF iter   7:   -76.02199662644668   -3.81835e-05   5.22673e-04 DIIS
   @RHF iter   8:   -76.02199779472252   -1.16828e-06   8.31744e-05 DIIS
   @RHF iter   9:   -76.02199786640749   -7.16850e-08   2.41323e-05 DIIS
   @RHF iter  10:   -76.02199786811558   -1.70809e-09   3.82411e-06 DIIS
   @RHF iter  11:   -76.02199786812278   -7.20490e-12   1.86355e-07 DIIS
   @RHF iter  12:   -76.02199786812301   -2.27374e-13   3.72443e-08 DIIS
   @RHF iter  13:   -76.02199786812299    1.42109e-14   6.40841e-09 DIIS
   @RHF iter  14:   -76.02199786812302   -2.84217e-14   6.31961e-10 DIIS

  ==> Post-Iterations <==

	Orbital Energies (a.u.)
	-----------------------

	Doubly Occupied:                                                      

	   1A1   -20.563756     2A1    -1.335128     1B2    -0.693868  
	   3A1    -0.569546     1B1    -0.496894  

	Virtual:                                                              

	   4A1     0.209148     2B2     0.301190     3B2     0.992987  
	   5A1     1.080901     6A1     1.131133     2B1     1.168613  
	   4B2     1.294487     7A1     1.418369     1A2     1.805555  
	   8A1     1.805556     3B1     1.919426     9A1     2.554725  
	   5B2     2.571406     6B2     2.778746     2A2     2.955797  
	   4B1     2.985114    10A1     3.349725    11A1     3.681198  
	   7B2     3.913090    12A1     4.093637  

	Final Occupation by Irrep:
	         A1    A2    B1    B2 
	DOCC [     3,    0,    1,    1 ]

  Energy converged.

  @RHF Final Energy:   -76.02199786812302

  ==> Properties <==

  Nuclear Dipole Moment: (a.u.)
     X:    -0.0000      Y:     0.0000      Z:     1.0051

  Electronic Dipole Moment: (a.u.)
     X:     0.0000      Y:     0.0000      Z:    -0.1315

  Dipole Moment: (a.u.)
     X:    -0.0000      Y:     0.0000      Z:     0.8736     Total:     0.8736

  Dipole Moment: (Debye)
     X:    -0.0000      Y:     0.0000      Z:     2.2205     Total:     2.2205


  Saving occupied orbitals to File 180.

*** tstop() called on ds12 at Tue Mar 27 13:36:39 2012
Module time:
	user time   =       0.05 seconds =       0.00 minutes
	system time =       0.01 seconds =       0.00 minutes
	total time  =          0 seconds =       0.00 minutes
Total time:
	user time   =       2.38 seconds =       0.04 minutes
	system time =       1.12 seconds =       0.02 minutes
	total time  =          5 seconds =       0.08 minutes

*** tstart() called on ds12
*** at Tue Mar 27 13:36:39 2012


	**************************************************
	* TRANSQT2: Program to transform integrals from  *
	*           the SO basis to the MO basis.        *
	*                                                *
	*            Daniel, David, & Justin             *
	**************************************************


	Input parameters:
	-----------------
	Wave function   =	CCSD
	Backtransform   =	No
	Print Level     =	1
	Print TEIs      =	No
	Reference wfn   =	RHF
	Derivative      =	None
	Delete TEI File =	Yes
	Memory (Mbytes) =	250.0
	Cache Level     =	2
	Cache Type      =	LRU
	Chkpt Parameters:
	--------------------
	Number of irreps     = 4
	Number of SOs        = 25
	Number of MOs        = 25
	Number of active MOs = 25

	Label	# SOs	# FZDC	# DOCC	# SOCC	# VIRT	# FZVR
	-----	-----	------	------	------	------	------
	 A1	   12	    0	    3	    0	    9	    0
	 A2	   2	    0	    0	    0	    2	    0
	 B1	   4	    0	    1	    0	    3	    0
	 B2	   7	    0	    1	    0	    6	    0

	Nuclear Rep. energy (chkpt) =      9.07723815363093
	SCF energy          (chkpt) =    -76.02199786812302

	Presorting SO-basis two-electron integrals.
	Sorting File: SO Ints (pq,rs) nbuckets = 1
	Frozen-core energy =    0.000000000000000
	Starting first half-transformation.
	Sorting half-transformed integrals.
	Starting second half-transformation.
	Two-electron integral transformation complete.

*** tstop() called on ds12 at Tue Mar 27 13:36:39 2012
Module time:
	user time   =       0.01 seconds =       0.00 minutes
	system time =       0.01 seconds =       0.00 minutes
	total time  =          0 seconds =       0.00 minutes
Total time:
	user time   =       2.39 seconds =       0.04 minutes
	system time =       1.13 seconds =       0.02 minutes
	total time  =          5 seconds =       0.08 minutes
Reading options from the PLUGIN_CCSD_SERIAL block
Calling plugin plugin_ccsd_serial.so.

*** tstart() called on ds12
*** at Tue Mar 27 13:36:39 2012



        *******************************************************
        *                                                     *
        *                        CCSD                         *
        *           Coupled-Cluster Singles Doubles           *
        *                                                     *
        *                   Eugene DePrince                   *
        *                                                     *
        *******************************************************



        Begin CC integral sort

        CC integral sort will use                      1.01 mb

        Initial sort.....done.

        IJKL block.......done.
        IJAK block 1/2...done.
        IJAK block 2/2...done.
        KCLD block.......done.
        KLCD block.......done.
        ABCI block 1/3...done.
        ABCI block 2/3...done.
        ABCI block 3/3...done.
        ABCD block 1/2...done.
        ABCD block 2/2...done.

  Time for integral sort:             0.01 s (user)
                                      0.01 s (system)
                                         1 s (total)

  available memory =                           238.42 mb
  minimum memory requirements for CCSD =         0.24 mb
  minimum memory requirements for CCSD(T) =      0.36 mb

  Define tiling:

        v(ab,cd) diagrams will be evaluated in   1 blocks.
        v(ab,ci) diagrams will be evaluated in   1 blocks over ov2.
        v(ab,ci) diagrams will be evaluated in   1 blocks over ov.

  Allocate cpu memory (     0.57 mb).....done.
  Initialize cpu memory..................done.

  Begin singles and doubles coupled cluster iterations

   Iter  DIIS          Energy       d(Energy)          |d(T)|     time
      0   0 1   -0.2002845910   -0.2002845910    0.1959499553        0
      1   1 1   -0.2045245078   -0.0042399168    0.0273313957        0
      2   2 1   -0.2084549417   -0.0039304339    0.0097938983        0
      3   3 1   -0.2089763595   -0.0005214177    0.0027947242        0
      4   4 1   -0.2089806809   -0.0000043215    0.0006466413        0
      5   5 1   -0.2089955219   -0.0000148410    0.0002053141        0
      6   6 1   -0.2089916212    0.0000039007    0.0000645253        0
      7   7 1   -0.2089910634    0.0000005578    0.0000156523        0
      8   8 1   -0.2089910442    0.0000000192    0.0000029372        0
      9   8 2   -0.2089909674    0.0000000769    0.0000007070        0
     10   8 3   -0.2089909876   -0.0000000202    0.0000001507        0
     11   8 4   -0.2089909860    0.0000000016    0.0000000294        0
     12   8 5   -0.2089909866   -0.0000000006    0.0000000048        0
     13   8 6   -0.2089909865    0.0000000001    0.0000000011        0
     14   8 7   -0.2089909865    0.0000000000    0.0000000002        0
     15   8 8   -0.2089909865    0.0000000000    0.0000000001        0

  CCSD iterations converged!

        OS MP2 correlation energy:           -0.149954968994
        SS MP2 correlation energy:           -0.050329621977
        MP2 correlation energy:              -0.200284590972
      * MP2 total energy:                   -76.222282459095

        OS CCSD correlation energy:          -0.164400081317
        SS CCSD correlation energy:          -0.044590905134
        CCSD correlation energy:             -0.208990986451
      * CCSD total energy:                  -76.230988854574

  Total time for CCSD iterations:       0.42 s (user)
                                        0.21 s (system)
                                           0 s (total)

  Time per iteration:                   0.03 s (user)
                                        0.01 s (system)
                                        0.00 s (total)

*** tstop() called on ds12 at Tue Mar 27 13:36:40 2012
Module time:
	user time   =       0.43 seconds =       0.01 minutes
	system time =       0.22 seconds =       0.00 minutes
	total time  =          1 seconds =       0.02 minutes
Total time:
	user time   =       2.82 seconds =       0.05 minutes
	system time =       1.35 seconds =       0.02 minutes
	total time  =          6 seconds =       0.10 minutes

*** tstart() called on ds12
*** at Tue Mar 27 13:36:40 2012


        *******************************************************
        *                                                     *
        *                      CCSD(T)                        *
        *                                                     *
        *******************************************************

        num_threads =                     1
        available memory =        238.06 mb
        memory requirements =       0.36 mb

        Number of ijk combinations: 35

        Computing (T) correction...

        % complete  total time
              11.4         0 s
              20.0         0 s
              31.4         0 s
              40.0         0 s
              51.4         0 s
              60.0         0 s
              71.4         0 s
              80.0         1 s
              91.4         1 s

        (T) energy                        -0.002881826187

        CCSD(T) correlation energy        -0.211872812638
      * CCSD(T) total energy             -76.233870680761

*** tstop() called on ds12 at Tue Mar 27 13:36:41 2012
Module time:
	user time   =       0.07 seconds =       0.00 minutes
	system time =       0.01 seconds =       0.00 minutes
	total time  =          1 seconds =       0.02 minutes
Total time:
	user time   =       2.89 seconds =       0.05 minutes
	system time =       1.36 seconds =       0.02 minutes
	total time  =          7 seconds =       0.12 minutes

-------------------------------------------------------------

  Computing gradient from energies (fd_1_0).
	Using 3-point formula.
	Energy without displacement:  -76.2338706808
	Check energies below for precision!
	Forces are for mass-weighted, symmetry-adapted cartesians (in au).

	 Coord      Energy(-)        Energy(+)        Force
	    0    -76.2338243946   -76.2339105650    -0.0086170311
	    1    -76.2338246585   -76.2339069476    -0.0082289085

	Gradient written to file11.
	Gradient saved to wavefunction.

-------------------------------------------------------------

			----------------------------------
			 OPTKING: for geometry optimizations  
			  - R.A. King,  Bethel University   
			------------------------------------

	Internal coordinates to be generated automatically.
	Detected frag with atoms:  1 2 3
	---Fragment 1 Bond Connectivity---
	 1 : 2 3
	 2 : 1
	 3 : 1

	---Fragment 1 Geometry and Gradient---
	 O          -0.0000000000        0.0000000000       -0.1277050224
	 H           0.0000000000       -1.4345476332        1.0133856893
	 H          -0.0000000000        1.4345476332        1.0133856893
	             0.0000000000        0.0000000000       -0.0115290236
	             0.0000000000       -0.0058414385        0.0057645118
	             0.0000000000        0.0058414385        0.0057645118

	Previous optimization step data not found.  Starting new optimization.

	---Fragment 1 Intrafragment Coordinates---
	 * Coordinate *           * BOHR/RAD *       * ANG/DEG *
	 R(1,2)           =         1.833034	       0.970000
	 R(1,3)           =         1.833034	       0.970000
	 B(2,1,3)         =         1.797689	     103.000000

	Current energy   :       -76.2338706808

	Generating empirical Hessian (Schlegel '84) for each fragment.
	Following RFO solution 0.
	Projected energy change by RFO approximation:        -0.0001327108

	Back-transformation to cartesian coordinates...
	Successfully converged to displaced geometry.

	---Internal Coordinate Step in ANG or DEG, aJ/ANG or AJ/DEG ---
	 ----------------------------------------------------------------------
	 Coordinate             Previous        Force       Change         New 
	 ----------             --------       ------       ------       ------
	 R(1,2)          =      0.970000    -0.067228    -0.008086     0.961914
	 R(1,3)          =      0.970000    -0.067228    -0.008086     0.961914
	 B(2,1,3)        =    103.000000     0.000122     0.573387   103.573387
	 ----------------------------------------------------------------------

  ==> Convergence Check <==

  Measures of convergence in internal coordinates in au.
  Criteria marked as inactive (o), active & met (*), and active & unmet ( ).
  --------------------------------------------------------------------------------------------- ~
   Step     Total Energy     Delta E     MAX Force     RMS Force      MAX Disp      RMS Disp    ~
  --------------------------------------------------------------------------------------------- ~
    Convergence Criteria    1.00e-06 *    3.00e-04 *             o    1.20e-03 *             o  ~
  --------------------------------------------------------------------------------------------- ~
      1     -76.23387068   -7.62e+01      8.16e-03      6.73e-03 o    1.53e-02      1.37e-02 o  ~
  ---------------------------------------------------------------------------------------------

	Writing optimization data to binary file.
	Structure for next step:
	Cartesian Geometry (au)
	    O    -0.0000000000   0.0000000000  -0.1166087318
	    H     0.0000000000  -1.4282336857   1.0078375440
	    H    -0.0000000000   1.4282336857   1.0078375440
			--------------------------
			 OPTKING Finished Execution 
			--------------------------

-------------------------------------------------------------

  Using finite-differences of energies to determine gradients (fd_geoms_1_0).
	Generating geometries for use with 3-point formula.
	Displacement size will be 5.00e-03.
	Number of atoms is 3.
	Number of symmetric SALC's is 2.
	Number of displacements (including reference) is 5.

-------------------------------------------------------------

  //>>>>>>>>>>>>>>>>>>>>>>>>>>>>>>>>>>>//
  //    Loading displacement 1 of 5    //
  //<<<<<<<<<<<<<<<<<<<<<<<<<<<<<<<<<<<//

*** tstart() called on ds12
*** at Tue Mar 27 13:36:41 2012

	There are an even number of electrons - assuming singlet.
	Specify the multiplicity with the MULTP option in the
	input if this is incorrect


         ---------------------------------------------------------
                                   SCF
            by Justin Turney, Rob Parrish, and Andy Simmonett
                              RHF Reference
                        1 Threads,    250 MiB Core
         ---------------------------------------------------------

  ==> Geometry <==

    Molecular point group: c2v

    Geometry (in Angstrom), charge = 0, multiplicity = 1:

       Center              X                  Y                   Z       
    ------------   -----------------  -----------------  -----------------
           O          0.000000000000     0.000000000000    -0.066814178907
           H          0.000000000000    -0.755788715019     0.530194752553
           H         -0.000000000000     0.755788715019     0.530194752553

  Running in c2v symmetry.

  Nuclear repulsion =    9.140960886384244

  Charge       = 0
  Multiplicity = 1
  Electrons    = 10
  Nalpha       = 5
  Nbeta        = 5

  ==> Algorithm <==

  SCF Algorithm Type is PK.
  DIIS enabled.
  MOM disabled.
  Fractional occupation disabled.
  Guess Type is CORE.
  Energy threshold   = 1.00e-10
  Density threshold  = 1.00e-10
  Integral threshold = 0.00e+00

  ==> Primary Basis <==

  Basis Set: 6-31G**
    Number of shells: 12
    Number of basis function: 25
    Number of Cartesian functions: 25
    Spherical Harmonics?: false
    Max angular momentum: 2

  ==> Pre-Iterations <==

  Minimum eigenvalue in the overlap matrix is 2.2076844270E-02.
  Using Symmetric Orthogonalization.
  SCF Guess: Core (One-Electron) Hamiltonian.

  Initial RHF energy:   -58.65729987084172

   -------------------------------------------------------
    Irrep   Nso     Nmo     Nalpha   Nbeta   Ndocc  Nsocc
   -------------------------------------------------------
     A1        12      12       3       3       3       0
     A2         2       2       0       0       0       0
     B1         4       4       1       1       1       0
     B2         7       7       1       1       1       0
   -------------------------------------------------------
    Total      25      25       5       5       5       0
   -------------------------------------------------------

  ==> Integral Setup <==

 MINTS: Wrapper to libmints.
   by Justin Turney

   Calculation information:
      Number of atoms:                   3
      Number of AO shells:              12
      Number of SO shells:               9
      Number of primitives:             25
      Number of atomic orbitals:        25
      Number of basis functions:        25

      Number of irreps:                  4
      Number of functions per irrep: [  12    2    4    7 ]

      Overlap, kinetic, potential, dipole, and quadrupole integrals
        stored in file 35.

      Computing two-electron integrals...done
      Computed 13617 non-zero two-electron integrals.
        Stored in file 33.

  ==> Iterations <==

                        Total Energy        Delta E     Density RMS

   @RHF iter   1:   -68.28029643046938   -9.62300e+00   0.00000e+00 
[...]

        num_threads =                     1
        available memory =        238.06 mb
        memory requirements =       0.36 mb

        Number of ijk combinations: 35

        Computing (T) correction...

        % complete  total time
              11.4         0 s
              20.0         0 s
              31.4         0 s
              40.0         0 s
              51.4         0 s
              60.0         0 s
              71.4         0 s
              80.0         0 s
              91.4         0 s

        (T) energy                        -0.002837833790

        CCSD(T) correlation energy        -0.211066208999
      * CCSD(T) total energy             -76.234013357788

*** tstop() called on ds12 at Tue Mar 27 13:36:50 2012
Module time:
	user time   =       0.07 seconds =       0.00 minutes
	system time =       0.01 seconds =       0.00 minutes
	total time  =          0 seconds =       0.00 minutes
Total time:
	user time   =       7.69 seconds =       0.13 minutes
	system time =       3.58 seconds =       0.06 minutes
	total time  =         16 seconds =       0.27 minutes

  //>>>>>>>>>>>>>>>>>>>>>>>>>>>>>>>>>>>//
  //    Loading displacement 5 of 5    //
  //<<<<<<<<<<<<<<<<<<<<<<<<<<<<<<<<<<<//

*** tstart() called on ds12
*** at Tue Mar 27 13:36:50 2012

	There are an even number of electrons - assuming singlet.
	Specify the multiplicity with the MULTP option in the
	input if this is incorrect


         ---------------------------------------------------------
                                   SCF
            by Justin Turney, Rob Parrish, and Andy Simmonett
                              RHF Reference
                        1 Threads,    250 MiB Core
         ---------------------------------------------------------

  ==> Geometry <==

    Molecular point group: c2v

    Geometry (in Angstrom), charge = 0, multiplicity = 1:

       Center              X                  Y                   Z       
    ------------   -----------------  -----------------  -----------------
           O          0.000000000000     0.000000000000    -0.066285777152
           H          0.000000000000    -0.757218403181     0.526001692903
           H         -0.000000000000     0.757218403181     0.526001692903

  Running in c2v symmetry.

  Nuclear repulsion =    9.156702804942709

  Charge       = 0
  Multiplicity = 1
  Electrons    = 10
  Nalpha       = 5
  Nbeta        = 5

  ==> Algorithm <==

  SCF Algorithm Type is PK.
  DIIS enabled.
  MOM disabled.
  Fractional occupation disabled.
  Guess Type is CORE.
  Energy threshold   = 1.00e-10
  Density threshold  = 1.00e-10
  Integral threshold = 0.00e+00

  ==> Primary Basis <==

  Basis Set: 6-31G**
    Number of shells: 12
    Number of basis function: 25
    Number of Cartesian functions: 25
    Spherical Harmonics?: false
    Max angular momentum: 2

  ==> Pre-Iterations <==

  Minimum eigenvalue in the overlap matrix is 2.2025965445E-02.
  Using Symmetric Orthogonalization.
  SCF Guess: Core (One-Electron) Hamiltonian.

  Initial RHF energy:   -58.65313546079555

   -------------------------------------------------------
    Irrep   Nso     Nmo     Nalpha   Nbeta   Ndocc  Nsocc
   -------------------------------------------------------
     A1        12      12       3       3       3       0
     A2         2       2       0       0       0       0
     B1         4       4       1       1       1       0
     B2         7       7       1       1       1       0
   -------------------------------------------------------
    Total      25      25       5       5       5       0
   -------------------------------------------------------

  ==> Integral Setup <==

 MINTS: Wrapper to libmints.
   by Justin Turney

   Calculation information:
      Number of atoms:                   3
      Number of AO shells:              12
      Number of SO shells:               9
      Number of primitives:             25
      Number of atomic orbitals:        25
      Number of basis functions:        25

      Number of irreps:                  4
      Number of functions per irrep: [  12    2    4    7 ]

      Overlap, kinetic, potential, dipole, and quadrupole integrals
        stored in file 35.

      Computing two-electron integrals...done
      Computed 13617 non-zero two-electron integrals.
        Stored in file 33.

  ==> Iterations <==

                        Total Energy        Delta E     Density RMS

   @RHF iter   1:   -68.27774104721108   -9.62461e+00   0.00000e+00 
	Occupation by irrep:
	         A1    A2    B1    B2 
	DOCC [     4,    0,    0,    1 ]
   @RHF iter   2:   -71.41110977485749   -3.13337e+00   5.27154e-01 DIIS
	Occupation by irrep:
	         A1    A2    B1    B2 
	DOCC [     3,    0,    1,    1 ]
   @RHF iter   3:   -75.76843519069392   -4.35733e+00   5.01485e-01 DIIS
   @RHF iter   4:   -76.00564840598057   -2.37213e-01   1.71444e-02 DIIS
   @RHF iter   5:   -76.02244941197959   -1.68010e-02   7.69515e-03 DIIS
   @RHF iter   6:   -76.02281801837036   -3.68606e-04   1.21690e-03 DIIS
   @RHF iter   7:   -76.02285411401529   -3.60956e-05   5.12730e-04 DIIS
   @RHF iter   8:   -76.02285517475381   -1.06074e-06   8.06736e-05 DIIS
   @RHF iter   9:   -76.02285523774894   -6.29951e-08   2.26147e-05 DIIS
   @RHF iter  10:   -76.02285523926587   -1.51692e-09   3.66558e-06 DIIS
   @RHF iter  11:   -76.02285523927128   -5.41434e-12   1.61734e-07 DIIS
   @RHF iter  12:   -76.02285523927145   -1.70530e-13   3.08003e-08 DIIS
   @RHF iter  13:   -76.02285523927145    0.00000e+00   5.67793e-09 DIIS
   @RHF iter  14:   -76.02285523927148   -2.84217e-14   6.52529e-10 DIIS

  ==> Post-Iterations <==

	Orbital Energies (a.u.)
	-----------------------

	Doubly Occupied:                                                      

	   1A1   -20.561679     2A1    -1.338700     1B2    -0.700161  
	   3A1    -0.569186     1B1    -0.497096  

	Virtual:                                                              

	   4A1     0.211148     2B2     0.303619     3B2     1.000247  
	   5A1     1.084983     6A1     1.132283     2B1     1.168788  
	   4B2     1.294671     7A1     1.415948     1A2     1.804458  
	   8A1     1.813038     3B1     1.923158     9A1     2.565774  
	   5B2     2.575584     6B2     2.798257     2A2     2.971700  
	   4B1     2.989462    10A1     3.368700    11A1     3.700673  
	   7B2     3.922520    12A1     4.103374  

	Final Occupation by Irrep:
	         A1    A2    B1    B2 
	DOCC [     3,    0,    1,    1 ]

  Energy converged.

  @RHF Final Energy:   -76.02285523927148

  ==> Properties <==

  Nuclear Dipole Moment: (a.u.)
     X:    -0.0000      Y:    -0.0000      Z:     0.9859

  Electronic Dipole Moment: (a.u.)
     X:     0.0000      Y:     0.0000      Z:    -0.1212

  Dipole Moment: (a.u.)
     X:    -0.0000      Y:    -0.0000      Z:     0.8647     Total:     0.8647

  Dipole Moment: (Debye)
     X:    -0.0000      Y:    -0.0000      Z:     2.1978     Total:     2.1978


  Saving occupied orbitals to File 180.

*** tstop() called on ds12 at Tue Mar 27 13:36:50 2012
Module time:
	user time   =       0.05 seconds =       0.00 minutes
	system time =       0.01 seconds =       0.00 minutes
	total time  =          0 seconds =       0.00 minutes
Total time:
	user time   =       7.74 seconds =       0.13 minutes
	system time =       3.59 seconds =       0.06 minutes
	total time  =         16 seconds =       0.27 minutes

*** tstart() called on ds12
*** at Tue Mar 27 13:36:50 2012


	**************************************************
	* TRANSQT2: Program to transform integrals from  *
	*           the SO basis to the MO basis.        *
	*                                                *
	*            Daniel, David, & Justin             *
	**************************************************


	Input parameters:
	-----------------
	Wave function   =	CCSD
	Backtransform   =	No
	Print Level     =	1
	Print TEIs      =	No
	Reference wfn   =	RHF
	Derivative      =	None
	Delete TEI File =	Yes
	Memory (Mbytes) =	250.0
	Cache Level     =	2
	Cache Type      =	LRU
	Chkpt Parameters:
	--------------------
	Number of irreps     = 4
	Number of SOs        = 25
	Number of MOs        = 25
	Number of active MOs = 25

	Label	# SOs	# FZDC	# DOCC	# SOCC	# VIRT	# FZVR
	-----	-----	------	------	------	------	------
	 A1	   12	    0	    3	    0	    9	    0
	 A2	   2	    0	    0	    0	    2	    0
	 B1	   4	    0	    1	    0	    3	    0
	 B2	   7	    0	    1	    0	    6	    0

	Nuclear Rep. energy (chkpt) =      9.15670280494271
	SCF energy          (chkpt) =    -76.02285523927148

	Presorting SO-basis two-electron integrals.
	Sorting File: SO Ints (pq,rs) nbuckets = 1
	Frozen-core energy =    0.000000000000000
	Starting first half-transformation.
	Sorting half-transformed integrals.
	Starting second half-transformation.
	Two-electron integral transformation complete.

*** tstop() called on ds12 at Tue Mar 27 13:36:50 2012
Module time:
	user time   =       0.01 seconds =       0.00 minutes
	system time =       0.01 seconds =       0.00 minutes
	total time  =          0 seconds =       0.00 minutes
Total time:
	user time   =       7.75 seconds =       0.13 minutes
	system time =       3.60 seconds =       0.06 minutes
	total time  =         16 seconds =       0.27 minutes
Reading options from the PLUGIN_CCSD_SERIAL block
Calling plugin plugin_ccsd_serial.so.

*** tstart() called on ds12
*** at Tue Mar 27 13:36:50 2012



        *******************************************************
        *                                                     *
        *                        CCSD                         *
        *           Coupled-Cluster Singles Doubles           *
        *                                                     *
        *                   Eugene DePrince                   *
        *                                                     *
        *******************************************************



        Begin CC integral sort

        CC integral sort will use                      1.01 mb

        Initial sort.....done.

        IJKL block.......done.
        IJAK block 1/2...done.
        IJAK block 2/2...done.
        KCLD block.......done.
        KLCD block.......done.
        ABCI block 1/3...done.
        ABCI block 2/3...done.
        ABCI block 3/3...done.
        ABCD block 1/2...done.
        ABCD block 2/2...done.

  Time for integral sort:             0.01 s (user)
                                      0.02 s (system)
                                         1 s (total)

  available memory =                           238.42 mb
  minimum memory requirements for CCSD =         0.24 mb
  minimum memory requirements for CCSD(T) =      0.36 mb

  Define tiling:

        v(ab,cd) diagrams will be evaluated in   1 blocks.
        v(ab,ci) diagrams will be evaluated in   1 blocks over ov2.
        v(ab,ci) diagrams will be evaluated in   1 blocks over ov.

  Allocate cpu memory (     0.57 mb).....done.
  Initialize cpu memory..................done.

  Begin singles and doubles coupled cluster iterations

   Iter  DIIS          Energy       d(Energy)          |d(T)|     time
      0   0 1   -0.1995926077   -0.1995926077    0.1948329068        0
      1   1 1   -0.2039563289   -0.0043637212    0.0269422860        0
      2   2 1   -0.2078076299   -0.0038513010    0.0095620599        0
      3   3 1   -0.2083064508   -0.0004988209    0.0026931714        0
      4   4 1   -0.2083110694   -0.0000046185    0.0006220144        0
      5   5 1   -0.2083251160   -0.0000140466    0.0001958453        0
      6   6 1   -0.2083214608    0.0000036552    0.0000616848        0
      7   7 1   -0.2083209053    0.0000005555    0.0000151004        0
      8   8 1   -0.2083208959    0.0000000094    0.0000028044        0
      9   8 2   -0.2083208224    0.0000000734    0.0000006617        0
     10   8 3   -0.2083208414   -0.0000000190    0.0000001397        0
     11   8 4   -0.2083208400    0.0000000015    0.0000000273        0
     12   8 5   -0.2083208406   -0.0000000006    0.0000000044        0
     13   8 6   -0.2083208404    0.0000000001    0.0000000010        0
     14   8 7   -0.2083208404    0.0000000000    0.0000000002        0
     15   8 8   -0.2083208404    0.0000000000    0.0000000000        0

  CCSD iterations converged!

        OS MP2 correlation energy:           -0.149400641207
        SS MP2 correlation energy:           -0.050191966481
        MP2 correlation energy:              -0.199592607687
      * MP2 total energy:                   -76.222447846959

        OS CCSD correlation energy:          -0.163754385107
        SS CCSD correlation energy:          -0.044566455331
        CCSD correlation energy:             -0.208320840438
      * CCSD total energy:                  -76.231176079709

  Total time for CCSD iterations:       0.43 s (user)
                                        0.23 s (system)
                                           0 s (total)

  Time per iteration:                   0.03 s (user)
                                        0.02 s (system)
                                        0.00 s (total)

*** tstop() called on ds12 at Tue Mar 27 13:36:51 2012
Module time:
	user time   =       0.44 seconds =       0.01 minutes
	system time =       0.26 seconds =       0.00 minutes
	total time  =          1 seconds =       0.02 minutes
Total time:
	user time   =       8.19 seconds =       0.14 minutes
	system time =       3.86 seconds =       0.06 minutes
	total time  =         17 seconds =       0.28 minutes

*** tstart() called on ds12
*** at Tue Mar 27 13:36:51 2012


        *******************************************************
        *                                                     *
        *                      CCSD(T)                        *
        *                                                     *
        *******************************************************

        num_threads =                     1
        available memory =        238.06 mb
        memory requirements =       0.36 mb

        Number of ijk combinations: 35

        Computing (T) correction...

        % complete  total time
              11.4         0 s
              20.0         0 s
              31.4         0 s
              40.0         0 s
              51.4         0 s
              60.0         0 s
              71.4         0 s
              80.0         1 s
              91.4         1 s

        (T) energy                        -0.002842051409

        CCSD(T) correlation energy        -0.211162891847
      * CCSD(T) total energy             -76.234018131118

*** tstop() called on ds12 at Tue Mar 27 13:36:52 2012
Module time:
	user time   =       0.06 seconds =       0.00 minutes
	system time =       0.01 seconds =       0.00 minutes
	total time  =          1 seconds =       0.02 minutes
Total time:
	user time   =       8.25 seconds =       0.14 minutes
	system time =       3.87 seconds =       0.06 minutes
	total time  =         18 seconds =       0.30 minutes

-------------------------------------------------------------

  Computing gradient from energies (fd_1_0).
	Using 3-point formula.
	Energy without displacement:  -76.2340181311
	Check energies below for precision!
	Forces are for mass-weighted, symmetry-adapted cartesians (in au).

	 Coord      Energy(-)        Energy(+)        Force
	    0    -76.2340150948   -76.2340145592     0.0000535654
	    1    -76.2340125976   -76.2340133578    -0.0000760232

	Gradient written to file11.
	Gradient saved to wavefunction.

-------------------------------------------------------------

			----------------------------------
			 OPTKING: for geometry optimizations  
			  - R.A. King,  Bethel University   
			------------------------------------

	Previous internal coordinate definitions found.
	---Fragment 1 Geometry and Gradient---
	 O           0.0000000000        0.0000000000       -0.1252619653
	 H           0.0000000000       -1.4309354048        0.9939991450
	 H          -0.0000000000        1.4309354048        0.9939991450
	             0.0000000000        0.0000000000        0.0000716671
	             0.0000000000       -0.0000539664       -0.0000358335
	             0.0000000000        0.0000539664       -0.0000358335

	---Fragment 1 Intrafragment Coordinates---
	 * Coordinate *           * BOHR/RAD *       * ANG/DEG *
	 R(1,2)           =         1.816679	       0.961345
	 R(1,3)           =         1.816679	       0.961345
	 B(2,1,3)         =         1.814022	     103.935788

	Current energy   :       -76.2340181311

	Energy change for the previous step:
		Projected    :        -0.0000032880
		Actual       :        -0.0000029493
	Energy ratio indicates good step: Trust radius increased to 1.000e+00.


	Performing BFGS update with previous 1 gradient(s).
	Following RFO solution 0.
	Projected energy change by RFO approximation:        -0.0000000366

	Back-transformation to cartesian coordinates...
	Successfully converged to displaced geometry.

	---Internal Coordinate Step in ANG or DEG, aJ/ANG or AJ/DEG ---
	 ----------------------------------------------------------------------
	 Coordinate             Previous        Force       Change         New 
	 ----------             --------       ------       ------       ------
	 R(1,2)          =      0.961345    -0.000168    -0.000002     0.961343
	 R(1,3)          =      0.961345    -0.000168    -0.000002     0.961343
	 B(2,1,3)        =    103.935788    -0.000008    -0.037448   103.898339
	 ----------------------------------------------------------------------

  ==> Convergence Check <==

  Measures of convergence in internal coordinates in au.
  Criteria marked as inactive (o), active & met (*), and active & unmet ( ).
  ---------------------------------------------------------------------------------------------
   Step     Total Energy     Delta E     MAX Force     RMS Force      MAX Disp      RMS Disp   
  ---------------------------------------------------------------------------------------------
    Convergence Criteria    1.00e-06 *    3.00e-04 *             o    1.20e-03 *             o
  ---------------------------------------------------------------------------------------------
      3     -76.23401813   -2.95e-06      1.12e-04 *    6.66e-05 o    6.54e-04 *    3.77e-04 o  ~
  ---------------------------------------------------------------------------------------------


  **** Optimization is complete! ****

  ==> Optimization Summary <==

  Measures of convergence in internal coordinates in au.
  --------------------------------------------------------------------------------------------------------------- ~
   Step         Total Energy             Delta E       MAX Force       RMS Force        MAX Disp        RMS Disp  ~
  --------------------------------------------------------------------------------------------------------------- ~
      1     -76.233870680761    -76.233870680761      0.00816005      0.00672669      0.01528000      0.01374902  ~
      2     -76.234015181847     -0.000144501086      0.00090541      0.00061411      0.00632508      0.00375591  ~
      3     -76.234018131118     -0.000002949272      0.00011168      0.00006660      0.00065360      0.00037736  ~
  --------------------------------------------------------------------------------------------------------------- ~

	Writing optimization data to binary file.
	Final energy is    -76.2340181311181
	Final (previous) structure:
	Cartesian Geometry (au)
	    O     0.0000000000   0.0000000000  -0.1252619653
	    H     0.0000000000  -1.4309354048   0.9939991450
	    H    -0.0000000000   1.4309354048   0.9939991450
	Saving final (previous) structure.
			--------------------------
			 OPTKING Finished Execution 
			--------------------------

	Final optimized geometry and variables (in Angstrom):

	O
	H     1    0.961345
	H     1    0.961345     2  103.935788


*** PSI4 exiting successfully. Buy a developer a beer!
