
    -----------------------------------------------------------------------
          Psi4: An Open-Source Ab Initio Electronic Structure Package
                               Psi4 1.4a2.dev90 

                         Git: Rev {master} df18f26 dirty


    R. M. Parrish, L. A. Burns, D. G. A. Smith, A. C. Simmonett,
    A. E. DePrince III, E. G. Hohenstein, U. Bozkaya, A. Yu. Sokolov,
    R. Di Remigio, R. M. Richard, J. F. Gonthier, A. M. James,
    H. R. McAlexander, A. Kumar, M. Saitow, X. Wang, B. P. Pritchard,
    P. Verma, H. F. Schaefer III, K. Patkowski, R. A. King, E. F. Valeev,
    F. A. Evangelista, J. M. Turney, T. D. Crawford, and C. D. Sherrill,
    J. Chem. Theory Comput. 13(7) pp 3185--3197 (2017).
    (doi: 10.1021/acs.jctc.7b00174)


                         Additional Contributions by
    P. Kraus, H. Kruse, M. H. Lechner, M. C. Schieber, R. A. Shaw,
    A. Alenaizan, R. Galvelis, Z. L. Glick, S. Lehtola, and J. P. Misiewicz

    -----------------------------------------------------------------------


    Psi4 started on: Wednesday, 14 August 2019 09:15PM

    Process ID: 32062
    Host:       dx7-lehtola.chem.helsinki.fi
    PSIDATADIR: /home/work/psi4/install/share/psi4
    Memory:     500.0 MiB
    Threads:    4
    
  ==> Input File <==

--------------------------------------------------------------------------
molecule {
0 2
H
}

set reference uhf
set guess core
set scf_type pk
set df_scf_guess false

basis {
assign test

[test]
spherical
****
H 0
S 1 1.0
 1.0 1.0
****
}

energy('scf')
refE = -0.09576912160573
compare_values(refE, variable("SCF TOTAL ENERGY"), 6, "H energy, S basis")
--------------------------------------------------------------------------

*** tstart() called on dx7-lehtola.chem.helsinki.fi
*** at Wed Aug 14 21:15:53 2019

   => Loading Basis Set <=

    Name: ANONYMOUS60F9E081
    Role: ORBITAL
    Keyword: BASIS
    atoms 1 entry H          line     5 inputblock test 


         ---------------------------------------------------------
                                   SCF
               by Justin Turney, Rob Parrish, Andy Simmonett
                          and Daniel G. A. Smith
                              UHF Reference
                        4 Threads,    500 MiB Core
         ---------------------------------------------------------

  ==> Geometry <==

    Molecular point group: d2h
    Geometry (in Angstrom), charge = 0, multiplicity = 2:

       Center              X                  Y                   Z               Mass       
    ------------   -----------------  -----------------  -----------------  -----------------
         H            0.000000000000     0.000000000000     0.000000000000     1.007825032230

  Running in d2h symmetry.

  Rotational constants: A = ************  B = ************  C = ************ [cm^-1]
  Rotational constants: A = ************  B = ************  C = ************ [MHz]
  Nuclear repulsion =    0.000000000000000

  Charge       = 0
  Multiplicity = 2
  Electrons    = 1
  Nalpha       = 1
  Nbeta        = 0

  ==> Algorithm <==

  SCF Algorithm Type is PK.
  DIIS enabled.
  MOM disabled.
  Fractional occupation disabled.
  Guess Type is CORE.
  Energy threshold   = 1.00e-06
  Density threshold  = 1.00e-06
  Integral threshold = 0.00e+00

  ==> Primary Basis <==

  Basis Set: ANONYMOUS60F9E081
    Blend: TEST
    Number of shells: 1
    Number of basis function: 1
    Number of Cartesian functions: 1
    Spherical Harmonics?: true
    Max angular momentum: 0

  ==> Pre-Iterations <==

   -------------------------------------------------------
    Irrep   Nso     Nmo     Nalpha   Nbeta   Ndocc  Nsocc
   -------------------------------------------------------
     Ag         1       1       0       0       0       0
     B1g        0       0       0       0       0       0
     B2g        0       0       0       0       0       0
     B3g        0       0       0       0       0       0
     Au         0       0       0       0       0       0
     B1u        0       0       0       0       0       0
     B2u        0       0       0       0       0       0
     B3u        0       0       0       0       0       0
   -------------------------------------------------------
    Total       1       1       1       0       0       1
   -------------------------------------------------------

  ==> Integral Setup <==

  Using in-core PK algorithm.
   Calculation information:
      Number of atoms:                   1
      Number of AO shells:               1
      Number of primitives:              1
      Number of atomic orbitals:         1
      Number of basis functions:         1

      Integral cutoff                 1.00e-12
      Number of threads:                 4

  Performing in-core PK
  Using 2 doubles for integral storage.
  We computed 4 shell quartets total.
  Whereas there are 1 unique shell quartets.
   300.00 percent of shell quartets recomputed by reordering.

  ==> DiskJK: Disk-Based J/K Matrices <==

    J tasked:                  Yes
    K tasked:                  Yes
    wK tasked:                  No
    Memory [MiB]:              375
    Schwarz Cutoff:          1E-12

    OpenMP threads:              4

  Minimum eigenvalue in the overlap matrix is 1.0000000000E+00.
  Using Symmetric Orthogonalization.

  SCF Guess: Core (One-Electron) Hamiltonian.

  ==> Iterations <==

                        Total Energy        Delta E     RMS |[F,P]|

   @UHF iter   1:    -0.09576912160573   -9.57691e-02   0.00000e+00 DIIS
   @UHF iter   2:    -0.09576912160573    0.00000e+00   0.00000e+00 DIIS
  Energy and wave function converged.


  ==> Post-Iterations <==

   @Spin Contamination Metric:   0.000000000E+00
   @S^2 Expected:                7.500000000E-01
   @S^2 Observed:                7.500000000E-01
   @S   Expected:                5.000000000E-01
   @S   Observed:                5.000000000E-01

    Orbital Energies [Eh]
    ---------------------

    Alpha Occupied:                                                       

       1Ag    -0.095769  

    Alpha Virtual:                                                        

    

    Beta Occupied:                                                        

    

    Beta Virtual:                                                         

       1Ag     2.160989  

    Final Occupation by Irrep:
             Ag   B1g   B2g   B3g    Au   B1u   B2u   B3u 
    DOCC [     0,    0,    0,    0,    0,    0,    0,    0 ]
    SOCC [     1,    0,    0,    0,    0,    0,    0,    0 ]

  @UHF Final Energy:    -0.09576912160573

   => Energetics <=

    Nuclear Repulsion Energy =              0.0000000000000000
    One-Electron Energy =                  -0.0957691216057309
    Two-Electron Energy =                   0.0000000000000000
    Total Energy =                         -0.0957691216057309

  UHF NO Occupations:
  HONO-0 :    1 Ag 1.0000000


Computation Completed


Properties will be evaluated at   0.000000,   0.000000,   0.000000 [a0]

Properties computed using the SCF density matrix

  Nuclear Dipole Moment: [e a0]
     X:     0.0000      Y:     0.0000      Z:     0.0000

  Electronic Dipole Moment: [e a0]
     X:     0.0000      Y:     0.0000      Z:     0.0000

  Dipole Moment: [e a0]
     X:     0.0000      Y:     0.0000      Z:     0.0000     Total:     0.0000

  Dipole Moment: [D]
     X:     0.0000      Y:     0.0000      Z:     0.0000     Total:     0.0000


*** tstop() called on dx7-lehtola.chem.helsinki.fi at Wed Aug 14 21:15:54 2019
Module time:
	user time   =       1.28 seconds =       0.02 minutes
	system time =       0.00 seconds =       0.00 minutes
	total time  =          1 seconds =       0.02 minutes
Total time:
	user time   =       1.28 seconds =       0.02 minutes
	system time =       0.00 seconds =       0.00 minutes
	total time  =          1 seconds =       0.02 minutes
    H energy, S basis.................................................PASSED

    Psi4 stopped on: Wednesday, 14 August 2019 09:15PM
    Psi4 wall time for execution: 0:00:01.15

*** Psi4 exiting successfully. Buy a developer a beer!
