    -----------------------------------------------------------------------
          Psi4: An Open-Source Ab Initio Electronic Structure Package
                              Psi4 0.3.1106 Driver

                          Git: Rev {cbs_wrapper} fbb63fa 

    J. M. Turney, A. C. Simmonett, R. M. Parrish, E. G. Hohenstein,
    F. A. Evangelista, J. T. Fermann, B. J. Mintz, L. A. Burns, J. J. Wilke,
    M. L. Abrams, N. J. Russ, M. L. Leininger, C. L. Janssen, E. T. Seidl,
    W. D. Allen, H. F. Schaefer, R. A. King, E. F. Valeev, C. D. Sherrill,
    and T. D. Crawford, WIREs Comput. Mol. Sci. 2, 556-565 (2012)
    (doi: 10.1002/wcms.93)

                         Additional Contributions by
    A. E. DePrince, U. Bozkaya, A. Yu. Sokolov, D. G. A. Smith, R. Di Remigio,
    R. M. Richard, J. F. Gonthier, H. R. McAlexander, M. Saitow, and
    B. P. Pritchard
    -----------------------------------------------------------------------


    Psi4 started on: Mon Apr 25 16:48:34 2016

    Process ID:   4801
    PSI4DATADIR: /home/dsmith/Gits/psi4cbs/share
    Memory level set to 256.000 MB

  ==> Input File <==

--------------------------------------------------------------------------
#! MP2/aug-cc-pv[DT]Z many body energies of an arbitrary Helium complex
#! Size vs cost tradeoff is rough here

memory 500 mb

comparison_dict = {}                                                     #TEST
comparison_dict['CP'] =   {2: -2.43090282019e-05, 3: -2.43315337922e-05} #TEST
comparison_dict['NOCP'] = {2: -2.74246625658e-05, 3: -2.58619907516e-05} #TEST
comparison_dict['VMFC'] = {2: -2.59875102735e-05, 3: -2.60100158638e-05} #TEST

molecule he_tetramer {
He 0 0 0
--
He 0 0 4
--
He 0 4 0
}

set {
    e_convergence 1.e-10
    d_convergence 1.e-10
}

energy('MP2/aug-cc-pV[D,T]Z', molecule=he_tetramer, bsse_type=['cp', 'nocp', 'vmfc'])

for bsse_type in ['CP', 'NOCP', 'VMFC']:                                          #TEST
    for n in [2, 3]:                                                              #TEST
        var_key = bsse_type + ('-CORRECTED %d-BODY INTERACTION ENERGY' % n)       #TEST
        computed_value = psi4.get_variable(var_key)                               #TEST
        compare_values(comparison_dict[bsse_type][n], computed_value, 8, var_key) #TEST

--------------------------------------------------------------------------

  Memory set to 500.000 MiB by Python script.


   ===> N-Body Interaction Abacus <===
        BSSE Treatment:          ['cp', 'nocp', 'vmfc']
        Number of 1-body computations:          12
        Number of 2-body computations:          6
        Number of 3-body computations:          1

   ==> N-Body: Now computing 1-body complexes <==


       N-Body: Computing complex (1/12) with fragments (3,) in the basis of fragments (1, 2, 3).


  //>>>>>>>>>>>>>>>>>>>>>>>>>>>>>>>>>>>//
  //   CBS Setup: mp2/aug-cc-pv[d,t]z  //
  //<<<<<<<<<<<<<<<<<<<<<<<<<<<<<<<<<<<//

    Naive listing of computations required.
             hf / aug-cc-pvtz              for  HF TOTAL ENERGY
            mp2 / aug-cc-pvdz              for  MP2 TOTAL ENERGY
            mp2 / aug-cc-pvtz              for  MP2 TOTAL ENERGY
             hf / aug-cc-pvdz              for  HF TOTAL ENERGY
             hf / aug-cc-pvtz              for  HF TOTAL ENERGY

    Enlightened listing of computations required.
            mp2 / aug-cc-pvdz              for  MP2 TOTAL ENERGY
            mp2 / aug-cc-pvtz              for  MP2 TOTAL ENERGY

    Full listing of computations to be obtained (required and bonus).
            mp2 / aug-cc-pvdz              for  MP2 TOTAL ENERGY
             hf / aug-cc-pvdz              for  HF TOTAL ENERGY
            mp2 / aug-cc-pvtz              for  MP2 TOTAL ENERGY
             hf / aug-cc-pvtz              for  HF TOTAL ENERGY

  //>>>>>>>>>>>>>>>>>>>>>>>>>>>>>>>>>>>>//
  // CBS Computation: MP2 / AUG-CC-PVDZ //
  //<<<<<<<<<<<<<<<<<<<<<<<<<<<<<<<<<<<<//

    SCF Algorithm Type (re)set to DF.
    There are an even number of electrons - assuming singlet.
    Specify the multiplicity in the molecule input block.


*** tstart() called on ds1.sherrill.chemistry.gatech.edu
*** at Mon Apr 25 16:48:34 2016


         ---------------------------------------------------------
                                   SCF
            by Justin Turney, Rob Parrish, and Andy Simmonett
                              RHF Reference
                        1 Threads,    500 MiB Core
         ---------------------------------------------------------

  ==> Geometry <==

    Molecular point group: cs
    Full point group: Cs

    Geometry (in Angstrom), charge = 0, multiplicity = 1:

       Center              X                  Y                   Z               Mass       
    ------------   -----------------  -----------------  -----------------  -----------------
          HE(Gh)      0.000000000000     1.885618083164     0.000000000000     4.002603254150
          HE(Gh)      2.828427124746    -0.942809041582     0.000000000000     4.002603254150
          HE         -2.828427124746    -0.942809041582     0.000000000000     4.002603254150

  Running in cs symmetry.

  Rotational constants: A =      0.78969  B =      0.26323  C =      0.19742 [cm^-1]
  Rotational constants: A =  23674.23335  B =   7891.41112  C =   5918.55834 [MHz]
  Nuclear repulsion =    0.000000000000000

  Charge       = 0
  Multiplicity = 1
  Electrons    = 2
  Nalpha       = 1
  Nbeta        = 1

  ==> Algorithm <==

  SCF Algorithm Type is DF.
  DIIS enabled.
  MOM disabled.
  Fractional occupation disabled.
  Guess Type is CORE.
  Energy threshold   = 1.00e-10
  Density threshold  = 1.00e-10
  Integral threshold = 0.00e+00

  ==> Primary Basis <==

  Basis Set: AUG-CC-PVDZ
    Number of shells: 15
    Number of basis function: 27
    Number of Cartesian functions: 27
    Spherical Harmonics?: true
    Max angular momentum: 1

  ==> Pre-Iterations <==

   -------------------------------------------------------
    Irrep   Nso     Nmo     Nalpha   Nbeta   Ndocc  Nsocc
   -------------------------------------------------------
     A'        21      21       0       0       0       0
     A"         6       6       0       0       0       0
   -------------------------------------------------------
    Total      27      27       1       1       1       0
   -------------------------------------------------------

  ==> Integral Setup <==

  ==> DFJK: Density-Fitted J/K Matrices <==

    J tasked:                  Yes
    K tasked:                  Yes
    wK tasked:                  No
    OpenMP threads:              1
    Integrals threads:           1
    Memory (MB):               357
    Algorithm:                Core
    Integral Cache:           NONE
    Schwarz Cutoff:          1E-12
    Fitting Condition:       1E-12

   => Auxiliary Basis Set <=

  Basis Set: 
    Number of shells: 27
    Number of basis function: 69
    Number of Cartesian functions: 75
    Spherical Harmonics?: true
    Max angular momentum: 2

  Minimum eigenvalue in the overlap matrix is 1.4812855918E-01.
  Using Symmetric Orthogonalization.
  SCF Guess: Core (One-Electron) Hamiltonian.

  ==> Iterations <==

                           Total Energy        Delta E     RMS |[F,P]|

   @DF-RHF iter   1:    -2.74266824529396   -2.74267e+00   2.19807e-02 
   @DF-RHF iter   2:    -2.85461990204525   -1.11952e-01   1.93119e-03 DIIS
   @DF-RHF iter   3:    -2.85572322557118   -1.10332e-03   1.46738e-04 DIIS
   @DF-RHF iter   4:    -2.85573416332631   -1.09378e-05   5.70953e-06 DIIS
   @DF-RHF iter   5:    -2.85573417836048   -1.50342e-08   1.12364e-07 DIIS
   @DF-RHF iter   6:    -2.85573417836635   -5.86819e-12   3.85590e-09 DIIS
   @DF-RHF iter   7:    -2.85573417836636   -7.10543e-15   5.17657e-10 DIIS
   @DF-RHF iter   8:    -2.85573417836636   -8.88178e-16   5.31434e-11 DIIS

  ==> Post-Iterations <==

    Orbital Energies (a.u.)
    -----------------------

    Doubly Occupied:                                                      

       1Ap    -0.917162  

    Virtual:                                                              

       2Ap     0.081341     3Ap     0.120488     4Ap     0.185673  
       5Ap     0.526808     6Ap     0.532157     1App    0.532191  
       7Ap     0.578619     2App    0.600690     8Ap     0.602032  
       3App    0.603857     9Ap     0.605373    10Ap     0.611155  
      11Ap     0.652502    12Ap     0.694738    13Ap     1.723059  
       4App    3.025943    14Ap     3.025949    15Ap     3.028553  
      16Ap     3.680049     5App    3.687533    17Ap     3.688245  
       6App    3.689191    18Ap     3.691900    19Ap     3.701014  
      20Ap     4.525754    21Ap     4.568758  

    Final Occupation by Irrep:
             Ap   App 
    DOCC [     1,    0 ]

  Energy converged.

  @DF-RHF Final Energy:    -2.85573417836636

   => Energetics <=

    Nuclear Repulsion Energy =              0.0000000000000000
    One-Electron Energy =                  -3.8771452812480964
    Two-Electron Energy =                   1.0214111028817368
    DFT Exchange-Correlation Energy =       0.0000000000000000
    Empirical Dispersion Energy =           0.0000000000000000
    PCM Polarization Energy =               0.0000000000000000
    EFP Energy =                            0.0000000000000000
    Total Energy =                         -2.8557341783663599


  Saving occupied orbitals to File 180.

*** tstop() called on ds1.sherrill.chemistry.gatech.edu at Mon Apr 25 16:48:34 2016
Module time:
	user time   =       0.11 seconds =       0.00 minutes
	system time =       0.01 seconds =       0.00 minutes
	total time  =          0 seconds =       0.00 minutes
Total time:
	user time   =       0.11 seconds =       0.00 minutes
	system time =       0.01 seconds =       0.00 minutes
	total time  =          0 seconds =       0.00 minutes


Properties will be evaluated at   0.000000,   0.000000,   0.000000 Bohr

Properties computed using the SCF density matrix

  Nuclear Dipole Moment: (a.u.)
     X:   -10.6899      Y:    -3.5633      Z:     0.0000

  Electronic Dipole Moment: (a.u.)
     X:    10.6899      Y:     3.5633      Z:     0.0000

  Dipole Moment: (a.u.)
     X:    -0.0000      Y:    -0.0000      Z:     0.0000     Total:     0.0000

  Dipole Moment: (Debye)
     X:    -0.0000      Y:    -0.0000      Z:     0.0000     Total:     0.0001


  //>>>>>>>>>>>>>>>>>>>>>>>>>>>>>>>>>>>//
  //               DFMP2               //
  //<<<<<<<<<<<<<<<<<<<<<<<<<<<<<<<<<<<//


*** tstart() called on ds1.sherrill.chemistry.gatech.edu
*** at Mon Apr 25 16:48:34 2016


*** tstop() called on ds1.sherrill.chemistry.gatech.edu at Mon Apr 25 16:48:34 2016
Module time:
	user time   =       0.04 seconds =       0.00 minutes
	system time =      -0.00 seconds =      -0.00 minutes
	total time  =          0 seconds =       0.00 minutes
Total time:
	user time   =       0.16 seconds =       0.00 minutes
	system time =       0.01 seconds =       0.00 minutes
	total time  =          0 seconds =       0.00 minutes
	 --------------------------------------------------------
	                          DF-MP2                         
	      2nd-Order Density-Fitted Moller-Plesset Theory     
	              RMP2 Wavefunction,   1 Threads             
	                                                         
	        Rob Parrish, Justin Turney, Andy Simmonett,      
	           Ed Hohenstein, and C. David Sherrill          
	 --------------------------------------------------------

   => Auxiliary Basis Set <=

  Basis Set: 
    Number of shells: 21
    Number of basis function: 39
    Number of Cartesian functions: 39
    Spherical Harmonics?: true
    Max angular momentum: 1

	 --------------------------------------------------------
	                 NBF =    27, NAUX =    39
	 --------------------------------------------------------
	   CLASS    FOCC     OCC    AOCC    AVIR     VIR    FVIR
	   PAIRS       0       1       1      26      26       0
	 --------------------------------------------------------

	-----------------------------------------------------------
	 ==================> DF-MP2 Energies <==================== 
	-----------------------------------------------------------
	 Reference Energy          =      -2.8557341783663595 [Eh]
	 Singles Energy            =      -0.0000000000000000 [Eh]
	 Same-Spin Energy          =      -0.0000000000000000 [Eh]
	 Opposite-Spin Energy      =      -0.0269556335950953 [Eh]
	 Correlation Energy        =      -0.0269556335950953 [Eh]
	 Total Energy              =      -2.8826898119614546 [Eh]
	-----------------------------------------------------------
	 ================> DF-SCS-MP2 Energies <================== 
	-----------------------------------------------------------
	 SCS Same-Spin Scale       =       0.3333333333333333 [-]
	 SCS Opposite-Spin Scale   =       1.2000000000000000 [-]
	 SCS Same-Spin Energy      =      -0.0000000000000000 [Eh]
	 SCS Opposite-Spin Energy  =      -0.0323467603141143 [Eh]
	 SCS Correlation Energy    =      -0.0323467603141143 [Eh]
	 SCS Total Energy          =      -2.8880809386804738 [Eh]
	-----------------------------------------------------------


  //>>>>>>>>>>>>>>>>>>>>>>>>>>>>>>>>>>>>//
  // CBS Computation: MP2 / AUG-CC-PVTZ //
  //<<<<<<<<<<<<<<<<<<<<<<<<<<<<<<<<<<<<//

    SCF Algorithm Type (re)set to DF.

*** tstart() called on ds1.sherrill.chemistry.gatech.edu
*** at Mon Apr 25 16:48:35 2016


         ---------------------------------------------------------
                                   SCF
            by Justin Turney, Rob Parrish, and Andy Simmonett
                              RHF Reference
                        1 Threads,    500 MiB Core
         ---------------------------------------------------------

  ==> Geometry <==

    Molecular point group: cs
    Full point group: Cs

    Geometry (in Angstrom), charge = 0, multiplicity = 1:

       Center              X                  Y                   Z               Mass       
    ------------   -----------------  -----------------  -----------------  -----------------
          HE(Gh)      0.000000000000     1.885618083164     0.000000000000     4.002603254150
          HE(Gh)      2.828427124746    -0.942809041582     0.000000000000     4.002603254150
          HE         -2.828427124746    -0.942809041582     0.000000000000     4.002603254150

  Running in cs symmetry.

  Rotational constants: A =      0.78969  B =      0.26323  C =      0.19742 [cm^-1]
  Rotational constants: A =  23674.23335  B =   7891.41112  C =   5918.55834 [MHz]
  Nuclear repulsion =    0.000000000000000

  Charge       = 0
  Multiplicity = 1
  Electrons    = 2
  Nalpha       = 1
  Nbeta        = 1

  ==> Algorithm <==

  SCF Algorithm Type is DF.
  DIIS enabled.
  MOM disabled.
  Fractional occupation disabled.
  Guess Type is CORE.
  Energy threshold   = 1.00e-10
  Density threshold  = 1.00e-10
  Integral threshold = 0.00e+00

  ==> Primary Basis <==

  Basis Set: AUG-CC-PVTZ
    Number of shells: 27
    Number of basis function: 69
    Number of Cartesian functions: 75
    Spherical Harmonics?: true
    Max angular momentum: 2

  ==> Pre-Iterations <==

   -------------------------------------------------------
    Irrep   Nso     Nmo     Nalpha   Nbeta   Ndocc  Nsocc
   -------------------------------------------------------
     A'        48      48       0       0       0       0
     A"        21      21       0       0       0       0
   -------------------------------------------------------
    Total      69      69       1       1       1       0
   -------------------------------------------------------

  ==> Integral Setup <==

  ==> DFJK: Density-Fitted J/K Matrices <==

    J tasked:                  Yes
    K tasked:                  Yes
    wK tasked:                  No
    OpenMP threads:              1
    Integrals threads:           1
    Memory (MB):               357
    Algorithm:                Core
    Integral Cache:           NONE
    Schwarz Cutoff:          1E-12
    Fitting Condition:       1E-12

   => Auxiliary Basis Set <=

  Basis Set: 
    Number of shells: 27
    Number of basis function: 69
    Number of Cartesian functions: 75
    Spherical Harmonics?: true
    Max angular momentum: 2

  Minimum eigenvalue in the overlap matrix is 6.2134165755E-02.
  Using Symmetric Orthogonalization.
  SCF Guess: Core (One-Electron) Hamiltonian.

  ==> Iterations <==

                           Total Energy        Delta E     RMS |[F,P]|

   @DF-RHF iter   1:    -2.75221756669904   -2.75222e+00   1.01052e-02 
   @DF-RHF iter   2:    -2.85975353877883   -1.07536e-01   8.43139e-04 DIIS
   @DF-RHF iter   3:    -2.86118140637319   -1.42787e-03   1.24107e-04 DIIS
   @DF-RHF iter   4:    -2.86120631504251   -2.49087e-05   4.24772e-06 DIIS
   @DF-RHF iter   5:    -2.86120637503960   -5.99971e-08   4.38701e-07 DIIS
   @DF-RHF iter   6:    -2.86120637556977   -5.30167e-10   3.59602e-09 DIIS
   @DF-RHF iter   7:    -2.86120637556980   -3.50830e-14   3.97770e-10 DIIS
   @DF-RHF iter   8:    -2.86120637556980    4.44089e-16   6.53691e-11 DIIS

  ==> Post-Iterations <==

    Orbital Energies (a.u.)
    -----------------------

    Doubly Occupied:                                                      

       1Ap    -0.917878  

    Virtual:                                                              

       2Ap     0.055578     3Ap     0.090728     4Ap     0.123725  
       5Ap     0.404834     6Ap     0.417634     1App    0.428682  
       7Ap     0.430008     8Ap     0.433975     9Ap     0.456984  
       2App    0.466306    10Ap     0.470859     3App    0.474973  
      11Ap     0.506079    12Ap     0.540446    13Ap     0.853435  
       4App    1.520773    14Ap     1.520773     5App    1.520776  
      15Ap     1.520786    16Ap     1.521960    17Ap     1.569313  
      18Ap     1.570200     6App    1.570200     7App    1.570468  
      19Ap     1.570511     8App    1.570512    20Ap     1.570787  
       9App    1.570797    21Ap     1.571939    22Ap     1.574016  
      23Ap     1.735334    24Ap     1.743371    10App    1.962822  
      25Ap     1.963104    26Ap     1.971705    27Ap     2.258352  
      11App    2.279260    28Ap     2.282492    12App    2.286323  
      29Ap     2.297143    30Ap     2.329779    31Ap     4.831653  
      13App    7.123620    32Ap     7.123621    14App    7.123621  
      33Ap     7.123636    34Ap     7.124474    35Ap     7.640200  
      15App    7.640255    36Ap     7.640259    16App    7.640341  
      37Ap     7.640343    17App    7.640351    18App    7.640435  
      38Ap     7.640437    39Ap     7.641104    40Ap     7.642093  
      19App    8.222512    41Ap     8.222578    42Ap     8.228736  
      43Ap     9.104352    44Ap     9.115916    45Ap     9.704041  
      20App    9.717346    46Ap     9.719246    21App    9.721583  
      47Ap     9.726536    48Ap     9.749354  

    Final Occupation by Irrep:
             Ap   App 
    DOCC [     1,    0 ]

  Energy converged.

  @DF-RHF Final Energy:    -2.86120637556980

   => Energetics <=

    Nuclear Repulsion Energy =              0.0000000000000000
    One-Electron Energy =                  -3.8866558130500741
    Two-Electron Energy =                   1.0254494374802738
    DFT Exchange-Correlation Energy =       0.0000000000000000
    Empirical Dispersion Energy =           0.0000000000000000
    PCM Polarization Energy =               0.0000000000000000
    EFP Energy =                            0.0000000000000000
    Total Energy =                         -2.8612063755698003


  Saving occupied orbitals to File 180.

*** tstop() called on ds1.sherrill.chemistry.gatech.edu at Mon Apr 25 16:48:35 2016
Module time:
	user time   =       0.15 seconds =       0.00 minutes
	system time =      -0.00 seconds =      -0.00 minutes
	total time  =          0 seconds =       0.00 minutes
Total time:
	user time   =       0.39 seconds =       0.01 minutes
	system time =       0.01 seconds =       0.00 minutes
	total time  =          1 seconds =       0.02 minutes


Properties will be evaluated at   0.000000,   0.000000,   0.000000 Bohr

Properties computed using the SCF density matrix

  Nuclear Dipole Moment: (a.u.)
     X:   -10.6899      Y:    -3.5633      Z:     0.0000

  Electronic Dipole Moment: (a.u.)
     X:    10.6899      Y:     3.5633      Z:     0.0000

  Dipole Moment: (a.u.)
     X:    -0.0000      Y:    -0.0000      Z:     0.0000     Total:     0.0000

  Dipole Moment: (Debye)
     X:    -0.0000      Y:    -0.0000      Z:     0.0000     Total:     0.0001


  //>>>>>>>>>>>>>>>>>>>>>>>>>>>>>>>>>>>//
  //               DFMP2               //
  //<<<<<<<<<<<<<<<<<<<<<<<<<<<<<<<<<<<//


*** tstart() called on ds1.sherrill.chemistry.gatech.edu
*** at Mon Apr 25 16:48:35 2016


*** tstop() called on ds1.sherrill.chemistry.gatech.edu at Mon Apr 25 16:48:35 2016
Module time:
	user time   =       0.04 seconds =       0.00 minutes
	system time =      -0.00 seconds =      -0.00 minutes
	total time  =          0 seconds =       0.00 minutes
Total time:
	user time   =       0.43 seconds =       0.01 minutes
	system time =       0.01 seconds =       0.00 minutes
	total time  =          1 seconds =       0.02 minutes
	 --------------------------------------------------------
	                          DF-MP2                         
	      2nd-Order Density-Fitted Moller-Plesset Theory     
	              RMP2 Wavefunction,   1 Threads             
	                                                         
	        Rob Parrish, Justin Turney, Andy Simmonett,      
	           Ed Hohenstein, and C. David Sherrill          
	 --------------------------------------------------------

   => Auxiliary Basis Set <=

  Basis Set: 
    Number of shells: 42
    Number of basis function: 108
    Number of Cartesian functions: 117
    Spherical Harmonics?: true
    Max angular momentum: 2

	 --------------------------------------------------------
	                 NBF =    69, NAUX =   108
	 --------------------------------------------------------
	   CLASS    FOCC     OCC    AOCC    AVIR     VIR    FVIR
	   PAIRS       0       1       1      68      68       0
	 --------------------------------------------------------

	-----------------------------------------------------------
	 ==================> DF-MP2 Energies <==================== 
	-----------------------------------------------------------
	 Reference Energy          =      -2.8612063755698003 [Eh]
	 Singles Energy            =      -0.0000000000000000 [Eh]
	 Same-Spin Energy          =      -0.0000000000000000 [Eh]
	 Opposite-Spin Energy      =      -0.0336093759066987 [Eh]
	 Correlation Energy        =      -0.0336093759066987 [Eh]
	 Total Energy              =      -2.8948157514764992 [Eh]
	-----------------------------------------------------------
	 ================> DF-SCS-MP2 Energies <================== 
	-----------------------------------------------------------
	 SCS Same-Spin Scale       =       0.3333333333333333 [-]
	 SCS Opposite-Spin Scale   =       1.2000000000000000 [-]
	 SCS Same-Spin Energy      =      -0.0000000000000000 [Eh]
	 SCS Opposite-Spin Energy  =      -0.0403312510880384 [Eh]
	 SCS Correlation Energy    =      -0.0403312510880384 [Eh]
	 SCS Total Energy          =      -2.9015376266578388 [Eh]
	-----------------------------------------------------------


  //>>>>>>>>>>>>>>>>>>>>>>>>>>>>>>>>>>>//
  //  CBS Results: mp2/aug-cc-pv[d,t]z //
  //<<<<<<<<<<<<<<<<<<<<<<<<<<<<<<<<<<<//


   ==> HF <==

   HI-zeta (3) Total Energy:             -2.86120638


   ==> Helgaker 2-point correlated extrapolation for method: MP2 <==

   LO-zeta (2) Correlation Energy:   -2.88268981196145
   HI-zeta (3) Correlation Energy:   -2.89481575147650
   Beta (coefficient) Value:          0.13785278606577
   Extrapolated Correlation Energy:  -2.89992141021968

  @Extrapolated MP2/(D,T):          -2.89992141021968



   ==> Helgaker 2-point correlated extrapolation for method: HF <==

   LO-zeta (2) Correlation Energy:   -2.85573417836636
   HI-zeta (3) Correlation Energy:   -2.86120637556980
   Beta (coefficient) Value:          0.06221024189174
   Extrapolated Correlation Energy:  -2.86351045860283

  @Extrapolated HF/(D,T):           -2.86351045860283


   ==> Components <==

  ---------------------------------------------------------------------------------------------------------
                          Method / Basis                      Rqd      Energy [Eh]   Variable
  ---------------------------------------------------------------------------------------------------------
                             mp2 / aug-cc-pvdz                  *      -2.88268981   MP2 TOTAL ENERGY
                              hf / aug-cc-pvdz                  *      -2.85573418   HF TOTAL ENERGY
                             mp2 / aug-cc-pvtz                  *      -2.89481575   MP2 TOTAL ENERGY
                              hf / aug-cc-pvtz                  *      -2.86120638   HF TOTAL ENERGY
  ---------------------------------------------------------------------------------------------------------

   ==> Stages <==

  ---------------------------------------------------------------------------------------------------------
      Stage               Method / Basis                       Wt      Energy [Eh]   Scheme
  ---------------------------------------------------------------------------------------------------------
        scf                   hf / aug-cc-pvtz                  1      -2.86120638   cbs_xtpl_highest_1
       corl                  mp2 / aug-cc-pv[dt]z               1      -2.89992141   corl_xtpl_helgaker_2
       corl                   hf / aug-cc-pv[dt]z              -1      -2.86351046   corl_xtpl_helgaker_2
  ---------------------------------------------------------------------------------------------------------

   ==> CBS <==

  ---------------------------------------------------------------------------------------------------------
      Stage               Method / Basis                               Energy [Eh]   Scheme
  ---------------------------------------------------------------------------------------------------------
        scf                   hf / aug-cc-pvtz                         -2.86120638   cbs_xtpl_highest_1
       corl                  mp2 / aug-cc-pv[dt]z                      -0.03641095   corl_xtpl_helgaker_2
      total                  CBS                                       -2.89761733   
  ---------------------------------------------------------------------------------------------------------

       N-Body: Computing complex (2/12) with fragments (3,) in the basis of fragments (2, 3).


  //>>>>>>>>>>>>>>>>>>>>>>>>>>>>>>>>>>>//
  //   CBS Setup: mp2/aug-cc-pv[d,t]z  //
  //<<<<<<<<<<<<<<<<<<<<<<<<<<<<<<<<<<<//

    Naive listing of computations required.
             hf / aug-cc-pvtz              for  HF TOTAL ENERGY
            mp2 / aug-cc-pvdz              for  MP2 TOTAL ENERGY
            mp2 / aug-cc-pvtz              for  MP2 TOTAL ENERGY
             hf / aug-cc-pvdz              for  HF TOTAL ENERGY
             hf / aug-cc-pvtz              for  HF TOTAL ENERGY

    Enlightened listing of computations required.
            mp2 / aug-cc-pvdz              for  MP2 TOTAL ENERGY
            mp2 / aug-cc-pvtz              for  MP2 TOTAL ENERGY

    Full listing of computations to be obtained (required and bonus).
            mp2 / aug-cc-pvdz              for  MP2 TOTAL ENERGY
             hf / aug-cc-pvdz              for  HF TOTAL ENERGY
            mp2 / aug-cc-pvtz              for  MP2 TOTAL ENERGY
             hf / aug-cc-pvtz              for  HF TOTAL ENERGY

  //>>>>>>>>>>>>>>>>>>>>>>>>>>>>>>>>>>>>//
  // CBS Computation: MP2 / AUG-CC-PVDZ //
  //<<<<<<<<<<<<<<<<<<<<<<<<<<<<<<<<<<<<//

    SCF Algorithm Type (re)set to DF.
    There are an even number of electrons - assuming singlet.
    Specify the multiplicity in the molecule input block.


*** tstart() called on ds1.sherrill.chemistry.gatech.edu
*** at Mon Apr 25 16:48:35 2016


         ---------------------------------------------------------
                                   SCF
            by Justin Turney, Rob Parrish, and Andy Simmonett
                              RHF Reference
                        1 Threads,    500 MiB Core
         ---------------------------------------------------------

  ==> Geometry <==

    Molecular point group: c2v
    Full point group: C_inf_v

    Geometry (in Angstrom), charge = 0, multiplicity = 1:

       Center              X                  Y                   Z               Mass       
    ------------   -----------------  -----------------  -----------------  -----------------
          HE(Gh)     -0.000000000000     0.000000000000    -2.828427124746     4.002603254150
          HE          0.000000000000     0.000000000000     2.828427124746     4.002603254150

  Running in c2v symmetry.

  Rotational constants: A = ************  B =      0.26323  C =      0.26323 [cm^-1]
  Rotational constants: A = ************  B =   7891.41112  C =   7891.41112 [MHz]
  Nuclear repulsion =    0.000000000000000

  Charge       = 0
  Multiplicity = 1
  Electrons    = 2
  Nalpha       = 1
  Nbeta        = 1

  ==> Algorithm <==

  SCF Algorithm Type is DF.
  DIIS enabled.
  MOM disabled.
  Fractional occupation disabled.
  Guess Type is CORE.
  Energy threshold   = 1.00e-10
  Density threshold  = 1.00e-10
  Integral threshold = 0.00e+00

  ==> Primary Basis <==

  Basis Set: AUG-CC-PVDZ
    Number of shells: 10
    Number of basis function: 18
    Number of Cartesian functions: 18
    Spherical Harmonics?: true
    Max angular momentum: 1

  ==> Pre-Iterations <==

   -------------------------------------------------------
    Irrep   Nso     Nmo     Nalpha   Nbeta   Ndocc  Nsocc
   -------------------------------------------------------
     A1        10      10       0       0       0       0
     A2         0       0       0       0       0       0
     B1         4       4       0       0       0       0
     B2         4       4       0       0       0       0
   -------------------------------------------------------
    Total      18      18       1       1       1       0
   -------------------------------------------------------

  ==> Integral Setup <==

  ==> DFJK: Density-Fitted J/K Matrices <==

    J tasked:                  Yes
    K tasked:                  Yes
    wK tasked:                  No
    OpenMP threads:              1
    Integrals threads:           1
    Memory (MB):               357
    Algorithm:                Core
    Integral Cache:           NONE
    Schwarz Cutoff:          1E-12
    Fitting Condition:       1E-12

   => Auxiliary Basis Set <=

  Basis Set: 
    Number of shells: 18
    Number of basis function: 46
    Number of Cartesian functions: 50
    Spherical Harmonics?: true
    Max angular momentum: 2

  Minimum eigenvalue in the overlap matrix is 1.7187926436E-01.
  Using Symmetric Orthogonalization.
  SCF Guess: Core (One-Electron) Hamiltonian.

  ==> Iterations <==

                           Total Energy        Delta E     RMS |[F,P]|

   @DF-RHF iter   1:    -2.74264525563741   -2.74265e+00   4.17772e-02 
   @DF-RHF iter   2:    -2.85462222482924   -1.11977e-01   3.66960e-03 DIIS
   @DF-RHF iter   3:    -2.85572315003887   -1.10093e-03   2.77959e-04 DIIS
   @DF-RHF iter   4:    -2.85573407893117   -1.09289e-05   1.06668e-05 DIIS
   @DF-RHF iter   5:    -2.85573409318586   -1.42547e-08   3.08019e-08 DIIS
   @DF-RHF iter   6:    -2.85573409318596   -9.90319e-14   2.41751e-09 DIIS
   @DF-RHF iter   7:    -2.85573409318596   -4.44089e-15   2.30084e-10 DIIS
   @DF-RHF iter   8:    -2.85573409318596    1.33227e-15   5.89514e-12 DIIS

  ==> Post-Iterations <==

    Orbital Energies (a.u.)
    -----------------------

    Doubly Occupied:                                                      

       1A1    -0.917166  

    Virtual:                                                              

       2A1     0.099532     3A1     0.176319     4A1     0.532147  
       1B2     0.532188     1B1     0.532188     2B2     0.602256  
       2B1     0.602256     5A1     0.602284     6A1     0.645406  
       7A1     1.714134     3B1     3.025935     3B2     3.025935  
       8A1     3.025947     4B2     3.688359     4B1     3.688359  
       9A1     3.688378    10A1     4.533399  

    Final Occupation by Irrep:
             A1    A2    B1    B2 
    DOCC [     1,    0,    0,    0 ]

  Energy converged.

  @DF-RHF Final Energy:    -2.85573409318596

   => Energetics <=

    Nuclear Repulsion Energy =              0.0000000000000000
    One-Electron Energy =                  -3.8771361499439334
    Two-Electron Energy =                   1.0214020567579709
    DFT Exchange-Correlation Energy =       0.0000000000000000
    Empirical Dispersion Energy =           0.0000000000000000
    PCM Polarization Energy =               0.0000000000000000
    EFP Energy =                            0.0000000000000000
    Total Energy =                         -2.8557340931859625


  Saving occupied orbitals to File 180.

*** tstop() called on ds1.sherrill.chemistry.gatech.edu at Mon Apr 25 16:48:35 2016
Module time:
	user time   =       0.09 seconds =       0.00 minutes
	system time =       0.00 seconds =       0.00 minutes
	total time  =          0 seconds =       0.00 minutes
Total time:
	user time   =       0.73 seconds =       0.01 minutes
	system time =       0.02 seconds =       0.00 minutes
	total time  =          1 seconds =       0.02 minutes


Properties will be evaluated at   0.000000,   0.000000,   0.000000 Bohr

Properties computed using the SCF density matrix

  Nuclear Dipole Moment: (a.u.)
     X:     0.0000      Y:    -0.0000      Z:    10.6899

  Electronic Dipole Moment: (a.u.)
     X:     0.0000      Y:     0.0000      Z:   -10.6899

  Dipole Moment: (a.u.)
     X:     0.0000      Y:    -0.0000      Z:    -0.0000     Total:     0.0000

  Dipole Moment: (Debye)
     X:     0.0000      Y:    -0.0000      Z:    -0.0000     Total:     0.0000


  //>>>>>>>>>>>>>>>>>>>>>>>>>>>>>>>>>>>//
  //               DFMP2               //
  //<<<<<<<<<<<<<<<<<<<<<<<<<<<<<<<<<<<//


*** tstart() called on ds1.sherrill.chemistry.gatech.edu
*** at Mon Apr 25 16:48:35 2016


*** tstop() called on ds1.sherrill.chemistry.gatech.edu at Mon Apr 25 16:48:35 2016
Module time:
	user time   =       0.03 seconds =       0.00 minutes
	system time =       0.00 seconds =       0.00 minutes
	total time  =          0 seconds =       0.00 minutes
Total time:
	user time   =       0.76 seconds =       0.01 minutes
	system time =       0.02 seconds =       0.00 minutes
	total time  =          1 seconds =       0.02 minutes
	 --------------------------------------------------------
	                          DF-MP2                         
	      2nd-Order Density-Fitted Moller-Plesset Theory     
	              RMP2 Wavefunction,   1 Threads             
	                                                         
	        Rob Parrish, Justin Turney, Andy Simmonett,      
	           Ed Hohenstein, and C. David Sherrill          
	 --------------------------------------------------------

   => Auxiliary Basis Set <=

  Basis Set: 
    Number of shells: 14
    Number of basis function: 26
    Number of Cartesian functions: 26
    Spherical Harmonics?: true
    Max angular momentum: 1

	 --------------------------------------------------------
	                 NBF =    18, NAUX =    26
	 --------------------------------------------------------
	   CLASS    FOCC     OCC    AOCC    AVIR     VIR    FVIR
	   PAIRS       0       1       1      17      17       0
	 --------------------------------------------------------

	-----------------------------------------------------------
	 ==================> DF-MP2 Energies <==================== 
	-----------------------------------------------------------
	 Reference Energy          =      -2.8557340931859625 [Eh]
	 Singles Energy            =      -0.0000000000000000 [Eh]
	 Same-Spin Energy          =      -0.0000000000000000 [Eh]
	 Opposite-Spin Energy      =      -0.0269537772480105 [Eh]
	 Correlation Energy        =      -0.0269537772480105 [Eh]
	 Total Energy              =      -2.8826878704339731 [Eh]
	-----------------------------------------------------------
	 ================> DF-SCS-MP2 Energies <================== 
	-----------------------------------------------------------
	 SCS Same-Spin Scale       =       0.3333333333333333 [-]
	 SCS Opposite-Spin Scale   =       1.2000000000000000 [-]
	 SCS Same-Spin Energy      =      -0.0000000000000000 [Eh]
	 SCS Opposite-Spin Energy  =      -0.0323445326976126 [Eh]
	 SCS Correlation Energy    =      -0.0323445326976126 [Eh]
	 SCS Total Energy          =      -2.8880786258835749 [Eh]
	-----------------------------------------------------------


  //>>>>>>>>>>>>>>>>>>>>>>>>>>>>>>>>>>>>//
  // CBS Computation: MP2 / AUG-CC-PVTZ //
  //<<<<<<<<<<<<<<<<<<<<<<<<<<<<<<<<<<<<//

    SCF Algorithm Type (re)set to DF.

*** tstart() called on ds1.sherrill.chemistry.gatech.edu
*** at Mon Apr 25 16:48:35 2016


         ---------------------------------------------------------
                                   SCF
            by Justin Turney, Rob Parrish, and Andy Simmonett
                              RHF Reference
                        1 Threads,    500 MiB Core
         ---------------------------------------------------------

  ==> Geometry <==

    Molecular point group: c2v
    Full point group: C_inf_v

    Geometry (in Angstrom), charge = 0, multiplicity = 1:

       Center              X                  Y                   Z               Mass       
    ------------   -----------------  -----------------  -----------------  -----------------
          HE(Gh)      0.000000000000    -0.000000000000    -2.828427124746     4.002603254150
          HE          0.000000000000     0.000000000000     2.828427124746     4.002603254150

  Running in c2v symmetry.

  Rotational constants: A = ************  B =      0.26323  C =      0.26323 [cm^-1]
  Rotational constants: A = ************  B =   7891.41112  C =   7891.41112 [MHz]
  Nuclear repulsion =    0.000000000000000

  Charge       = 0
  Multiplicity = 1
  Electrons    = 2
  Nalpha       = 1
  Nbeta        = 1

  ==> Algorithm <==

  SCF Algorithm Type is DF.
  DIIS enabled.
  MOM disabled.
  Fractional occupation disabled.
  Guess Type is CORE.
  Energy threshold   = 1.00e-10
  Density threshold  = 1.00e-10
  Integral threshold = 0.00e+00

  ==> Primary Basis <==

  Basis Set: AUG-CC-PVTZ
    Number of shells: 18
    Number of basis function: 46
    Number of Cartesian functions: 50
    Spherical Harmonics?: true
    Max angular momentum: 2

  ==> Pre-Iterations <==

   -------------------------------------------------------
    Irrep   Nso     Nmo     Nalpha   Nbeta   Ndocc  Nsocc
   -------------------------------------------------------
     A1        22      22       0       0       0       0
     A2         4       4       0       0       0       0
     B1        10      10       0       0       0       0
     B2        10      10       0       0       0       0
   -------------------------------------------------------
    Total      46      46       1       1       1       0
   -------------------------------------------------------

  ==> Integral Setup <==

  ==> DFJK: Density-Fitted J/K Matrices <==

    J tasked:                  Yes
    K tasked:                  Yes
    wK tasked:                  No
    OpenMP threads:              1
    Integrals threads:           1
    Memory (MB):               357
    Algorithm:                Core
    Integral Cache:           NONE
    Schwarz Cutoff:          1E-12
    Fitting Condition:       1E-12

   => Auxiliary Basis Set <=

  Basis Set: 
    Number of shells: 18
    Number of basis function: 46
    Number of Cartesian functions: 50
    Spherical Harmonics?: true
    Max angular momentum: 2

  Minimum eigenvalue in the overlap matrix is 6.7380645779E-02.
  Using Symmetric Orthogonalization.
  SCF Guess: Core (One-Electron) Hamiltonian.

  ==> Iterations <==

                           Total Energy        Delta E     RMS |[F,P]|

   @DF-RHF iter   1:    -2.75222057986434   -2.75222e+00   2.00111e-02 
   @DF-RHF iter   2:    -2.85975180830154   -1.07531e-01   1.66988e-03 DIIS
   @DF-RHF iter   3:    -2.86118116275551   -1.42935e-03   2.46211e-04 DIIS
   @DF-RHF iter   4:    -2.86120615628268   -2.49935e-05   8.35917e-06 DIIS
   @DF-RHF iter   5:    -2.86120621580142   -5.95187e-08   8.70582e-07 DIIS
   @DF-RHF iter   6:    -2.86120621633741   -5.35985e-10   3.23142e-09 DIIS
   @DF-RHF iter   7:    -2.86120621633741   -5.32907e-15   3.21694e-10 DIIS
   @DF-RHF iter   8:    -2.86120621633742   -2.66454e-15   2.83177e-11 DIIS

  ==> Post-Iterations <==

    Orbital Energies (a.u.)
    -----------------------

    Doubly Occupied:                                                      

       1A1    -0.917881  

    Virtual:                                                              

       2A1     0.067681     3A1     0.114331     4A1     0.420617  
       1B1     0.429056     1B2     0.429056     5A1     0.436908  
       2B2     0.470415     2B1     0.470415     6A1     0.470697  
       7A1     0.844283     8A1     1.520754     1A2     1.520754  
       3B1     1.520755     3B2     1.520755     9A1     1.520767  
       4B2     1.570492     4B1     1.570492    10A1     1.570495  
       2A2     1.570495    11A1     1.570548    12A1     1.728972  
       5B1     1.962816     5B2     1.962816    13A1     1.963331  
       6B1     2.282723     6B2     2.282723    14A1     2.283024  
      15A1     4.823333     7B1     7.123617     7B2     7.123617  
      16A1     7.123617     3A2     7.123617    17A1     7.123634  
       4A2     7.640343    18A1     7.640343     8B2     7.640344  
       8B1     7.640344    19A1     7.640365     9B1     8.222488  
       9B2     8.222488    20A1     8.222625    21A1     9.096284  
      10B1     9.719441    10B2     9.719441    22A1     9.719621  

    Final Occupation by Irrep:
             A1    A2    B1    B2 
    DOCC [     1,    0,    0,    0 ]

  Energy converged.

  @DF-RHF Final Energy:    -2.86120621633742

   => Energetics <=

    Nuclear Repulsion Energy =              0.0000000000000000
    One-Electron Energy =                  -3.8866500225709761
    Two-Electron Energy =                   1.0254438062335591
    DFT Exchange-Correlation Energy =       0.0000000000000000
    Empirical Dispersion Energy =           0.0000000000000000
    PCM Polarization Energy =               0.0000000000000000
    EFP Energy =                            0.0000000000000000
    Total Energy =                         -2.8612062163374170


  Saving occupied orbitals to File 180.

*** tstop() called on ds1.sherrill.chemistry.gatech.edu at Mon Apr 25 16:48:35 2016
Module time:
	user time   =       0.11 seconds =       0.00 minutes
	system time =       0.01 seconds =       0.00 minutes
	total time  =          0 seconds =       0.00 minutes
Total time:
	user time   =       0.94 seconds =       0.02 minutes
	system time =       0.03 seconds =       0.00 minutes
	total time  =          1 seconds =       0.02 minutes


Properties will be evaluated at   0.000000,   0.000000,   0.000000 Bohr

Properties computed using the SCF density matrix

  Nuclear Dipole Moment: (a.u.)
     X:     0.0000      Y:     0.0000      Z:    10.6899

  Electronic Dipole Moment: (a.u.)
     X:     0.0000      Y:     0.0000      Z:   -10.6899

  Dipole Moment: (a.u.)
     X:     0.0000      Y:     0.0000      Z:    -0.0000     Total:     0.0000

  Dipole Moment: (Debye)
     X:     0.0000      Y:     0.0000      Z:    -0.0000     Total:     0.0000


  //>>>>>>>>>>>>>>>>>>>>>>>>>>>>>>>>>>>//
  //               DFMP2               //
  //<<<<<<<<<<<<<<<<<<<<<<<<<<<<<<<<<<<//


*** tstart() called on ds1.sherrill.chemistry.gatech.edu
*** at Mon Apr 25 16:48:35 2016


*** tstop() called on ds1.sherrill.chemistry.gatech.edu at Mon Apr 25 16:48:36 2016
Module time:
	user time   =       0.03 seconds =       0.00 minutes
	system time =      -0.00 seconds =      -0.00 minutes
	total time  =          1 seconds =       0.02 minutes
Total time:
	user time   =       0.97 seconds =       0.02 minutes
	system time =       0.03 seconds =       0.00 minutes
	total time  =          2 seconds =       0.03 minutes
	 --------------------------------------------------------
	                          DF-MP2                         
	      2nd-Order Density-Fitted Moller-Plesset Theory     
	              RMP2 Wavefunction,   1 Threads             
	                                                         
	        Rob Parrish, Justin Turney, Andy Simmonett,      
	           Ed Hohenstein, and C. David Sherrill          
	 --------------------------------------------------------

   => Auxiliary Basis Set <=

  Basis Set: 
    Number of shells: 28
    Number of basis function: 72
    Number of Cartesian functions: 78
    Spherical Harmonics?: true
    Max angular momentum: 2

	 --------------------------------------------------------
	                 NBF =    46, NAUX =    72
	 --------------------------------------------------------
	   CLASS    FOCC     OCC    AOCC    AVIR     VIR    FVIR
	   PAIRS       0       1       1      45      45       0
	 --------------------------------------------------------

	-----------------------------------------------------------
	 ==================> DF-MP2 Energies <==================== 
	-----------------------------------------------------------
	 Reference Energy          =      -2.8612062163374170 [Eh]
	 Singles Energy            =      -0.0000000000000000 [Eh]
	 Same-Spin Energy          =      -0.0000000000000000 [Eh]
	 Opposite-Spin Energy      =      -0.0336087028070571 [Eh]
	 Correlation Energy        =      -0.0336087028070571 [Eh]
	 Total Energy              =      -2.8948149191444741 [Eh]
	-----------------------------------------------------------
	 ================> DF-SCS-MP2 Energies <================== 
	-----------------------------------------------------------
	 SCS Same-Spin Scale       =       0.3333333333333333 [-]
	 SCS Opposite-Spin Scale   =       1.2000000000000000 [-]
	 SCS Same-Spin Energy      =      -0.0000000000000000 [Eh]
	 SCS Opposite-Spin Energy  =      -0.0403304433684685 [Eh]
	 SCS Correlation Energy    =      -0.0403304433684685 [Eh]
	 SCS Total Energy          =      -2.9015366597058856 [Eh]
	-----------------------------------------------------------


  //>>>>>>>>>>>>>>>>>>>>>>>>>>>>>>>>>>>//
  //  CBS Results: mp2/aug-cc-pv[d,t]z //
  //<<<<<<<<<<<<<<<<<<<<<<<<<<<<<<<<<<<//


   ==> HF <==

   HI-zeta (3) Total Energy:             -2.86120622


   ==> Helgaker 2-point correlated extrapolation for method: MP2 <==

   LO-zeta (2) Correlation Energy:   -2.88268787043397
   HI-zeta (3) Correlation Energy:   -2.89481491914447
   Beta (coefficient) Value:          0.13786539586675
   Extrapolated Correlation Energy:  -2.89992104491732

  @Extrapolated MP2/(D,T):          -2.89992104491732



   ==> Helgaker 2-point correlated extrapolation for method: HF <==

   LO-zeta (2) Correlation Energy:   -2.85573409318596
   HI-zeta (3) Correlation Energy:   -2.86120621633742
   Beta (coefficient) Value:          0.06220940003759
   Extrapolated Correlation Energy:  -2.86351026819066

  @Extrapolated HF/(D,T):           -2.86351026819066


   ==> Components <==

  ---------------------------------------------------------------------------------------------------------
                          Method / Basis                      Rqd      Energy [Eh]   Variable
  ---------------------------------------------------------------------------------------------------------
                             mp2 / aug-cc-pvdz                  *      -2.88268787   MP2 TOTAL ENERGY
                              hf / aug-cc-pvdz                  *      -2.85573409   HF TOTAL ENERGY
                             mp2 / aug-cc-pvtz                  *      -2.89481492   MP2 TOTAL ENERGY
                              hf / aug-cc-pvtz                  *      -2.86120622   HF TOTAL ENERGY
  ---------------------------------------------------------------------------------------------------------

   ==> Stages <==

  ---------------------------------------------------------------------------------------------------------
      Stage               Method / Basis                       Wt      Energy [Eh]   Scheme
  ---------------------------------------------------------------------------------------------------------
        scf                   hf / aug-cc-pvtz                  1      -2.86120622   cbs_xtpl_highest_1
       corl                  mp2 / aug-cc-pv[dt]z               1      -2.89992104   corl_xtpl_helgaker_2
       corl                   hf / aug-cc-pv[dt]z              -1      -2.86351027   corl_xtpl_helgaker_2
  ---------------------------------------------------------------------------------------------------------

   ==> CBS <==

  ---------------------------------------------------------------------------------------------------------
      Stage               Method / Basis                               Energy [Eh]   Scheme
  ---------------------------------------------------------------------------------------------------------
        scf                   hf / aug-cc-pvtz                         -2.86120622   cbs_xtpl_highest_1
       corl                  mp2 / aug-cc-pv[dt]z                      -0.03641078   corl_xtpl_helgaker_2
      total                  CBS                                       -2.89761699   
  ---------------------------------------------------------------------------------------------------------

       N-Body: Computing complex (3/12) with fragments (2,) in the basis of fragments (1, 2, 3).


  //>>>>>>>>>>>>>>>>>>>>>>>>>>>>>>>>>>>//
  //   CBS Setup: mp2/aug-cc-pv[d,t]z  //
  //<<<<<<<<<<<<<<<<<<<<<<<<<<<<<<<<<<<//

    Naive listing of computations required.
             hf / aug-cc-pvtz              for  HF TOTAL ENERGY
            mp2 / aug-cc-pvdz              for  MP2 TOTAL ENERGY
            mp2 / aug-cc-pvtz              for  MP2 TOTAL ENERGY
             hf / aug-cc-pvdz              for  HF TOTAL ENERGY
             hf / aug-cc-pvtz              for  HF TOTAL ENERGY

    Enlightened listing of computations required.
            mp2 / aug-cc-pvdz              for  MP2 TOTAL ENERGY
            mp2 / aug-cc-pvtz              for  MP2 TOTAL ENERGY

    Full listing of computations to be obtained (required and bonus).
            mp2 / aug-cc-pvdz              for  MP2 TOTAL ENERGY
             hf / aug-cc-pvdz              for  HF TOTAL ENERGY
            mp2 / aug-cc-pvtz              for  MP2 TOTAL ENERGY
             hf / aug-cc-pvtz              for  HF TOTAL ENERGY

  //>>>>>>>>>>>>>>>>>>>>>>>>>>>>>>>>>>>>//
  // CBS Computation: MP2 / AUG-CC-PVDZ //
  //<<<<<<<<<<<<<<<<<<<<<<<<<<<<<<<<<<<<//

    SCF Algorithm Type (re)set to DF.
    There are an even number of electrons - assuming singlet.
    Specify the multiplicity in the molecule input block.


*** tstart() called on ds1.sherrill.chemistry.gatech.edu
*** at Mon Apr 25 16:48:36 2016


         ---------------------------------------------------------
                                   SCF
            by Justin Turney, Rob Parrish, and Andy Simmonett
                              RHF Reference
                        1 Threads,    500 MiB Core
         ---------------------------------------------------------

  ==> Geometry <==

    Molecular point group: cs
    Full point group: Cs

    Geometry (in Angstrom), charge = 0, multiplicity = 1:

       Center              X                  Y                   Z               Mass       
    ------------   -----------------  -----------------  -----------------  -----------------
          HE(Gh)      0.000000000000     1.885618083164     0.000000000000     4.002603254150
          HE          2.828427124746    -0.942809041582     0.000000000000     4.002603254150
          HE(Gh)     -2.828427124746    -0.942809041582     0.000000000000     4.002603254150

  Running in cs symmetry.

  Rotational constants: A =      0.78969  B =      0.26323  C =      0.19742 [cm^-1]
  Rotational constants: A =  23674.23335  B =   7891.41112  C =   5918.55834 [MHz]
  Nuclear repulsion =    0.000000000000000

  Charge       = 0
  Multiplicity = 1
  Electrons    = 2
  Nalpha       = 1
  Nbeta        = 1

  ==> Algorithm <==

  SCF Algorithm Type is DF.
  DIIS enabled.
  MOM disabled.
  Fractional occupation disabled.
  Guess Type is CORE.
  Energy threshold   = 1.00e-10
  Density threshold  = 1.00e-10
  Integral threshold = 0.00e+00

  ==> Primary Basis <==

  Basis Set: AUG-CC-PVDZ
    Number of shells: 15
    Number of basis function: 27
    Number of Cartesian functions: 27
    Spherical Harmonics?: true
    Max angular momentum: 1

  ==> Pre-Iterations <==

   -------------------------------------------------------
    Irrep   Nso     Nmo     Nalpha   Nbeta   Ndocc  Nsocc
   -------------------------------------------------------
     A'        21      21       0       0       0       0
     A"         6       6       0       0       0       0
   -------------------------------------------------------
    Total      27      27       1       1       1       0
   -------------------------------------------------------

  ==> Integral Setup <==

  ==> DFJK: Density-Fitted J/K Matrices <==

    J tasked:                  Yes
    K tasked:                  Yes
    wK tasked:                  No
    OpenMP threads:              1
    Integrals threads:           1
    Memory (MB):               357
    Algorithm:                Core
    Integral Cache:           NONE
    Schwarz Cutoff:          1E-12
    Fitting Condition:       1E-12

   => Auxiliary Basis Set <=

  Basis Set: 
    Number of shells: 27
    Number of basis function: 69
    Number of Cartesian functions: 75
    Spherical Harmonics?: true
    Max angular momentum: 2

  Minimum eigenvalue in the overlap matrix is 1.4812855918E-01.
  Using Symmetric Orthogonalization.
  SCF Guess: Core (One-Electron) Hamiltonian.

  ==> Iterations <==

                           Total Energy        Delta E     RMS |[F,P]|

   @DF-RHF iter   1:    -2.74266824529396   -2.74267e+00   2.19807e-02 
   @DF-RHF iter   2:    -2.85461990204525   -1.11952e-01   1.93119e-03 DIIS
   @DF-RHF iter   3:    -2.85572322557118   -1.10332e-03   1.46738e-04 DIIS
   @DF-RHF iter   4:    -2.85573416332631   -1.09378e-05   5.70953e-06 DIIS
   @DF-RHF iter   5:    -2.85573417836048   -1.50342e-08   1.12364e-07 DIIS
   @DF-RHF iter   6:    -2.85573417836635   -5.87352e-12   3.85590e-09 DIIS
   @DF-RHF iter   7:    -2.85573417836636   -9.76996e-15   5.17657e-10 DIIS
   @DF-RHF iter   8:    -2.85573417836635    5.77316e-15   5.31434e-11 DIIS

  ==> Post-Iterations <==

    Orbital Energies (a.u.)
    -----------------------

    Doubly Occupied:                                                      

       1Ap    -0.917162  

    Virtual:                                                              

       2Ap     0.081341     3Ap     0.120488     4Ap     0.185673  
       5Ap     0.526808     6Ap     0.532157     1App    0.532191  
       7Ap     0.578619     2App    0.600690     8Ap     0.602032  
       3App    0.603857     9Ap     0.605373    10Ap     0.611155  
      11Ap     0.652502    12Ap     0.694738    13Ap     1.723059  
       4App    3.025943    14Ap     3.025949    15Ap     3.028553  
      16Ap     3.680049     5App    3.687533    17Ap     3.688245  
       6App    3.689191    18Ap     3.691900    19Ap     3.701014  
      20Ap     4.525754    21Ap     4.568758  

    Final Occupation by Irrep:
             Ap   App 
    DOCC [     1,    0 ]

  Energy converged.

  @DF-RHF Final Energy:    -2.85573417836635

   => Energetics <=

    Nuclear Repulsion Energy =              0.0000000000000000
    One-Electron Energy =                  -3.8771452812480862
    Two-Electron Energy =                   1.0214111028817321
    DFT Exchange-Correlation Energy =       0.0000000000000000
    Empirical Dispersion Energy =           0.0000000000000000
    PCM Polarization Energy =               0.0000000000000000
    EFP Energy =                            0.0000000000000000
    Total Energy =                         -2.8557341783663541


  Saving occupied orbitals to File 180.

*** tstop() called on ds1.sherrill.chemistry.gatech.edu at Mon Apr 25 16:48:36 2016
Module time:
	user time   =       0.10 seconds =       0.00 minutes
	system time =       0.01 seconds =       0.00 minutes
	total time  =          0 seconds =       0.00 minutes
Total time:
	user time   =       1.28 seconds =       0.02 minutes
	system time =       0.04 seconds =       0.00 minutes
	total time  =          2 seconds =       0.03 minutes


Properties will be evaluated at   0.000000,   0.000000,   0.000000 Bohr

Properties computed using the SCF density matrix

  Nuclear Dipole Moment: (a.u.)
     X:    10.6899      Y:    -3.5633      Z:     0.0000

  Electronic Dipole Moment: (a.u.)
     X:   -10.6899      Y:     3.5633      Z:     0.0000

  Dipole Moment: (a.u.)
     X:     0.0000      Y:    -0.0000      Z:     0.0000     Total:     0.0000

  Dipole Moment: (Debye)
     X:     0.0000      Y:    -0.0000      Z:     0.0000     Total:     0.0001


  //>>>>>>>>>>>>>>>>>>>>>>>>>>>>>>>>>>>//
  //               DFMP2               //
  //<<<<<<<<<<<<<<<<<<<<<<<<<<<<<<<<<<<//


*** tstart() called on ds1.sherrill.chemistry.gatech.edu
*** at Mon Apr 25 16:48:36 2016


*** tstop() called on ds1.sherrill.chemistry.gatech.edu at Mon Apr 25 16:48:36 2016
Module time:
	user time   =       0.04 seconds =       0.00 minutes
	system time =       0.00 seconds =       0.00 minutes
	total time  =          0 seconds =       0.00 minutes
Total time:
	user time   =       1.32 seconds =       0.02 minutes
	system time =       0.04 seconds =       0.00 minutes
	total time  =          2 seconds =       0.03 minutes
	 --------------------------------------------------------
	                          DF-MP2                         
	      2nd-Order Density-Fitted Moller-Plesset Theory     
	              RMP2 Wavefunction,   1 Threads             
	                                                         
	        Rob Parrish, Justin Turney, Andy Simmonett,      
	           Ed Hohenstein, and C. David Sherrill          
	 --------------------------------------------------------

   => Auxiliary Basis Set <=

  Basis Set: 
    Number of shells: 21
    Number of basis function: 39
    Number of Cartesian functions: 39
    Spherical Harmonics?: true
    Max angular momentum: 1

	 --------------------------------------------------------
	                 NBF =    27, NAUX =    39
	 --------------------------------------------------------
	   CLASS    FOCC     OCC    AOCC    AVIR     VIR    FVIR
	   PAIRS       0       1       1      26      26       0
	 --------------------------------------------------------

	-----------------------------------------------------------
	 ==================> DF-MP2 Energies <==================== 
	-----------------------------------------------------------
	 Reference Energy          =      -2.8557341783663541 [Eh]
	 Singles Energy            =      -0.0000000000000000 [Eh]
	 Same-Spin Energy          =      -0.0000000000000000 [Eh]
	 Opposite-Spin Energy      =      -0.0269556335950951 [Eh]
	 Correlation Energy        =      -0.0269556335950951 [Eh]
	 Total Energy              =      -2.8826898119614492 [Eh]
	-----------------------------------------------------------
	 ================> DF-SCS-MP2 Energies <================== 
	-----------------------------------------------------------
	 SCS Same-Spin Scale       =       0.3333333333333333 [-]
	 SCS Opposite-Spin Scale   =       1.2000000000000000 [-]
	 SCS Same-Spin Energy      =      -0.0000000000000000 [Eh]
	 SCS Opposite-Spin Energy  =      -0.0323467603141141 [Eh]
	 SCS Correlation Energy    =      -0.0323467603141141 [Eh]
	 SCS Total Energy          =      -2.8880809386804684 [Eh]
	-----------------------------------------------------------


  //>>>>>>>>>>>>>>>>>>>>>>>>>>>>>>>>>>>>//
  // CBS Computation: MP2 / AUG-CC-PVTZ //
  //<<<<<<<<<<<<<<<<<<<<<<<<<<<<<<<<<<<<//

    SCF Algorithm Type (re)set to DF.

*** tstart() called on ds1.sherrill.chemistry.gatech.edu
*** at Mon Apr 25 16:48:36 2016


         ---------------------------------------------------------
                                   SCF
            by Justin Turney, Rob Parrish, and Andy Simmonett
                              RHF Reference
                        1 Threads,    500 MiB Core
         ---------------------------------------------------------

  ==> Geometry <==

    Molecular point group: cs
    Full point group: Cs

    Geometry (in Angstrom), charge = 0, multiplicity = 1:

       Center              X                  Y                   Z               Mass       
    ------------   -----------------  -----------------  -----------------  -----------------
          HE(Gh)      0.000000000000     1.885618083164     0.000000000000     4.002603254150
          HE          2.828427124746    -0.942809041582     0.000000000000     4.002603254150
          HE(Gh)     -2.828427124746    -0.942809041582     0.000000000000     4.002603254150

  Running in cs symmetry.

  Rotational constants: A =      0.78969  B =      0.26323  C =      0.19742 [cm^-1]
  Rotational constants: A =  23674.23335  B =   7891.41112  C =   5918.55834 [MHz]
  Nuclear repulsion =    0.000000000000000

  Charge       = 0
  Multiplicity = 1
  Electrons    = 2
  Nalpha       = 1
  Nbeta        = 1

  ==> Algorithm <==

  SCF Algorithm Type is DF.
  DIIS enabled.
  MOM disabled.
  Fractional occupation disabled.
  Guess Type is CORE.
  Energy threshold   = 1.00e-10
  Density threshold  = 1.00e-10
  Integral threshold = 0.00e+00

  ==> Primary Basis <==

  Basis Set: AUG-CC-PVTZ
    Number of shells: 27
    Number of basis function: 69
    Number of Cartesian functions: 75
    Spherical Harmonics?: true
    Max angular momentum: 2

  ==> Pre-Iterations <==

   -------------------------------------------------------
    Irrep   Nso     Nmo     Nalpha   Nbeta   Ndocc  Nsocc
   -------------------------------------------------------
     A'        48      48       0       0       0       0
     A"        21      21       0       0       0       0
   -------------------------------------------------------
    Total      69      69       1       1       1       0
   -------------------------------------------------------

  ==> Integral Setup <==

  ==> DFJK: Density-Fitted J/K Matrices <==

    J tasked:                  Yes
    K tasked:                  Yes
    wK tasked:                  No
    OpenMP threads:              1
    Integrals threads:           1
    Memory (MB):               357
    Algorithm:                Core
    Integral Cache:           NONE
    Schwarz Cutoff:          1E-12
    Fitting Condition:       1E-12

   => Auxiliary Basis Set <=

  Basis Set: 
    Number of shells: 27
    Number of basis function: 69
    Number of Cartesian functions: 75
    Spherical Harmonics?: true
    Max angular momentum: 2

  Minimum eigenvalue in the overlap matrix is 6.2134165755E-02.
  Using Symmetric Orthogonalization.
  SCF Guess: Core (One-Electron) Hamiltonian.

  ==> Iterations <==

                           Total Energy        Delta E     RMS |[F,P]|

   @DF-RHF iter   1:    -2.75221756669904   -2.75222e+00   1.01052e-02 
   @DF-RHF iter   2:    -2.85975353877883   -1.07536e-01   8.43139e-04 DIIS
   @DF-RHF iter   3:    -2.86118140637319   -1.42787e-03   1.24107e-04 DIIS
   @DF-RHF iter   4:    -2.86120631504250   -2.49087e-05   4.24772e-06 DIIS
   @DF-RHF iter   5:    -2.86120637503960   -5.99971e-08   4.38701e-07 DIIS
   @DF-RHF iter   6:    -2.86120637556977   -5.30172e-10   3.59602e-09 DIIS
   @DF-RHF iter   7:    -2.86120637556980   -2.62013e-14   3.97770e-10 DIIS
   @DF-RHF iter   8:    -2.86120637556980    1.33227e-15   6.53692e-11 DIIS

  ==> Post-Iterations <==

    Orbital Energies (a.u.)
    -----------------------

    Doubly Occupied:                                                      

       1Ap    -0.917878  

    Virtual:                                                              

       2Ap     0.055578     3Ap     0.090728     4Ap     0.123725  
       5Ap     0.404834     6Ap     0.417634     1App    0.428682  
       7Ap     0.430008     8Ap     0.433975     9Ap     0.456984  
       2App    0.466306    10Ap     0.470859     3App    0.474973  
      11Ap     0.506079    12Ap     0.540446    13Ap     0.853435  
       4App    1.520773    14Ap     1.520773     5App    1.520776  
      15Ap     1.520786    16Ap     1.521960    17Ap     1.569313  
      18Ap     1.570200     6App    1.570200     7App    1.570468  
      19Ap     1.570511     8App    1.570512    20Ap     1.570787  
       9App    1.570797    21Ap     1.571939    22Ap     1.574016  
      23Ap     1.735334    24Ap     1.743371    10App    1.962822  
      25Ap     1.963104    26Ap     1.971705    27Ap     2.258352  
      11App    2.279260    28Ap     2.282492    12App    2.286323  
      29Ap     2.297143    30Ap     2.329779    31Ap     4.831653  
      13App    7.123620    32Ap     7.123621    14App    7.123621  
      33Ap     7.123636    34Ap     7.124474    35Ap     7.640200  
      15App    7.640255    36Ap     7.640259    16App    7.640341  
      37Ap     7.640343    17App    7.640351    18App    7.640435  
      38Ap     7.640437    39Ap     7.641104    40Ap     7.642093  
      19App    8.222512    41Ap     8.222578    42Ap     8.228736  
      43Ap     9.104352    44Ap     9.115916    45Ap     9.704041  
      20App    9.717346    46Ap     9.719246    21App    9.721583  
      47Ap     9.726536    48Ap     9.749354  

    Final Occupation by Irrep:
             Ap   App 
    DOCC [     1,    0 ]

  Energy converged.

  @DF-RHF Final Energy:    -2.86120637556980

   => Energetics <=

    Nuclear Repulsion Energy =              0.0000000000000000
    One-Electron Energy =                  -3.8866558130500808
    Two-Electron Energy =                   1.0254494374802825
    DFT Exchange-Correlation Energy =       0.0000000000000000
    Empirical Dispersion Energy =           0.0000000000000000
    PCM Polarization Energy =               0.0000000000000000
    EFP Energy =                            0.0000000000000000
    Total Energy =                         -2.8612063755697985


  Saving occupied orbitals to File 180.

*** tstop() called on ds1.sherrill.chemistry.gatech.edu at Mon Apr 25 16:48:36 2016
Module time:
	user time   =       0.14 seconds =       0.00 minutes
	system time =       0.01 seconds =       0.00 minutes
	total time  =          0 seconds =       0.00 minutes
Total time:
	user time   =       1.54 seconds =       0.03 minutes
	system time =       0.05 seconds =       0.00 minutes
	total time  =          2 seconds =       0.03 minutes


Properties will be evaluated at   0.000000,   0.000000,   0.000000 Bohr

Properties computed using the SCF density matrix

  Nuclear Dipole Moment: (a.u.)
     X:    10.6899      Y:    -3.5633      Z:     0.0000

  Electronic Dipole Moment: (a.u.)
     X:   -10.6899      Y:     3.5633      Z:     0.0000

  Dipole Moment: (a.u.)
     X:     0.0000      Y:    -0.0000      Z:     0.0000     Total:     0.0000

  Dipole Moment: (Debye)
     X:     0.0000      Y:    -0.0000      Z:     0.0000     Total:     0.0001


  //>>>>>>>>>>>>>>>>>>>>>>>>>>>>>>>>>>>//
  //               DFMP2               //
  //<<<<<<<<<<<<<<<<<<<<<<<<<<<<<<<<<<<//


*** tstart() called on ds1.sherrill.chemistry.gatech.edu
*** at Mon Apr 25 16:48:36 2016


*** tstop() called on ds1.sherrill.chemistry.gatech.edu at Mon Apr 25 16:48:36 2016
Module time:
	user time   =       0.04 seconds =       0.00 minutes
	system time =       0.00 seconds =       0.00 minutes
	total time  =          0 seconds =       0.00 minutes
Total time:
	user time   =       1.59 seconds =       0.03 minutes
	system time =       0.05 seconds =       0.00 minutes
	total time  =          2 seconds =       0.03 minutes
	 --------------------------------------------------------
	                          DF-MP2                         
	      2nd-Order Density-Fitted Moller-Plesset Theory     
	              RMP2 Wavefunction,   1 Threads             
	                                                         
	        Rob Parrish, Justin Turney, Andy Simmonett,      
	           Ed Hohenstein, and C. David Sherrill          
	 --------------------------------------------------------

   => Auxiliary Basis Set <=

  Basis Set: 
    Number of shells: 42
    Number of basis function: 108
    Number of Cartesian functions: 117
    Spherical Harmonics?: true
    Max angular momentum: 2

	 --------------------------------------------------------
	                 NBF =    69, NAUX =   108
	 --------------------------------------------------------
	   CLASS    FOCC     OCC    AOCC    AVIR     VIR    FVIR
	   PAIRS       0       1       1      68      68       0
	 --------------------------------------------------------

	-----------------------------------------------------------
	 ==================> DF-MP2 Energies <==================== 
	-----------------------------------------------------------
	 Reference Energy          =      -2.8612063755697976 [Eh]
	 Singles Energy            =      -0.0000000000000000 [Eh]
	 Same-Spin Energy          =      -0.0000000000000000 [Eh]
	 Opposite-Spin Energy      =      -0.0336093759066988 [Eh]
	 Correlation Energy        =      -0.0336093759066988 [Eh]
	 Total Energy              =      -2.8948157514764965 [Eh]
	-----------------------------------------------------------
	 ================> DF-SCS-MP2 Energies <================== 
	-----------------------------------------------------------
	 SCS Same-Spin Scale       =       0.3333333333333333 [-]
	 SCS Opposite-Spin Scale   =       1.2000000000000000 [-]
	 SCS Same-Spin Energy      =      -0.0000000000000000 [Eh]
	 SCS Opposite-Spin Energy  =      -0.0403312510880385 [Eh]
	 SCS Correlation Energy    =      -0.0403312510880385 [Eh]
	 SCS Total Energy          =      -2.9015376266578361 [Eh]
	-----------------------------------------------------------


  //>>>>>>>>>>>>>>>>>>>>>>>>>>>>>>>>>>>//
  //  CBS Results: mp2/aug-cc-pv[d,t]z //
  //<<<<<<<<<<<<<<<<<<<<<<<<<<<<<<<<<<<//


   ==> HF <==

   HI-zeta (3) Total Energy:             -2.86120638


   ==> Helgaker 2-point correlated extrapolation for method: MP2 <==

   LO-zeta (2) Correlation Energy:   -2.88268981196145
   HI-zeta (3) Correlation Energy:   -2.89481575147650
   Beta (coefficient) Value:          0.13785278606580
   Extrapolated Correlation Energy:  -2.89992141021967

  @Extrapolated MP2/(D,T):          -2.89992141021967



   ==> Helgaker 2-point correlated extrapolation for method: HF <==

   LO-zeta (2) Correlation Energy:   -2.85573417836635
   HI-zeta (3) Correlation Energy:   -2.86120637556980
   Beta (coefficient) Value:          0.06221024189179
   Extrapolated Correlation Energy:  -2.86351045860283

  @Extrapolated HF/(D,T):           -2.86351045860283


   ==> Components <==

  ---------------------------------------------------------------------------------------------------------
                          Method / Basis                      Rqd      Energy [Eh]   Variable
  ---------------------------------------------------------------------------------------------------------
                             mp2 / aug-cc-pvdz                  *      -2.88268981   MP2 TOTAL ENERGY
                              hf / aug-cc-pvdz                  *      -2.85573418   HF TOTAL ENERGY
                             mp2 / aug-cc-pvtz                  *      -2.89481575   MP2 TOTAL ENERGY
                              hf / aug-cc-pvtz                  *      -2.86120638   HF TOTAL ENERGY
  ---------------------------------------------------------------------------------------------------------

   ==> Stages <==

  ---------------------------------------------------------------------------------------------------------
      Stage               Method / Basis                       Wt      Energy [Eh]   Scheme
  ---------------------------------------------------------------------------------------------------------
        scf                   hf / aug-cc-pvtz                  1      -2.86120638   cbs_xtpl_highest_1
       corl                  mp2 / aug-cc-pv[dt]z               1      -2.89992141   corl_xtpl_helgaker_2
       corl                   hf / aug-cc-pv[dt]z              -1      -2.86351046   corl_xtpl_helgaker_2
  ---------------------------------------------------------------------------------------------------------

   ==> CBS <==

  ---------------------------------------------------------------------------------------------------------
      Stage               Method / Basis                               Energy [Eh]   Scheme
  ---------------------------------------------------------------------------------------------------------
        scf                   hf / aug-cc-pvtz                         -2.86120638   cbs_xtpl_highest_1
       corl                  mp2 / aug-cc-pv[dt]z                      -0.03641095   corl_xtpl_helgaker_2
      total                  CBS                                       -2.89761733   
  ---------------------------------------------------------------------------------------------------------

       N-Body: Computing complex (4/12) with fragments (3,) in the basis of fragments (3,).


  //>>>>>>>>>>>>>>>>>>>>>>>>>>>>>>>>>>>//
  //   CBS Setup: mp2/aug-cc-pv[d,t]z  //
  //<<<<<<<<<<<<<<<<<<<<<<<<<<<<<<<<<<<//

    Naive listing of computations required.
             hf / aug-cc-pvtz              for  HF TOTAL ENERGY
            mp2 / aug-cc-pvdz              for  MP2 TOTAL ENERGY
            mp2 / aug-cc-pvtz              for  MP2 TOTAL ENERGY
             hf / aug-cc-pvdz              for  HF TOTAL ENERGY
             hf / aug-cc-pvtz              for  HF TOTAL ENERGY

    Enlightened listing of computations required.
            mp2 / aug-cc-pvdz              for  MP2 TOTAL ENERGY
            mp2 / aug-cc-pvtz              for  MP2 TOTAL ENERGY

    Full listing of computations to be obtained (required and bonus).
            mp2 / aug-cc-pvdz              for  MP2 TOTAL ENERGY
             hf / aug-cc-pvdz              for  HF TOTAL ENERGY
            mp2 / aug-cc-pvtz              for  MP2 TOTAL ENERGY
             hf / aug-cc-pvtz              for  HF TOTAL ENERGY

  //>>>>>>>>>>>>>>>>>>>>>>>>>>>>>>>>>>>>//
  // CBS Computation: MP2 / AUG-CC-PVDZ //
  //<<<<<<<<<<<<<<<<<<<<<<<<<<<<<<<<<<<<//

    SCF Algorithm Type (re)set to DF.
    There are an even number of electrons - assuming singlet.
    Specify the multiplicity in the molecule input block.


*** tstart() called on ds1.sherrill.chemistry.gatech.edu
*** at Mon Apr 25 16:48:36 2016


         ---------------------------------------------------------
                                   SCF
            by Justin Turney, Rob Parrish, and Andy Simmonett
                              RHF Reference
                        1 Threads,    500 MiB Core
         ---------------------------------------------------------

  ==> Geometry <==

    Molecular point group: d2h
    Geometry (in Angstrom), charge = 0, multiplicity = 1:

       Center              X                  Y                   Z               Mass       
    ------------   -----------------  -----------------  -----------------  -----------------
          HE          0.000000000000     0.000000000000     0.000000000000     4.002603254150

  Running in d2h symmetry.

  Rotational constants: A = ************  B = ************  C = ************ [cm^-1]
  Rotational constants: A = ************  B = ************  C = ************ [MHz]
  Nuclear repulsion =    0.000000000000000

  Charge       = 0
  Multiplicity = 1
  Electrons    = 2
  Nalpha       = 1
  Nbeta        = 1

  ==> Algorithm <==

  SCF Algorithm Type is DF.
  DIIS enabled.
  MOM disabled.
  Fractional occupation disabled.
  Guess Type is CORE.
  Energy threshold   = 1.00e-10
  Density threshold  = 1.00e-10
  Integral threshold = 0.00e+00

  ==> Primary Basis <==

  Basis Set: AUG-CC-PVDZ
    Number of shells: 5
    Number of basis function: 9
    Number of Cartesian functions: 9
    Spherical Harmonics?: true
    Max angular momentum: 1

  ==> Pre-Iterations <==

   -------------------------------------------------------
    Irrep   Nso     Nmo     Nalpha   Nbeta   Ndocc  Nsocc
   -------------------------------------------------------
     Ag         3       3       0       0       0       0
     B1g        0       0       0       0       0       0
     B2g        0       0       0       0       0       0
     B3g        0       0       0       0       0       0
     Au         0       0       0       0       0       0
     B1u        2       2       0       0       0       0
     B2u        2       2       0       0       0       0
     B3u        2       2       0       0       0       0
   -------------------------------------------------------
    Total       9       9       1       1       1       0
   -------------------------------------------------------

  ==> Integral Setup <==

  ==> DFJK: Density-Fitted J/K Matrices <==

    J tasked:                  Yes
    K tasked:                  Yes
    wK tasked:                  No
    OpenMP threads:              1
    Integrals threads:           1
    Memory (MB):               357
    Algorithm:                Core
    Integral Cache:           NONE
    Schwarz Cutoff:          1E-12
    Fitting Condition:       1E-12

   => Auxiliary Basis Set <=

  Basis Set: 
    Number of shells: 9
    Number of basis function: 23
    Number of Cartesian functions: 25
    Spherical Harmonics?: true
    Max angular momentum: 2

  Minimum eigenvalue in the overlap matrix is 1.7542681229E-01.
  Using Symmetric Orthogonalization.
  SCF Guess: Core (One-Electron) Hamiltonian.

  ==> Iterations <==

                           Total Energy        Delta E     RMS |[F,P]|

   @DF-RHF iter   1:    -2.74264530467509   -2.74265e+00   1.04740e-01 
   @DF-RHF iter   2:    -2.85462185156277   -1.11977e-01   9.20132e-03 DIIS
   @DF-RHF iter   3:    -2.85572327880850   -1.10143e-03   6.97697e-04 DIIS
   @DF-RHF iter   4:    -2.85573423939960   -1.09606e-05   2.67321e-05 DIIS
   @DF-RHF iter   5:    -2.85573425362960   -1.42300e-08   5.71526e-08 DIIS
   @DF-RHF iter   6:    -2.85573425362965   -4.97380e-14   5.56701e-11 DIIS

  ==> Post-Iterations <==

    Orbital Energies (a.u.)
    -----------------------

    Doubly Occupied:                                                      

       1Ag    -0.917167  

    Virtual:                                                              

       2Ag     0.175564     1B2u    0.532168     1B3u    0.532168  
       1B1u    0.532168     3Ag     1.713714     2B2u    3.025933  
       2B3u    3.025933     2B1u    3.025933  

    Final Occupation by Irrep:
             Ag   B1g   B2g   B3g    Au   B1u   B2u   B3u 
    DOCC [     1,    0,    0,    0,    0,    0,    0,    0 ]

  Energy converged.

  @DF-RHF Final Energy:    -2.85573425362965

   => Energetics <=

    Nuclear Repulsion Energy =              0.0000000000000000
    One-Electron Energy =                  -3.8771344655833695
    Two-Electron Energy =                   1.0214002119537211
[...]
             A1    A2    B1    B2 
    DOCC [     2,    0,    0,    1 ]

  Energy converged.

  @DF-RHF Final Energy:    -8.56721611406441

   => Energetics <=

    Nuclear Repulsion Energy =              1.4325392098233574
    One-Electron Energy =                 -14.4963777005091021
    Two-Electron Energy =                   4.4966223766213398
    DFT Exchange-Correlation Energy =       0.0000000000000000
    Empirical Dispersion Energy =           0.0000000000000000
    PCM Polarization Energy =               0.0000000000000000
    EFP Energy =                            0.0000000000000000
    Total Energy =                         -8.5672161140644043


  Saving occupied orbitals to File 180.

*** tstop() called on ds1.sherrill.chemistry.gatech.edu at Mon Apr 25 16:48:45 2016
Module time:
	user time   =       0.11 seconds =       0.00 minutes
	system time =      -0.00 seconds =      -0.00 minutes
	total time  =          0 seconds =       0.00 minutes
Total time:
	user time   =       9.68 seconds =       0.16 minutes
	system time =       0.31 seconds =       0.01 minutes
	total time  =         11 seconds =       0.18 minutes


Properties will be evaluated at   0.000000,   0.000000,   0.000000 Bohr

Properties computed using the SCF density matrix

  Nuclear Dipole Moment: (a.u.)
     X:     0.0000      Y:     0.0000      Z:     0.0000

  Electronic Dipole Moment: (a.u.)
     X:     0.0000      Y:     0.0000      Z:     0.0000

  Dipole Moment: (a.u.)
     X:     0.0000      Y:     0.0000      Z:     0.0000     Total:     0.0000

  Dipole Moment: (Debye)
     X:     0.0000      Y:     0.0000      Z:     0.0000     Total:     0.0000


  //>>>>>>>>>>>>>>>>>>>>>>>>>>>>>>>>>>>//
  //               DFMP2               //
  //<<<<<<<<<<<<<<<<<<<<<<<<<<<<<<<<<<<//


*** tstart() called on ds1.sherrill.chemistry.gatech.edu
*** at Mon Apr 25 16:48:45 2016


*** tstop() called on ds1.sherrill.chemistry.gatech.edu at Mon Apr 25 16:48:45 2016
Module time:
	user time   =       0.05 seconds =       0.00 minutes
	system time =      -0.00 seconds =      -0.00 minutes
	total time  =          0 seconds =       0.00 minutes
Total time:
	user time   =       9.73 seconds =       0.16 minutes
	system time =       0.31 seconds =       0.01 minutes
	total time  =         11 seconds =       0.18 minutes
	 --------------------------------------------------------
	                          DF-MP2                         
	      2nd-Order Density-Fitted Moller-Plesset Theory     
	              RMP2 Wavefunction,   1 Threads             
	                                                         
	        Rob Parrish, Justin Turney, Andy Simmonett,      
	           Ed Hohenstein, and C. David Sherrill          
	 --------------------------------------------------------

   => Auxiliary Basis Set <=

  Basis Set: 
    Number of shells: 21
    Number of basis function: 39
    Number of Cartesian functions: 39
    Spherical Harmonics?: true
    Max angular momentum: 1

	 --------------------------------------------------------
	                 NBF =    27, NAUX =    39
	 --------------------------------------------------------
	   CLASS    FOCC     OCC    AOCC    AVIR     VIR    FVIR
	   PAIRS       0       3       3      24      24       0
	 --------------------------------------------------------

	-----------------------------------------------------------
	 ==================> DF-MP2 Energies <==================== 
	-----------------------------------------------------------
	 Reference Energy          =      -8.5672161140644061 [Eh]
	 Singles Energy            =      -0.0000000000000000 [Eh]
	 Same-Spin Energy          =      -0.0000064745745573 [Eh]
	 Opposite-Spin Energy      =      -0.0808796957829638 [Eh]
	 Correlation Energy        =      -0.0808861703575211 [Eh]
	 Total Energy              =      -8.6481022844219275 [Eh]
	-----------------------------------------------------------
	 ================> DF-SCS-MP2 Energies <================== 
	-----------------------------------------------------------
	 SCS Same-Spin Scale       =       0.3333333333333333 [-]
	 SCS Opposite-Spin Scale   =       1.2000000000000000 [-]
	 SCS Same-Spin Energy      =      -0.0000021581915191 [Eh]
	 SCS Opposite-Spin Energy  =      -0.0970556349395566 [Eh]
	 SCS Correlation Energy    =      -0.0970577931310757 [Eh]
	 SCS Total Energy          =      -8.6642739071954811 [Eh]
	-----------------------------------------------------------


  //>>>>>>>>>>>>>>>>>>>>>>>>>>>>>>>>>>>>//
  // CBS Computation: MP2 / AUG-CC-PVTZ //
  //<<<<<<<<<<<<<<<<<<<<<<<<<<<<<<<<<<<<//

    SCF Algorithm Type (re)set to DF.

*** tstart() called on ds1.sherrill.chemistry.gatech.edu
*** at Mon Apr 25 16:48:45 2016


         ---------------------------------------------------------
                                   SCF
            by Justin Turney, Rob Parrish, and Andy Simmonett
                              RHF Reference
                        1 Threads,    500 MiB Core
         ---------------------------------------------------------

  ==> Geometry <==

    Molecular point group: c2v
    Full point group: C2v

    Geometry (in Angstrom), charge = 0, multiplicity = 1:

       Center              X                  Y                   Z               Mass       
    ------------   -----------------  -----------------  -----------------  -----------------
          HE          0.000000000000     0.000000000000    -1.885618083164     4.002603254150
          HE          0.000000000000    -2.828427124746     0.942809041582     4.002603254150
          HE         -0.000000000000     2.828427124746     0.942809041582     4.002603254150

  Running in c2v symmetry.

  Rotational constants: A =      0.78969  B =      0.26323  C =      0.19742 [cm^-1]
  Rotational constants: A =  23674.23335  B =   7891.41112  C =   5918.55834 [MHz]
  Nuclear repulsion =    1.432539209823357

  Charge       = 0
  Multiplicity = 1
  Electrons    = 6
  Nalpha       = 3
  Nbeta        = 3

  ==> Algorithm <==

  SCF Algorithm Type is DF.
  DIIS enabled.
  MOM disabled.
  Fractional occupation disabled.
  Guess Type is CORE.
  Energy threshold   = 1.00e-10
  Density threshold  = 1.00e-10
  Integral threshold = 0.00e+00

  ==> Primary Basis <==

  Basis Set: AUG-CC-PVTZ
    Number of shells: 27
    Number of basis function: 69
    Number of Cartesian functions: 75
    Spherical Harmonics?: true
    Max angular momentum: 2

  ==> Pre-Iterations <==

   -------------------------------------------------------
    Irrep   Nso     Nmo     Nalpha   Nbeta   Ndocc  Nsocc
   -------------------------------------------------------
     A1        27      27       0       0       0       0
     A2         9       9       0       0       0       0
     B1        12      12       0       0       0       0
     B2        21      21       0       0       0       0
   -------------------------------------------------------
    Total      69      69       3       3       3       0
   -------------------------------------------------------

  ==> Integral Setup <==

  ==> DFJK: Density-Fitted J/K Matrices <==

    J tasked:                  Yes
    K tasked:                  Yes
    wK tasked:                  No
    OpenMP threads:              1
    Integrals threads:           1
    Memory (MB):               357
    Algorithm:                Core
    Integral Cache:           NONE
    Schwarz Cutoff:          1E-12
    Fitting Condition:       1E-12

   => Auxiliary Basis Set <=

  Basis Set: 
    Number of shells: 27
    Number of basis function: 69
    Number of Cartesian functions: 75
    Spherical Harmonics?: true
    Max angular momentum: 2

  Minimum eigenvalue in the overlap matrix is 6.2134165755E-02.
  Using Symmetric Orthogonalization.
  SCF Guess: Core (One-Electron) Hamiltonian.

  ==> Iterations <==

                           Total Energy        Delta E     RMS |[F,P]|

   @DF-RHF iter   1:    -8.25610126360864   -8.25610e+00   2.45677e-02 
   @DF-RHF iter   2:    -8.57915260703807   -3.23051e-01   2.07307e-03 DIIS
   @DF-RHF iter   3:    -8.58354494155399   -4.39233e-03   3.11788e-04 DIIS
   @DF-RHF iter   4:    -8.58362639809156   -8.14565e-05   1.16543e-05 DIIS
   @DF-RHF iter   5:    -8.58362662083378   -2.22742e-07   1.20758e-06 DIIS
   @DF-RHF iter   6:    -8.58362662278657   -1.95278e-09   6.74787e-08 DIIS
   @DF-RHF iter   7:    -8.58362662279273   -6.16396e-12   1.90023e-09 DIIS
   @DF-RHF iter   8:    -8.58362662279273    3.55271e-15   1.63496e-10 DIIS
   @DF-RHF iter   9:    -8.58362662279274   -1.06581e-14   8.07835e-12 DIIS

  ==> Post-Iterations <==

    Orbital Energies (a.u.)
    -----------------------

    Doubly Occupied:                                                      

       1A1    -0.918159     1B2    -0.917897     2A1    -0.917645  

    Virtual:                                                              

       3A1     0.090314     2B2     0.123913     4A1     0.141410  
       3B2     0.399665     5A1     0.404498     1B1     0.423195  
       1A2     0.428850     6A1     0.428958     4B2     0.429332  
       2B1     0.434423     5B2     0.468774     7A1     0.481764  
       8A1     0.843469     6B2     0.861386     9A1     0.864775  
       7B2     1.518871    10A1     1.520128    11A1     1.520257  
       3B1     1.520331     2A2     1.520331     8B2     1.520639  
       3A2     1.520640     4B1     1.520640    12A1     1.520651  
       9B2     1.520686     5B1     1.520920     4A2     1.520921  
      13A1     1.521061    10B2     1.524823    14A1     1.525582  
      11B2     1.935981    15A1     1.939255     6B1     1.957713  
       5A2     1.962800    16A1     1.962947    12B2     1.963236  
       7B1     1.967939    13B2     2.003600    17A1     2.016170  
      18A1     4.823034    14B2     4.839876    19A1     4.842195  
      15B2     7.123162    20A1     7.123474     6A2     7.123512  
       8B1     7.123513    21A1     7.123574     9B1     7.123601  
       7A2     7.123601    16B2     7.123602    22A1     7.123612  
      17B2     7.123626     8A2     7.123695    10B1     7.123696  
      23A1     7.123748    18B2     7.125349    24A1     7.125770  
      19B2     8.204710    25A1     8.207199    11B1     8.219308  
       9A2     8.222434    26A1     8.222533    20B2     8.222669  
      12B1     8.225581    21B2     8.248491    27A1     8.256843  

    Final Occupation by Irrep:
             A1    A2    B1    B2 
    DOCC [     2,    0,    0,    1 ]

  Energy converged.

  @DF-RHF Final Energy:    -8.58362662279274

   => Energetics <=

    Nuclear Repulsion Energy =              1.4325392098233574
    One-Electron Energy =                 -14.5249304506873411
    Two-Electron Energy =                   4.5087646180712468
    DFT Exchange-Correlation Energy =       0.0000000000000000
    Empirical Dispersion Energy =           0.0000000000000000
    PCM Polarization Energy =               0.0000000000000000
    EFP Energy =                            0.0000000000000000
    Total Energy =                         -8.5836266227927371


  Saving occupied orbitals to File 180.

*** tstop() called on ds1.sherrill.chemistry.gatech.edu at Mon Apr 25 16:48:45 2016
Module time:
	user time   =       0.15 seconds =       0.00 minutes
	system time =       0.00 seconds =       0.00 minutes
	total time  =          0 seconds =       0.00 minutes
Total time:
	user time   =       9.96 seconds =       0.17 minutes
	system time =       0.32 seconds =       0.01 minutes
	total time  =         11 seconds =       0.18 minutes


Properties will be evaluated at   0.000000,   0.000000,   0.000000 Bohr

Properties computed using the SCF density matrix

  Nuclear Dipole Moment: (a.u.)
     X:     0.0000      Y:     0.0000      Z:     0.0000

  Electronic Dipole Moment: (a.u.)
     X:     0.0000      Y:     0.0000      Z:    -0.0000

  Dipole Moment: (a.u.)
     X:     0.0000      Y:     0.0000      Z:    -0.0000     Total:     0.0000

  Dipole Moment: (Debye)
     X:     0.0000      Y:     0.0000      Z:    -0.0000     Total:     0.0000


  //>>>>>>>>>>>>>>>>>>>>>>>>>>>>>>>>>>>//
  //               DFMP2               //
  //<<<<<<<<<<<<<<<<<<<<<<<<<<<<<<<<<<<//


*** tstart() called on ds1.sherrill.chemistry.gatech.edu
*** at Mon Apr 25 16:48:45 2016


*** tstop() called on ds1.sherrill.chemistry.gatech.edu at Mon Apr 25 16:48:45 2016
Module time:
	user time   =       0.05 seconds =       0.00 minutes
	system time =       0.00 seconds =       0.00 minutes
	total time  =          0 seconds =       0.00 minutes
Total time:
	user time   =      10.01 seconds =       0.17 minutes
	system time =       0.32 seconds =       0.01 minutes
	total time  =         11 seconds =       0.18 minutes
	 --------------------------------------------------------
	                          DF-MP2                         
	      2nd-Order Density-Fitted Moller-Plesset Theory     
	              RMP2 Wavefunction,   1 Threads             
	                                                         
	        Rob Parrish, Justin Turney, Andy Simmonett,      
	           Ed Hohenstein, and C. David Sherrill          
	 --------------------------------------------------------

   => Auxiliary Basis Set <=

  Basis Set: 
    Number of shells: 42
    Number of basis function: 108
    Number of Cartesian functions: 117
    Spherical Harmonics?: true
    Max angular momentum: 2

	 --------------------------------------------------------
	                 NBF =    69, NAUX =   108
	 --------------------------------------------------------
	   CLASS    FOCC     OCC    AOCC    AVIR     VIR    FVIR
	   PAIRS       0       3       3      66      66       0
	 --------------------------------------------------------

	-----------------------------------------------------------
	 ==================> DF-MP2 Energies <==================== 
	-----------------------------------------------------------
	 Reference Energy          =      -8.5836266227927371 [Eh]
	 Singles Energy            =      -0.0000000000000000 [Eh]
	 Same-Spin Energy          =      -0.0000071708179656 [Eh]
	 Opposite-Spin Energy      =      -0.1008388464211537 [Eh]
	 Correlation Energy        =      -0.1008460172391194 [Eh]
	 Total Energy              =      -8.6844726400318564 [Eh]
	-----------------------------------------------------------
	 ================> DF-SCS-MP2 Energies <================== 
	-----------------------------------------------------------
	 SCS Same-Spin Scale       =       0.3333333333333333 [-]
	 SCS Opposite-Spin Scale   =       1.2000000000000000 [-]
	 SCS Same-Spin Energy      =      -0.0000023902726552 [Eh]
	 SCS Opposite-Spin Energy  =      -0.1210066157053845 [Eh]
	 SCS Correlation Energy    =      -0.1210090059780397 [Eh]
	 SCS Total Energy          =      -8.7046356287707773 [Eh]
	-----------------------------------------------------------


  //>>>>>>>>>>>>>>>>>>>>>>>>>>>>>>>>>>>//
  //  CBS Results: mp2/aug-cc-pv[d,t]z //
  //<<<<<<<<<<<<<<<<<<<<<<<<<<<<<<<<<<<//


   ==> HF <==

   HI-zeta (3) Total Energy:             -8.58362662


   ==> Helgaker 2-point correlated extrapolation for method: MP2 <==

   LO-zeta (2) Correlation Energy:   -8.64810228442193
   HI-zeta (3) Correlation Energy:   -8.68447264003186
   Beta (coefficient) Value:          0.41347351640761
   Extrapolated Correlation Energy:  -8.69978647397288

  @Extrapolated MP2/(D,T):          -8.69978647397288



   ==> Helgaker 2-point correlated extrapolation for method: HF <==

   LO-zeta (2) Correlation Energy:   -8.56721611406440
   HI-zeta (3) Correlation Energy:   -8.58362662279274
   Beta (coefficient) Value:          0.18656157291157
   Extrapolated Correlation Energy:  -8.59053631067835

  @Extrapolated HF/(D,T):           -8.59053631067835


   ==> Components <==

  ---------------------------------------------------------------------------------------------------------
                          Method / Basis                      Rqd      Energy [Eh]   Variable
  ---------------------------------------------------------------------------------------------------------
                             mp2 / aug-cc-pvdz                  *      -8.64810228   MP2 TOTAL ENERGY
                              hf / aug-cc-pvdz                  *      -8.56721611   HF TOTAL ENERGY
                             mp2 / aug-cc-pvtz                  *      -8.68447264   MP2 TOTAL ENERGY
                              hf / aug-cc-pvtz                  *      -8.58362662   HF TOTAL ENERGY
  ---------------------------------------------------------------------------------------------------------

   ==> Stages <==

  ---------------------------------------------------------------------------------------------------------
      Stage               Method / Basis                       Wt      Energy [Eh]   Scheme
  ---------------------------------------------------------------------------------------------------------
        scf                   hf / aug-cc-pvtz                  1      -8.58362662   cbs_xtpl_highest_1
       corl                  mp2 / aug-cc-pv[dt]z               1      -8.69978647   corl_xtpl_helgaker_2
       corl                   hf / aug-cc-pv[dt]z              -1      -8.59053631   corl_xtpl_helgaker_2
  ---------------------------------------------------------------------------------------------------------

   ==> CBS <==

  ---------------------------------------------------------------------------------------------------------
      Stage               Method / Basis                               Energy [Eh]   Scheme
  ---------------------------------------------------------------------------------------------------------
        scf                   hf / aug-cc-pvtz                         -8.58362662   cbs_xtpl_highest_1
       corl                  mp2 / aug-cc-pv[dt]z                      -0.10925016   corl_xtpl_helgaker_2
      total                  CBS                                       -8.69287679   
  ---------------------------------------------------------------------------------------------------------

   ==> N-Body: Counterpoise Corrected (CP)  energies <==

   n-Body        Total Energy [Eh]          I.E. [kcal/mol]         Delta [kcal/mol]
        1        -8.69285245455347         0.00000000000000         0.00000000000000
        2        -8.69287676358168        -0.01525414613472        -0.01525414613472
        3        -8.69287678608726        -0.01526826860196        -0.00001412246725


   ==> N-Body: Non-Counterpoise Corrected (NoCP)  energies <==

   n-Body        Total Energy [Eh]          I.E. [kcal/mol]         Delta [kcal/mol]
        1        -8.69285092409651         0.00000000000000         0.00000000000000
        2        -8.69287834875908        -0.01720923629432        -0.01720923629432
        3        -8.69287678608726        -0.01622864488332         0.00098059141100


   ==> N-Body: Valiron-Mayer Function Couterpoise (VMFC)  energies <==

   n-Body        Total Energy [Eh]          I.E. [kcal/mol]         Delta [kcal/mol]
        1        -8.69285092409651         0.00000000000000         0.00000000000000
        2        -8.69287691160678        -0.01630740957462        -0.01630740957462
        3        -8.69287693411236        -0.01632153204075        -0.00001412246613

    There are an even number of electrons - assuming singlet.
    Specify the multiplicity in the molecule input block.

	CP-CORRECTED 2-BODY INTERACTION ENERGY............................PASSED
	CP-CORRECTED 3-BODY INTERACTION ENERGY............................PASSED
	NOCP-CORRECTED 2-BODY INTERACTION ENERGY..........................PASSED
	NOCP-CORRECTED 3-BODY INTERACTION ENERGY..........................PASSED
	VMFC-CORRECTED 2-BODY INTERACTION ENERGY..........................PASSED
	VMFC-CORRECTED 3-BODY INTERACTION ENERGY..........................PASSED

*** PSI4 exiting successfully. Buy a developer a beer!
