    -----------------------------------------------------------------------
          PSI4: An Open-Source Ab Initio Electronic Structure Package
                              PSI 4.0.0-beta3+ Driver

               Git: Rev {efp} a6347a1b8d14f81a79fdc79101a13b8e2146ced1

    J. M. Turney, A. C. Simmonett, R. M. Parrish, E. G. Hohenstein,
    F. A. Evangelista, J. T. Fermann, B. J. Mintz, L. A. Burns, J. J. Wilke,
    M. L. Abrams, N. J. Russ, M. L. Leininger, C. L. Janssen, E. T. Seidl,
    W. D. Allen, H. F. Schaefer, R. A. King, E. F. Valeev, C. D. Sherrill,
    and T. D. Crawford, WIREs Comput. Mol. Sci., (2011) (doi: 10.1002/wcms.93)

                         Additional Contributions by
    A. E. DePrince, M. Saitow, U. Bozkaya, A. Yu. Sokolov
    -----------------------------------------------------------------------

    Process ID:  58939
    PSI4DATADIR: /Users/rking/psi4/lib

    Using LocalCommunicator (Number of processes = 1)

    Memory level set to 256.000 MB

  ==> Input File <==

--------------------------------------------------------------------------
molecule efp_spec {
 efp h2o_l
   0.00 -0.70 0.0  # H2O
   1.48  0.35 0.0
  -1.48  0.35 0.0
  --
 efp h2o_l
   4.93  3.49 0.0  # H2O
   6.41  4.54 0.0
   3.44  4.54 0.0
 no_reorient
 no_com
}

set {
#  print 10
  step_type nr
#  hess_update none
  geom_maxiter 100
}

set efp {
  dertype first
}

optimize('efp')

--------------------------------------------------------------------------
in py_psi_efp_init() call prepare_options_for_module efp
DERTYPE NONE
efp constructor calling common_init
Warning: There are no quantum mechanical atoms in this molecule.
Warning: There are no quantum mechanical atoms in this molecule.
Warning: There are no quantum mechanical atoms in this molecule.
Warning: There are no quantum mechanical atoms in this molecule.
gradient() will perform analytic gradient computation.
Executing run_efp_gradient in proc.py...
py_psi_efp_set_options


LIBEFP ver. 0.9.8-beta
Copyright (c) 2012-2013 Ilya Kaliman
Project web site: http://www.libefp.org/


  ==> Calculation Information <==

  Electrostatics damping:       SCREEN
  Dispersion damping:          OVERLAP
  Electrostatics enabled:             1
  Polarization enabled:               1
  Dispersion enabled:                 1
  Exchanged enabled:                  1
  Gradient enabled:                   1


  ==> EFP Gradient <==

     -0.000119      0.000042     -0.000000      0.000000     -0.000000      0.000514
      0.000119     -0.000042      0.000000     -0.000000      0.000000      0.000818

  ## EFP Gradient (Symmetry 0) ##
  Irrep: 1 Size: 2 x 6

                 1            2            3            4            5

    1   -0.0001193    0.0000416   -0.0000000    0.0000000   -0.0000000
    2    0.0001193   -0.0000416    0.0000000   -0.0000000    0.0000000

                 6

    1    0.0005142
    2    0.0008179



  ==> Energetics <==

  Electrostatics Energy =      -0.0001860604930781 [H] *
  Polarization Energy =        -0.0000046473459225 [H] *
  Dispersion Energy =          -0.0000148666277361 [H] *
  Exchange Energy =            -0.0000000038568529 [H] *
  Total Energy =               -0.0002055783235896 [H] *
CURRENT ENERGY:   -0.0002055783

			-----------------------------------------
			 OPTKING 2.0: for geometry optimizations 
			  - R.A. King,  Bethel University        
			-----------------------------------------

	Internal coordinates to be generated automatically.

Number of atoms besides EFP fragments 0
Creating molecule with 0 atoms

Number of atoms besides EFP fragments 0
After molecule constructor: fragments.size()     = 0
After molecule constructor: efp_fragments.size() = 0
Adding EFP fragments to molecule.
	Adding 2 EFP fragments.
	There are 0 presently.
  Irrep: 1 Size: 2 x 6

                 1            2            3            4            5

    1   -0.0001193    0.0000416   -0.0000000    0.0000000   -0.0000000
    2    0.0001193   -0.0000416    0.0000000   -0.0000000    0.0000000

                 6

    1    0.0005142
    2    0.0008179



QM geometry:
  Irrep: 1 Size: 0 x 3

	(empty)

energy   -0.0002055783
Done with read_geom_grad()

just before mol1->set_masses()

done with mol1->update_connectivity_by_distances()

done with fragmentize and connectivity 1
	Previous optimization step data not found.  Starting new optimization.

	---Fragment 1 EFP fragment Coordinates---
	 * Coordinate *           * BOHR/RAD *       * ANG/DEG *
	     COM X                0.0030196205        0.0015979144 
	     COM Y               -1.2037370968       -0.6369902854 
	     COM Z                0.0000000000        0.0000000000 
	     alpha                0.0000000000        0.0000000000 
	     beta                 0.0000000000        0.0000000000 
	     gamma                0.0000000000        0.0000000000 

	---Fragment 2 EFP fragment Coordinates---
	 * Coordinate *           * BOHR/RAD *       * ANG/DEG *
	     COM X                9.3193694556        4.9315982909 
	     COM Y                6.7142154000        3.5530100345 
	     COM Z                0.0000000000        0.0000000000 
	     alpha                0.0000000000        0.0000000000 
	     beta                 0.0000000000        0.0000000000 
	     gamma                0.0000000000        0.0000000000 


STEP_DATA::save_geom_energy(geom_in, energy_in, Ncart)
Ncart = 18
energy_in = -0.000206
   0.00000000  -1.32280829   0.00000000   1.44883023  -0.29492198   0.00000000  -1.39486743  -0.22280641   0.00000000
   9.31634984   6.59514420   0.00000000  10.76518006   7.62303052   0.00000000   7.92148240   7.69514609   0.00000000
	Current energy   :        -0.0002055783

	Generating empirical Hessian (Schlegel '84) for each fragment.

 NR step and forces 

 dq         fq        
    0.01193    0.00012
   -0.00416   -0.00004
    0.00000    0.00000
   -0.00000   -0.00000
    0.00000    0.00000
   -0.01714   -0.00051
   -0.01193   -0.00012
    0.00416    0.00004
   -0.00000   -0.00000
    0.00000    0.00000
   -0.00000   -0.00000
   -0.02726   -0.00082

in molecule_nr_step.cc line 68, Nintco = 12

in molecule_nr_step.cc line 76, Nintco = 12

in molecule_nr_step.cc line 85, Nintco = 12
	Projected energy change by quadratic approximation:        -0.0000171522

EFP_FRAG::displace()
new geometry: 
  0.009894 -1.326894  0.000000
  1.476127 -0.323989 -0.000000
 -1.365917 -0.203149  0.000000

         Phi            T
    -0.00000000     0.01193421
     0.00000000    -0.00415525
    -0.01713897     0.00000000

EFP_FRAG::displace()
new geometry: 
  9.301171  6.599426 -0.000000
 10.777483  7.587436  0.000000
  7.936808  7.737043 -0.000000

         Phi            T
     0.00000000    -0.01193421
    -0.00000000     0.00415525
    -0.02726310    -0.00000000

  ==> Convergence Check <==

  Measures of convergence in internal coordinates in au.
  Criteria marked as inactive (o), active & met (*), and active & unmet ( ).
  --------------------------------------------------------------------------------------------- ~
   Step     Total Energy     Delta E     MAX Force     RMS Force      MAX Disp      RMS Disp    ~
  --------------------------------------------------------------------------------------------- ~
    Convergence Criteria    1.00e-06 *    3.00e-04 *             o    1.20e-03 *             o  ~
  --------------------------------------------------------------------------------------------- ~
      1      -0.00020558   -2.06e-04      8.18e-04      2.84e-04 o    2.73e-02      1.06e-02 o  ~
  ---------------------------------------------------------------------------------------------

	Writing optimization data to binary file.
	Nintco = 12 
	Ncart = 18 
	iteration = 1 
	steps.size() = 1 
	Structure for next step:
There are no QM fragments present.
	New coordinates for EFP fragments:

optking.cc, line 395, just before mol1->write_geom()
Preparing to write geometry
New coordinates for all atoms:
  0.009894 -1.326894  0.000000
  1.476127 -0.323989 -0.000000
 -1.365917 -0.203149  0.000000
  9.301171  6.599426 -0.000000
 10.777483  7.587436  0.000000
  7.936808  7.737043 -0.000000
	New coordinates for EFP fragments:
   0.0098939931   -1.3268943001    0.0000000000
   1.4761274807   -0.3239891876   -0.0000000000
  -1.3659166071   -0.2031485561    0.0000000000
   9.3011709024    6.5994260120   -0.0000000000
  10.7774826232    7.5874356312    0.0000000000
   7.9368075726    7.7370428232   -0.0000000000

optking.cc, line 395, just after mol1->write_geom()
geometry after write:
  Irrep: 1 Size: 0 x 3

	(empty)

			--------------------------
			 OPTKING Finished Execution 
			--------------------------

    Structure for next step:
Warning: There are no quantum mechanical atoms in this molecule.
Warning: There are no quantum mechanical atoms in this molecule.
gradient() will perform analytic gradient computation.
Executing run_efp_gradient in proc.py...
py_psi_efp_set_options


LIBEFP ver. 0.9.8-beta
Copyright (c) 2012-2013 Ilya Kaliman
Project web site: http://www.libefp.org/


  ==> Calculation Information <==

  Electrostatics damping:       SCREEN
  Dispersion damping:          OVERLAP
  Electrostatics enabled:             1
  Polarization enabled:               1
  Dispersion enabled:                 1
  Exchanged enabled:                  1
  Gradient enabled:                   1


  ==> EFP Gradient <==

     -0.000125      0.000034     -0.000000      0.000000     -0.000000      0.000504
      0.000125     -0.000034      0.000000     -0.000000      0.000000      0.000811

  ## EFP Gradient (Symmetry 0) ##
  Irrep: 1 Size: 2 x 6

                 1            2            3            4            5

    1   -0.0001255    0.0000344   -0.0000000    0.0000000   -0.0000000
    2    0.0001255   -0.0000344    0.0000000   -0.0000000    0.0000000

                 6

    1    0.0005036
    2    0.0008109



  ==> Energetics <==

  Electrostatics Energy =      -0.0002199809380238 [H] *
  Polarization Energy =        -0.0000048107440591 [H] *
  Dispersion Energy =          -0.0000149521593578 [H] *
  Exchange Energy =            -0.0000000043379326 [H] *
  Total Energy =               -0.0002397481793733 [H] *
CURRENT ENERGY:   -0.0002397482

			-----------------------------------------
			 OPTKING 2.0: for geometry optimizations 
			  - R.A. King,  Bethel University        
			-----------------------------------------

	Previous internal coordinate definitions found.
After molecule constructor: fragments.size()     = 0
After molecule constructor: efp_fragments.size() = 0
done reading intcos
  Irrep: 1 Size: 2 x 6

                 1            2            3            4            5

    1   -0.0001255    0.0000344   -0.0000000    0.0000000   -0.0000000
    2    0.0001255   -0.0000344    0.0000000   -0.0000000    0.0000000

                 6

    1    0.0005036
    2    0.0008109



QM geometry:
  Irrep: 1 Size: 0 x 3

	(empty)

energy   -0.0002397482
done reading geom and grad
	---Fragment 1 EFP fragment Coordinates---
	 * Coordinate *           * BOHR/RAD *       * ANG/DEG *
	     COM X                0.0149538272        0.0079132252 
	     COM Y               -1.2078923423       -0.6391891468 
	     COM Z                0.0000000000        0.0000000000 
	     alpha               -0.0000000000       -0.0000000000 
	     beta                 0.0000000000        0.0000000000 
	     gamma               -0.0171389651       -0.9819903673 

	---Fragment 2 EFP fragment Coordinates---
	 * Coordinate *           * BOHR/RAD *       * ANG/DEG *
	     COM X                9.3074352488        4.9252829802 
	     COM Y                6.7183706455        3.5552088959 
	     COM Z               -0.0000000000       -0.0000000000 
	     alpha                0.0000000000        0.0000000000 
	     beta                -0.0000000000       -0.0000000000 
	     gamma               -0.0272631026       -1.5620607137 


STEP_DATA::save_geom_energy(geom_in, energy_in, Ncart)
Ncart = 18
energy_in = -0.000240
   0.00989399  -1.32689430   0.00000000   1.47612748  -0.32398919  -0.00000000  -1.36591661  -0.20314856   0.00000000
   9.30117090   6.59942601  -0.00000000  10.77748262   7.58743563   0.00000000   7.93680757   7.73704282  -0.00000000
	Current energy   :        -0.0002397482

	Energy change for the previous step:
		Projected    :        -0.0000171522
		Actual       :        -0.0000341699
	Energy ratio indicates good step: Trust radius increased to 8.000e-01.


Attempting H_update
Nintco is 12
Ncart is 18

	Performing BFGS update
Data for Hessian update:

Current internal values:
   0.01193421  -0.00415525   0.00000000  -0.00000000   0.00000000  -0.01713897  -0.01193421   0.00415525  -0.00000000
   0.00000000  -0.00000000  -0.02726310

Current internal forces:
   0.00012550  -0.00003441   0.00000000  -0.00000000   0.00000000  -0.00050360  -0.00012550   0.00003441  -0.00000000
   0.00000000  -0.00000000  -0.00081089

Current coordinates:
   0.00989399  -1.32689430   0.00000000   1.47612748  -0.32398919  -0.00000000  -1.36591661  -0.20314856   0.00000000
   9.30117090   6.59942601  -0.00000000  10.77748262   7.58743563   0.00000000   7.93680757   7.73704282  -0.00000000
 with previous 1 gradient(s).

Old internal forces:
   0.00011934  -0.00004155   0.00000000  -0.00000000   0.00000000  -0.00051417  -0.00011934   0.00004155  -0.00000000
   0.00000000  -0.00000000  -0.00081789

Old cartesian coords:
   0.00000000  -1.32280829   0.00000000   1.44883023  -0.29492198   0.00000000  -1.39486743  -0.22280641   0.00000000
   9.31634984   6.59514420   0.00000000  10.76518006   7.62303052   0.00000000   7.92148240   7.69514609   0.00000000
old dq to subtract to calculate old q for EFP
   0.01193421  -0.00415525   0.00000000  -0.00000000   0.00000000  -0.01713897  -0.01193421   0.00415525  -0.00000000
   0.00000000  -0.00000000  -0.02726310

Old internals including efp:
   0.00000000   0.00000000   0.00000000   0.00000000   0.00000000   0.00000000   0.00000000   0.00000000   0.00000000
   0.00000000   0.00000000   0.00000000

 NR step and forces 

 dq         fq        
    1.61819    0.00013
   -0.45148   -0.00003
    0.00000    0.00000
   -0.00000   -0.00000
    0.00000    0.00000
   -2.17486   -0.00050
   -1.61819   -0.00013
    0.45148    0.00003
   -0.00000   -0.00000
    0.00000    0.00000
   -0.00000   -0.00000
   -3.49902   -0.00081
	Change in EFP coordinate exceeds step limit of    0.40000.
	Scaling EFP displacements by    0.11432

in molecule_nr_step.cc line 68, Nintco = 12

in molecule_nr_step.cc line 76, Nintco = 12

in molecule_nr_step.cc line 85, Nintco = 12
	Projected energy change by quadratic approximation:        -0.0004709928

EFP_FRAG::displace()
new geometry: 
  0.165755 -1.373602  0.000000
  1.833691 -0.762333 -0.000000
 -0.891230  0.054137  0.000000

         Phi            T
    -0.00000000     0.18498845
     0.00000000    -0.05161237
    -0.24862470     0.00000000

EFP_FRAG::displace()
new geometry: 
  9.070358  6.662867 -0.000000
 10.814880  6.997981  0.000000
  8.256705  8.241990 -0.000000

         Phi            T
     0.00000000    -0.18498845
    -0.00000000     0.05161237
    -0.40000000    -0.00000000

  ==> Convergence Check <==

  Measures of convergence in internal coordinates in au.
  Criteria marked as inactive (o), active & met (*), and active & unmet ( ).
  ---------------------------------------------------------------------------------------------
   Step     Total Energy     Delta E     MAX Force     RMS Force      MAX Disp      RMS Disp   
  ---------------------------------------------------------------------------------------------
    Convergence Criteria    1.00e-06 *    3.00e-04 *             o    1.20e-03 *             o
  ---------------------------------------------------------------------------------------------
      2      -0.00023975   -3.42e-05      8.11e-04      2.81e-04 o    4.00e-01      1.57e-01 o  ~
  ---------------------------------------------------------------------------------------------

	Writing optimization data to binary file.
	Nintco = 12 
	Ncart = 18 
	iteration = 2 
	steps.size() = 2 
	Structure for next step:
There are no QM fragments present.
	New coordinates for EFP fragments:

optking.cc, line 395, just before mol1->write_geom()
Preparing to write geometry
New coordinates for all atoms:
  0.165755 -1.373602  0.000000
  1.833691 -0.762333 -0.000000
 -0.891230  0.054137  0.000000
  9.070358  6.662867 -0.000000
 10.814880  6.997981  0.000000
  8.256705  8.241990 -0.000000
	New coordinates for EFP fragments:
   0.1657550749   -1.3736024887    0.0000000000
   1.8336905104   -0.7623327544   -0.0000000000
  -0.8912303238    0.0541373936    0.0000000000
   9.0703577282    6.6628672034   -0.0000000000
  10.8148799373    6.9979814623    0.0000000000
   8.2567047363    8.2419897805   -0.0000000000

optking.cc, line 395, just after mol1->write_geom()
geometry after write:
  Irrep: 1 Size: 0 x 3

	(empty)

			--------------------------
			 OPTKING Finished Execution 
			--------------------------

    Structure for next step:
Warning: There are no quantum mechanical atoms in this molecule.
Warning: There are no quantum mechanical atoms in this molecule.
gradient() will perform analytic gradient computation.
Executing run_efp_gradient in proc.py...
py_psi_efp_set_options


LIBEFP ver. 0.9.8-beta
Copyright (c) 2012-2013 Ilya Kaliman
Project web site: http://www.libefp.org/


  ==> Calculation Information <==

  Electrostatics damping:       SCREEN
  Dispersion damping:          OVERLAP
  Electrostatics enabled:             1
  Polarization enabled:               1
  Dispersion enabled:                 1
  Exchanged enabled:                  1
  Gradient enabled:                   1


  ==> EFP Gradient <==

     -0.000176     -0.000074      0.000000      0.000000     -0.000000      0.000230
      0.000176      0.000074     -0.000000     -0.000000      0.000000      0.000521

  ## EFP Gradient (Symmetry 0) ##
  Irrep: 1 Size: 2 x 6

                 1            2            3            4            5

    1   -0.0001756   -0.0000738    0.0000000    0.0000000   -0.0000000
    2    0.0001756    0.0000738   -0.0000000   -0.0000000    0.0000000

                 6

    1    0.0002304
    2    0.0005209



  ==> Energetics <==

  Electrostatics Energy =      -0.0006438668587614 [H] *
  Polarization Energy =        -0.0000070259731159 [H] *
  Dispersion Energy =          -0.0000164907734003 [H] *
  Exchange Energy =            -0.0000000119210615 [H] *
  Total Energy =               -0.0006673955263391 [H] *
CURRENT ENERGY:   -0.0006673955

			-----------------------------------------
			 OPTKING 2.0: for geometry optimizations 
			  - R.A. King,  Bethel University        
			-----------------------------------------

	Previous internal coordinate definitions found.
After molecule constructor: fragments.size()     = 0
After molecule constructor: efp_fragments.size() = 0
done reading intcos
  Irrep: 1 Size: 2 x 6

                 1            2            3            4            5

    1   -0.0001756   -0.0000738    0.0000000    0.0000000   -0.0000000
    2    0.0001756    0.0000738   -0.0000000   -0.0000000    0.0000000

                 6

    1    0.0002304
    2    0.0005209



QM geometry:
  Irrep: 1 Size: 0 x 3

	(empty)

energy   -0.0006673955
done reading geom and grad
	---Fragment 1 EFP fragment Coordinates---
	 * Coordinate *           * BOHR/RAD *       * ANG/DEG *
	     COM X                0.1999422807        0.1058049061 
	     COM Y               -1.2595047112       -0.6665012382 
	     COM Z                0.0000000000        0.0000000000 
	     alpha               -0.0000000000       -0.0000000001 
	     beta                 0.0000000000        0.0000000002 
	     gamma               -0.2657636687      -15.2271365649 

	---Fragment 2 EFP fragment Coordinates---
	 * Coordinate *           * BOHR/RAD *       * ANG/DEG *
	     COM X                9.1224467953        4.8273912993 
	     COM Y                6.7699830143        3.5825209873 
	     COM Z               -0.0000000000       -0.0000000000 
	     alpha                0.0000000000        0.0000000001 
	     beta                -0.0000000000       -0.0000000003 
	     gamma               -0.4272631026      -24.4803725189 


STEP_DATA::save_geom_energy(geom_in, energy_in, Ncart)
Ncart = 18
energy_in = -0.000667
   0.16575507  -1.37360249   0.00000000   1.83369051  -0.76233275  -0.00000000  -0.89123032   0.05413739   0.00000000
   9.07035773   6.66286720  -0.00000000  10.81487994   6.99798146   0.00000000   8.25670474   8.24198978  -0.00000000
	Current energy   :        -0.0006673955

	Energy change for the previous step:
		Projected    :        -0.0004709928
		Actual       :        -0.0004276473
	Energy ratio indicates good step: Trust radius increased to 1.000e+00.


Attempting H_update
Nintco is 12
Ncart is 18

	Performing BFGS update
Data for Hessian update:

Current internal values:
   0.19692266  -0.05576761   0.00000000  -0.00000000   0.00000000  -0.26576367  -0.19692266   0.05576761  -0.00000000
   0.00000000  -0.00000000  -0.42726310

Current internal forces:
   0.00017561   0.00007383  -0.00000000  -0.00000000   0.00000000  -0.00023038  -0.00017561  -0.00007383   0.00000000
   0.00000000  -0.00000000  -0.00052089

Current coordinates:
   0.16575507  -1.37360249   0.00000000   1.83369051  -0.76233275  -0.00000000  -0.89123032   0.05413739   0.00000000
   9.07035773   6.66286720  -0.00000000  10.81487994   6.99798146   0.00000000   8.25670474   8.24198978  -0.00000000
 with previous 1 gradient(s).

Old internal forces:
   0.00012550  -0.00003441   0.00000000  -0.00000000   0.00000000  -0.00050360  -0.00012550   0.00003441  -0.00000000
   0.00000000  -0.00000000  -0.00081089

Old cartesian coords:
   0.00989399  -1.32689430   0.00000000   1.47612748  -0.32398919  -0.00000000  -1.36591661  -0.20314856   0.00000000
   9.30117090   6.59942601  -0.00000000  10.77748262   7.58743563   0.00000000   7.93680757   7.73704282  -0.00000000
old dq to subtract to calculate old q for EFP
   0.18498845  -0.05161237   0.00000000  -0.00000000   0.00000000  -0.24862470  -0.18498845   0.05161237  -0.00000000
   0.00000000  -0.00000000  -0.40000000

Old internals including efp:
   0.01193421  -0.00415525   0.00000000  -0.00000000   0.00000000  -0.01713897  -0.01193421   0.00415525  -0.00000000
   0.00000000  -0.00000000  -0.02726310

 NR step and forces 

 dq         fq        
    0.37409    0.00018
   -0.07207    0.00007
    0.00000   -0.00000
   -0.00000   -0.00000
    0.00000    0.00000
   -0.46099   -0.00023
   -0.37409   -0.00018
    0.07207   -0.00007
   -0.00000    0.00000
    0.00000    0.00000
   -0.00000   -0.00000
   -0.75492   -0.00052
	Change in EFP coordinate exceeds step limit of    0.40000.
	Scaling EFP displacements by    0.52986

in molecule_nr_step.cc line 68, Nintco = 12

in molecule_nr_step.cc line 76, Nintco = 12

in molecule_nr_step.cc line 85, Nintco = 12
	Projected energy change by quadratic approximation:        -0.0002415500

EFP_FRAG::displace()
new geometry: 
  0.337391 -1.400137  0.000000
  2.103645 -1.210388 -0.000000
 -0.342933  0.240844  0.000000

         Phi            T
    -0.00000000     0.19821433
     0.00000000    -0.03818964
    -0.24426271     0.00000000

EFP_FRAG::displace()
new geometry: 
  8.834542  6.729797 -0.000000
 10.571853  6.359109  0.000000
  8.700058  8.501117 -0.000000

         Phi            T
     0.00000000    -0.19821433
    -0.00000000     0.03818964
    -0.40000000    -0.00000000

  ==> Convergence Check <==

  Measures of convergence in internal coordinates in au.
  Criteria marked as inactive (o), active & met (*), and active & unmet ( ).
  ---------------------------------------------------------------------------------------------
   Step     Total Energy     Delta E     MAX Force     RMS Force      MAX Disp      RMS Disp   
  ---------------------------------------------------------------------------------------------
    Convergence Criteria    1.00e-06 *    3.00e-04 *             o    1.20e-03 *             o
  ---------------------------------------------------------------------------------------------
      3      -0.00066740   -4.28e-04      5.21e-04      1.82e-04 o    4.00e-01      1.58e-01 o  ~
  ---------------------------------------------------------------------------------------------

	Writing optimization data to binary file.
	Nintco = 12 
	Ncart = 18 
	iteration = 3 
	steps.size() = 3 
	Structure for next step:
There are no QM fragments present.
	New coordinates for EFP fragments:

optking.cc, line 395, just before mol1->write_geom()
Preparing to write geometry
New coordinates for all atoms:
  0.337391 -1.400137  0.000000
  2.103645 -1.210388 -0.000000
 -0.342933  0.240844  0.000000
  8.834542  6.729797 -0.000000
 10.571853  6.359109  0.000000
  8.700058  8.501117 -0.000000
	New coordinates for EFP fragments:
   0.3373907060   -1.4001373713    0.0000000000
   2.1036450469   -1.2103877790   -0.0000000000
  -0.3429330097    0.2408437214    0.0000000000
   8.8345423926    6.7297968976   -0.0000000000
  10.5718533918    6.3591086232    0.0000000000
   8.7000576554    8.5011165075   -0.0000000000

optking.cc, line 395, just after mol1->write_geom()
geometry after write:
  Irrep: 1 Size: 0 x 3

	(empty)

			--------------------------
			 OPTKING Finished Execution 
			--------------------------

    Structure for next step:
Warning: There are no quantum mechanical atoms in this molecule.
Warning: There are no quantum mechanical atoms in this molecule.
gradient() will perform analytic gradient computation.
Executing run_efp_gradient in proc.py...
py_psi_efp_set_options


LIBEFP ver. 0.9.8-beta
Copyright (c) 2012-2013 Ilya Kaliman
Project web site: http://www.libefp.org/


  ==> Calculation Information <==

  Electrostatics damping:       SCREEN
  Dispersion damping:          OVERLAP
  Electrostatics enabled:             1
  Polarization enabled:               1
  Dispersion enabled:                 1
  Exchanged enabled:                  1
  Gradient enabled:                   1


  ==> EFP Gradient <==

     -0.000159     -0.000151      0.000000      0.000000     -0.000000     -0.000012
      0.000159      0.000151     -0.000000     -0.000000      0.000000      0.000014

  ## EFP Gradient (Symmetry 0) ##
  Irrep: 1 Size: 2 x 6

                 1            2            3            4            5

    1   -0.0001587   -0.0001507    0.0000000    0.0000000   -0.0000000
    2    0.0001587    0.0001507   -0.0000000   -0.0000000    0.0000000

                 6

    1   -0.0000123
    2    0.0000138



  ==> Energetics <==

  Electrostatics Energy =      -0.0008345254414088 [H] *
  Polarization Energy =        -0.0000077118126374 [H] *
  Dispersion Energy =          -0.0000185485230218 [H] *
  Exchange Energy =            -0.0000000178315568 [H] *
  Total Energy =               -0.0008608036086247 [H] *
CURRENT ENERGY:   -0.0008608036

			-----------------------------------------
			 OPTKING 2.0: for geometry optimizations 
			  - R.A. King,  Bethel University        
			-----------------------------------------

	Previous internal coordinate definitions found.
After molecule constructor: fragments.size()     = 0
After molecule constructor: efp_fragments.size() = 0
done reading intcos
  Irrep: 1 Size: 2 x 6

                 1            2            3            4            5

    1   -0.0001587   -0.0001507    0.0000000    0.0000000   -0.0000000
    2    0.0001587    0.0001507   -0.0000000   -0.0000000    0.0000000

                 6

    1   -0.0000123
    2    0.0000138



QM geometry:
  Irrep: 1 Size: 0 x 3

	(empty)

energy   -0.0008608036
done reading geom and grad
	---Fragment 1 EFP fragment Coordinates---
	 * Coordinate *           * BOHR/RAD *       * ANG/DEG *
	     COM X                0.3981566140        0.2106954217 
	     COM Y               -1.2976943516       -0.6867103270 
	     COM Z                0.0000000000        0.0000000000 
	     alpha               -0.0000000000       -0.0000000001 
	     beta                 0.0000000000        0.0000000005 
	     gamma               -0.5100263767      -29.2223588268 

	---Fragment 2 EFP fragment Coordinates---
	 * Coordinate *           * BOHR/RAD *       * ANG/DEG *
	     COM X                8.9242324621        4.7225007837 
	     COM Y                6.8081726547        3.6027300762 
	     COM Z               -0.0000000000       -0.0000000000 
	     alpha                0.0000000000        0.0000000002 
	     beta                -0.0000000000       -0.0000000005 
	     gamma               -0.8272631026      -47.3986843241 


STEP_DATA::save_geom_energy(geom_in, energy_in, Ncart)
Ncart = 18
energy_in = -0.000861
   0.33739071  -1.40013737   0.00000000   2.10364505  -1.21038778  -0.00000000  -0.34293301   0.24084372   0.00000000
   8.83454239   6.72979690  -0.00000000  10.57185339   6.35910862   0.00000000   8.70005766   8.50111651  -0.00000000
	Current energy   :        -0.0008608036

	Energy change for the previous step:
		Projected    :        -0.0002415500
		Actual       :        -0.0001934081

Attempting H_update
Nintco is 12
Ncart is 18

	Performing BFGS update
Data for Hessian update:

Current internal values:
   0.39513699  -0.09395725   0.00000000  -0.00000000   0.00000000  -0.51002638  -0.39513699   0.09395725  -0.00000000
   0.00000000  -0.00000000  -0.82726310

Current internal forces:
   0.00015869   0.00015069  -0.00000000  -0.00000000   0.00000000   0.00001227  -0.00015869  -0.00015069   0.00000000
   0.00000000  -0.00000000  -0.00001375

Current coordinates:
   0.33739071  -1.40013737   0.00000000   2.10364505  -1.21038778  -0.00000000  -0.34293301   0.24084372   0.00000000
   8.83454239   6.72979690  -0.00000000  10.57185339   6.35910862   0.00000000   8.70005766   8.50111651  -0.00000000
 with previous 1 gradient(s).

Old internal forces:
   0.00017561   0.00007383  -0.00000000  -0.00000000   0.00000000  -0.00023038  -0.00017561  -0.00007383   0.00000000
   0.00000000  -0.00000000  -0.00052089

Old cartesian coords:
   0.16575507  -1.37360249   0.00000000   1.83369051  -0.76233275  -0.00000000  -0.89123032   0.05413739   0.00000000
   9.07035773   6.66286720  -0.00000000  10.81487994   6.99798146   0.00000000   8.25670474   8.24198978  -0.00000000
old dq to subtract to calculate old q for EFP
   0.19821433  -0.03818964   0.00000000  -0.00000000   0.00000000  -0.24426271  -0.19821433   0.03818964  -0.00000000
   0.00000000  -0.00000000  -0.40000000

Old internals including efp:
   0.19692266  -0.05576761   0.00000000  -0.00000000   0.00000000  -0.26576367  -0.19692266   0.05576761  -0.00000000
   0.00000000  -0.00000000  -0.42726310

 NR step and forces 

 dq         fq        
    0.05580    0.00016
    0.00731    0.00015
    0.00000   -0.00000
   -0.00000   -0.00000
    0.00000    0.00000
   -0.04962    0.00001
   -0.05580   -0.00016
   -0.00731   -0.00015
   -0.00000    0.00000
    0.00000    0.00000
   -0.00000   -0.00000
   -0.08104   -0.00001

in molecule_nr_step.cc line 68, Nintco = 12

in molecule_nr_step.cc line 76, Nintco = 12

in molecule_nr_step.cc line 85, Nintco = 12
	Projected energy change by quadratic approximation:        -0.0000102084

EFP_FRAG::displace()
new geometry: 
  0.388180 -1.389688  0.000000
  2.161672 -1.287783 -0.000000
 -0.209910  0.283018  0.000000

         Phi            T
    -0.00000000     0.05579590
     0.00000000     0.00730871
    -0.04962285     0.00000000

EFP_FRAG::displace()
new geometry: 
  8.772696  6.730006 -0.000000
 10.474299  6.219899  0.000000
  8.782041  8.506399 -0.000000

         Phi            T
     0.00000000    -0.05579590
    -0.00000000    -0.00730871
    -0.08103839    -0.00000000

  ==> Convergence Check <==

  Measures of convergence in internal coordinates in au.
  Criteria marked as inactive (o), active & met (*), and active & unmet ( ).
  ---------------------------------------------------------------------------------------------
   Step     Total Energy     Delta E     MAX Force     RMS Force      MAX Disp      RMS Disp   
  ---------------------------------------------------------------------------------------------
    Convergence Criteria    1.00e-06 *    3.00e-04 *             o    1.20e-03 *             o
  ---------------------------------------------------------------------------------------------
      4      -0.00086080   -1.93e-04      1.59e-04 *    8.95e-05 o    8.10e-02      3.58e-02 o  ~
  ---------------------------------------------------------------------------------------------

	Writing optimization data to binary file.
	Nintco = 12 
	Ncart = 18 
	iteration = 4 
	steps.size() = 4 
	Structure for next step:
There are no QM fragments present.
	New coordinates for EFP fragments:

optking.cc, line 395, just before mol1->write_geom()
Preparing to write geometry
New coordinates for all atoms:
  0.388180 -1.389688  0.000000
  2.161672 -1.287783 -0.000000
 -0.209910  0.283018  0.000000
  8.772696  6.730006 -0.000000
 10.474299  6.219899  0.000000
  8.782041  8.506399 -0.000000
	New coordinates for EFP fragments:
   0.3881799756   -1.3896884156    0.0000000000
   2.1616721781   -1.2877830071   -0.0000000000
  -0.2099095434    0.2830184422    0.0000000000
   8.7726963453    6.7300057861   -0.0000000000
  10.4742987013    6.2198992023    0.0000000000
   8.7820407887    8.5063987567   -0.0000000000

optking.cc, line 395, just after mol1->write_geom()
geometry after write:
  Irrep: 1 Size: 0 x 3

	(empty)

			--------------------------
			 OPTKING Finished Execution 
			--------------------------

    Structure for next step:
Warning: There are no quantum mechanical atoms in this molecule.
Warning: There are no quantum mechanical atoms in this molecule.
gradient() will perform analytic gradient computation.
Executing run_efp_gradient in proc.py...
py_psi_efp_set_options


LIBEFP ver. 0.9.8-beta
Copyright (c) 2012-2013 Ilya Kaliman
Project web site: http://www.libefp.org/


  ==> Calculation Information <==

  Electrostatics damping:       SCREEN
  Dispersion damping:          OVERLAP
  Electrostatics enabled:             1
  Polarization enabled:               1
  Dispersion enabled:                 1
  Exchanged enabled:                  1
  Gradient enabled:                   1


  ==> EFP Gradient <==

     -0.000152     -0.000162      0.000000      0.000000     -0.000000     -0.000040
      0.000152      0.000162     -0.000000     -0.000000      0.000000     -0.000100

  ## EFP Gradient (Symmetry 0) ##
  Irrep: 1 Size: 2 x 6

                 1            2            3            4            5

    1   -0.0001516   -0.0001625    0.0000000    0.0000000   -0.0000000
    2    0.0001516    0.0001625   -0.0000000   -0.0000000    0.0000000

                 6

    1   -0.0000399
    2   -0.0001002



  ==> Energetics <==

  Electrostatics Energy =      -0.0008483005013289 [H] *
  Polarization Energy =        -0.0000078616174145 [H] *
  Dispersion Energy =          -0.0000194324022878 [H] *
  Exchange Energy =            -0.0000000199492061 [H] *
  Total Energy =               -0.0008756144702372 [H] *
CURRENT ENERGY:   -0.0008756145

			-----------------------------------------
			 OPTKING 2.0: for geometry optimizations 
			  - R.A. King,  Bethel University        
			-----------------------------------------

	Previous internal coordinate definitions found.
After molecule constructor: fragments.size()     = 0
After molecule constructor: efp_fragments.size() = 0
done reading intcos
  Irrep: 1 Size: 2 x 6

                 1            2            3            4            5

    1   -0.0001516   -0.0001625    0.0000000    0.0000000   -0.0000000
    2    0.0001516    0.0001625   -0.0000000   -0.0000000    0.0000000

                 6

    1   -0.0000399
    2   -0.0001002



QM geometry:
  Irrep: 1 Size: 0 x 3

	(empty)

energy   -0.0008756145
done reading geom and grad
	---Fragment 1 EFP fragment Coordinates---
	 * Coordinate *           * BOHR/RAD *       * ANG/DEG *
	     COM X                0.4539525118        0.2402213414 
	     COM Y               -1.2903856394       -0.6828427228 
	     COM Z                0.0000000000        0.0000000000 
	     alpha               -0.0000000000       -0.0000000002 
	     beta                 0.0000000000        0.0000000006 
	     gamma               -0.5596492275      -32.0655387425 

	---Fragment 2 EFP fragment Coordinates---
	 * Coordinate *           * BOHR/RAD *       * ANG/DEG *
	     COM X                8.8684365643        4.6929748640 
	     COM Y                6.8008639425        3.5988624719 
	     COM Z               -0.0000000000       -0.0000000000 
	     alpha                0.0000000000        0.0000000002 
	     beta                -0.0000000000       -0.0000000006 
	     gamma               -0.9083014931      -52.0418420818 


STEP_DATA::save_geom_energy(geom_in, energy_in, Ncart)
Ncart = 18
energy_in = -0.000876
   0.38817998  -1.38968842   0.00000000   2.16167218  -1.28778301  -0.00000000  -0.20990954   0.28301844   0.00000000
   8.77269635   6.73000579  -0.00000000  10.47429870   6.21989920   0.00000000   8.78204079   8.50639876  -0.00000000
	Current energy   :        -0.0008756145

	Energy change for the previous step:
		Projected    :        -0.0000102084
		Actual       :        -0.0000148109

Attempting H_update
Nintco is 12
Ncart is 18

	Performing BFGS update
Data for Hessian update:

Current internal values:
   0.45093289  -0.08664854   0.00000000  -0.00000000   0.00000000  -0.55964923  -0.45093289   0.08664854  -0.00000000
   0.00000000  -0.00000000  -0.90830149

Current internal forces:
   0.00015163   0.00016246  -0.00000000  -0.00000000   0.00000000   0.00003994  -0.00015163  -0.00016246   0.00000000
   0.00000000  -0.00000000   0.00010023

Current coordinates:
   0.38817998  -1.38968842   0.00000000   2.16167218  -1.28778301  -0.00000000  -0.20990954   0.28301844   0.00000000
   8.77269635   6.73000579  -0.00000000  10.47429870   6.21989920   0.00000000   8.78204079   8.50639876  -0.00000000
 with previous 1 gradient(s).

Old internal forces:
   0.00015869   0.00015069  -0.00000000  -0.00000000   0.00000000   0.00001227  -0.00015869  -0.00015069   0.00000000
   0.00000000  -0.00000000  -0.00001375

Old cartesian coords:
   0.33739071  -1.40013737   0.00000000   2.10364505  -1.21038778  -0.00000000  -0.34293301   0.24084372   0.00000000
   8.83454239   6.72979690  -0.00000000  10.57185339   6.35910862   0.00000000   8.70005766   8.50111651  -0.00000000
old dq to subtract to calculate old q for EFP
   0.05579590   0.00730871   0.00000000  -0.00000000   0.00000000  -0.04962285  -0.05579590  -0.00730871  -0.00000000
   0.00000000  -0.00000000  -0.08103839

Old internals including efp:
   0.39513699  -0.09395725   0.00000000  -0.00000000   0.00000000  -0.51002638  -0.39513699   0.09395725  -0.00000000
   0.00000000  -0.00000000  -0.82726310

 NR step and forces 

 dq         fq        
    0.07509    0.00015
    0.03310    0.00016
   -0.00000   -0.00000
   -0.00000   -0.00000
    0.00000    0.00000
   -0.04335    0.00004
   -0.07509   -0.00015
   -0.03310   -0.00016
    0.00000    0.00000
    0.00000    0.00000
   -0.00000   -0.00000
   -0.06763    0.00010

in molecule_nr_step.cc line 68, Nintco = 12

in molecule_nr_step.cc line 76, Nintco = 12

in molecule_nr_step.cc line 85, Nintco = 12
	Projected energy change by quadratic approximation:        -0.0000125075

EFP_FRAG::displace()
new geometry: 
  0.459029 -1.353647  0.000000
  2.235271 -1.328703 -0.000000
 -0.066002  0.343410  0.000000

         Phi            T
    -0.00000000     0.07509068
     0.00000000     0.03309756
    -0.04335498    -0.00000000

EFP_FRAG::displace()
new geometry: 
  8.693036  6.703541 -0.000000
 10.356274  6.079603  0.000000
  8.822411  8.475241 -0.000000

         Phi            T
     0.00000000    -0.07509068
    -0.00000000    -0.03309756
    -0.06763344     0.00000000

  ==> Convergence Check <==

  Measures of convergence in internal coordinates in au.
  Criteria marked as inactive (o), active & met (*), and active & unmet ( ).
  ---------------------------------------------------------------------------------------------
   Step     Total Energy     Delta E     MAX Force     RMS Force      MAX Disp      RMS Disp   
  ---------------------------------------------------------------------------------------------
    Convergence Criteria    1.00e-06 *    3.00e-04 *             o    1.20e-03 *             o
  ---------------------------------------------------------------------------------------------
      5      -0.00087561   -1.48e-05      1.62e-04 *    9.59e-05 o    7.51e-02      4.07e-02 o  ~
  ---------------------------------------------------------------------------------------------

	Writing optimization data to binary file.
	Nintco = 12 
	Ncart = 18 
	iteration = 5 
	steps.size() = 5 
	Structure for next step:
There are no QM fragments present.
	New coordinates for EFP fragments:

optking.cc, line 395, just before mol1->write_geom()
Preparing to write geometry
New coordinates for all atoms:
  0.459029 -1.353647  0.000000
  2.235271 -1.328703 -0.000000
 -0.066002  0.343410  0.000000
  8.693036  6.703541 -0.000000
 10.356274  6.079603  0.000000
  8.822411  8.475241 -0.000000
	New coordinates for EFP fragments:
   0.4590285409   -1.3536468719    0.0000000000
   2.2352709515   -1.3287028586   -0.0000000000
  -0.0660015067    0.3434102143    0.0000000000
   8.6930358235    6.7035405348   -0.0000000000
  10.3562738919    6.0796026914    0.0000000000
   8.8224108947    8.4752406775   -0.0000000000

optking.cc, line 395, just after mol1->write_geom()
geometry after write:
  Irrep: 1 Size: 0 x 3

	(empty)

			--------------------------
			 OPTKING Finished Execution 
			--------------------------

    Structure for next step:
Warning: There are no quantum mechanical atoms in this molecule.
Warning: There are no quantum mechanical atoms in this molecule.
gradient() will perform analytic gradient computation.
Executing run_efp_gradient in proc.py...
py_psi_efp_set_options


LIBEFP ver. 0.9.8-beta
Copyright (c) 2012-2013 Ilya Kaliman
Project web site: http://www.libefp.org/


  ==> Calculation Information <==

  Electrostatics damping:       SCREEN
  Dispersion damping:          OVERLAP
  Electrostatics enabled:             1
  Polarization enabled:               1
  Dispersion enabled:                 1
  Exchanged enabled:                  1
  Gradient enabled:                   1


  ==> EFP Gradient <==

     -0.000148     -0.000176      0.000000      0.000000     -0.000000     -0.000059
      0.000148      0.000176     -0.000000     -0.000000      0.000000     -0.000203

  ## EFP Gradient (Symmetry 0) ##
  Irrep: 1 Size: 2 x 6

                 1            2            3            4            5

    1   -0.0001482   -0.0001756    0.0000000    0.0000000   -0.0000000
    2    0.0001482    0.0001756   -0.0000000   -0.0000000    0.0000000

                 6

    1   -0.0000594
    2   -0.0002028



  ==> Energetics <==

  Electrostatics Energy =      -0.0008675591091471 [H] *
  Polarization Energy =        -0.0000083008664980 [H] *
  Dispersion Energy =          -0.0000210605618013 [H] *
  Exchange Energy =            -0.0000000246274257 [H] *
  Total Energy =               -0.0008969451648721 [H] *
CURRENT ENERGY:   -0.0008969452

			-----------------------------------------
			 OPTKING 2.0: for geometry optimizations 
			  - R.A. King,  Bethel University        
			-----------------------------------------

	Previous internal coordinate definitions found.
After molecule constructor: fragments.size()     = 0
After molecule constructor: efp_fragments.size() = 0
done reading intcos
  Irrep: 1 Size: 2 x 6

                 1            2            3            4            5

    1   -0.0001482   -0.0001756    0.0000000    0.0000000   -0.0000000
    2    0.0001482    0.0001756   -0.0000000   -0.0000000    0.0000000

                 6

    1   -0.0000594
    2   -0.0002028



QM geometry:
  Irrep: 1 Size: 0 x 3

	(empty)

energy   -0.0008969452
done reading geom and grad
	---Fragment 1 EFP fragment Coordinates---
	 * Coordinate *           * BOHR/RAD *       * ANG/DEG *
	     COM X                0.5290431934        0.2799576217 
	     COM Y               -1.2572880825       -0.6653282487 
	     COM Z                0.0000000000        0.0000000000 
	     alpha               -0.0000000000       -0.0000000002 
	     beta                 0.0000000000        0.0000000007 
	     gamma               -0.6030042092      -34.5495962177 

	---Fragment 2 EFP fragment Coordinates---
	 * Coordinate *           * BOHR/RAD *       * ANG/DEG *
	     COM X                8.7933458826        4.6532385837 
	     COM Y                6.7677663856        3.5813479978 
	     COM Z               -0.0000000000       -0.0000000000 
	     alpha                0.0000000000        0.0000000003 
	     beta                -0.0000000000       -0.0000000007 
	     gamma               -0.9759349322      -55.9169526972 


STEP_DATA::save_geom_energy(geom_in, energy_in, Ncart)
Ncart = 18
energy_in = -0.000897
   0.45902854  -1.35364687   0.00000000   2.23527095  -1.32870286  -0.00000000  -0.06600151   0.34341021   0.00000000
   8.69303582   6.70354053  -0.00000000  10.35627389   6.07960269   0.00000000   8.82241089   8.47524068  -0.00000000
	Current energy   :        -0.0008969452

	Energy change for the previous step:
		Projected    :        -0.0000125075
		Actual       :        -0.0000213307

Attempting H_update
Nintco is 12
Ncart is 18

	Performing BFGS update
Data for Hessian update:

Current internal values:
   0.52602357  -0.05355099   0.00000000  -0.00000000   0.00000000  -0.60300421  -0.52602357   0.05355099  -0.00000000
   0.00000000  -0.00000000  -0.97593493

Current internal forces:
   0.00014817   0.00017561  -0.00000000  -0.00000000   0.00000000   0.00005941  -0.00014817  -0.00017561   0.00000000
   0.00000000  -0.00000000   0.00020280

Current coordinates:
   0.45902854  -1.35364687   0.00000000   2.23527095  -1.32870286  -0.00000000  -0.06600151   0.34341021   0.00000000
   8.69303582   6.70354053  -0.00000000  10.35627389   6.07960269   0.00000000   8.82241089   8.47524068  -0.00000000
 with previous 1 gradient(s).

Old internal forces:
   0.00015163   0.00016246  -0.00000000  -0.00000000   0.00000000   0.00003994  -0.00015163  -0.00016246   0.00000000
   0.00000000  -0.00000000   0.00010023

Old cartesian coords:
   0.38817998  -1.38968842   0.00000000   2.16167218  -1.28778301  -0.00000000  -0.20990954   0.28301844   0.00000000
   8.77269635   6.73000579  -0.00000000  10.47429870   6.21989920   0.00000000   8.78204079   8.50639876  -0.00000000
old dq to subtract to calculate old q for EFP
   0.07509068   0.03309756  -0.00000000  -0.00000000   0.00000000  -0.04335498  -0.07509068  -0.03309756   0.00000000
   0.00000000  -0.00000000  -0.06763344

Old internals including efp:
   0.45093289  -0.08664854   0.00000000  -0.00000000   0.00000000  -0.55964923  -0.45093289   0.08664854  -0.00000000
   0.00000000  -0.00000000  -0.90830149

 NR step and forces 

 dq         fq        
    0.29326    0.00015
    0.17924    0.00018
   -0.00000   -0.00000
   -0.00000   -0.00000
    0.00000    0.00000
   -0.11962    0.00006
   -0.29326   -0.00015
   -0.17924   -0.00018
    0.00000    0.00000
    0.00000    0.00000
   -0.00000   -0.00000
   -0.17493    0.00020

in molecule_nr_step.cc line 68, Nintco = 12

in molecule_nr_step.cc line 76, Nintco = 12

in molecule_nr_step.cc line 85, Nintco = 12
	Projected energy change by quadratic approximation:        -0.0000536362

EFP_FRAG::displace()
new geometry: 
  0.741287 -1.165365  0.000000
  2.507813 -1.352569 -0.000000
  0.422529  0.582220 -0.000000

         Phi            T
    -0.00000000     0.29325690
     0.00000000     0.17923849
    -0.11962135    -0.00000000

EFP_FRAG::displace()
new geometry: 
  8.390132  6.542741 -0.000000
  9.919393  5.638849  0.000000
  8.825886  8.264884  0.000000

         Phi            T
     0.00000000    -0.29325690
    -0.00000000    -0.17923849
    -0.17493490     0.00000000

  ==> Convergence Check <==

  Measures of convergence in internal coordinates in au.
  Criteria marked as inactive (o), active & met (*), and active & unmet ( ).
  ---------------------------------------------------------------------------------------------
   Step     Total Energy     Delta E     MAX Force     RMS Force      MAX Disp      RMS Disp   
  ---------------------------------------------------------------------------------------------
    Convergence Criteria    1.00e-06 *    3.00e-04 *             o    1.20e-03 *             o
  ---------------------------------------------------------------------------------------------
      6      -0.00089695   -2.13e-05      2.03e-04 *    1.12e-04 o    2.93e-01      1.53e-01 o  ~
  ---------------------------------------------------------------------------------------------

	Writing optimization data to binary file.
	Nintco = 12 
	Ncart = 18 
	iteration = 6 
	steps.size() = 6 
	Structure for next step:
There are no QM fragments present.
	New coordinates for EFP fragments:

optking.cc, line 395, just before mol1->write_geom()
Preparing to write geometry
New coordinates for all atoms:
  0.741287 -1.165365  0.000000
  2.507813 -1.352569 -0.000000
  0.422529  0.582220 -0.000000
  8.390132  6.542741 -0.000000
  9.919393  5.638849  0.000000
  8.825886  8.264884  0.000000
	New coordinates for EFP fragments:
   0.7412866761   -1.1653645071    0.0000000000
   2.5078125945   -1.3525688993   -0.0000000000
   0.4225290206    0.5822203584   -0.0000000000
   8.3901317407    6.5427406377   -0.0000000000
   9.9193926022    5.6388487623    0.0000000000
   8.8258861004    8.2648839078    0.0000000000

optking.cc, line 395, just after mol1->write_geom()
geometry after write:
  Irrep: 1 Size: 0 x 3

	(empty)

			--------------------------
			 OPTKING Finished Execution 
			--------------------------

    Structure for next step:
Warning: There are no quantum mechanical atoms in this molecule.
Warning: There are no quantum mechanical atoms in this molecule.
gradient() will perform analytic gradient computation.
Executing run_efp_gradient in proc.py...
py_psi_efp_set_options


LIBEFP ver. 0.9.8-beta
Copyright (c) 2012-2013 Ilya Kaliman
Project web site: http://www.libefp.org/


  ==> Calculation Information <==

  Electrostatics damping:       SCREEN
  Dispersion damping:          OVERLAP
  Electrostatics enabled:             1
  Polarization enabled:               1
  Dispersion enabled:                 1
  Exchanged enabled:                  1
  Gradient enabled:                   1


  ==> EFP Gradient <==

     -0.000146     -0.000227     -0.000000      0.000000     -0.000000     -0.000085
      0.000146      0.000227      0.000000     -0.000000      0.000000     -0.000534

  ## EFP Gradient (Symmetry 0) ##
  Irrep: 1 Size: 2 x 6

                 1            2            3            4            5

    1   -0.0001465   -0.0002269   -0.0000000    0.0000000   -0.0000000
    2    0.0001465    0.0002269    0.0000000   -0.0000000    0.0000000

                 6

    1   -0.0000849
    2   -0.0005341



  ==> Energetics <==

  Electrostatics Energy =      -0.0009419217250450 [H] *
  Polarization Energy =        -0.0000111288592882 [H] *
  Dispersion Energy =          -0.0000303205856066 [H] *
  Exchange Energy =            -0.0000000497073179 [H] *
  Total Energy =               -0.0009834208772577 [H] *
CURRENT ENERGY:   -0.0009834209

			-----------------------------------------
			 OPTKING 2.0: for geometry optimizations 
			  - R.A. King,  Bethel University        
			-----------------------------------------

	Previous internal coordinate definitions found.
After molecule constructor: fragments.size()     = 0
After molecule constructor: efp_fragments.size() = 0
done reading intcos
  Irrep: 1 Size: 2 x 6

                 1            2            3            4            5

    1   -0.0001465   -0.0002269   -0.0000000    0.0000000   -0.0000000
    2    0.0001465    0.0002269    0.0000000   -0.0000000    0.0000000

                 6

    1   -0.0000849
    2   -0.0005341



QM geometry:
  Irrep: 1 Size: 0 x 3

	(empty)

energy   -0.0009834209
done reading geom and grad
	---Fragment 1 EFP fragment Coordinates---
	 * Coordinate *           * BOHR/RAD *       * ANG/DEG *
	     COM X                0.8223000955        0.4351425024 
	     COM Y               -1.0780495956       -0.5704793193 
	     COM Z                0.0000000000        0.0000000000 
	     alpha               -0.0000000000       -0.0000000006 
	     beta                 0.0000000000        0.0000000011 
	     gamma               -0.7226255627      -41.4033949109 

	---Fragment 2 EFP fragment Coordinates---
	 * Coordinate *           * BOHR/RAD *       * ANG/DEG *
	     COM X                8.5000889806        4.4980537030 
	     COM Y                6.5885278988        3.4864990684 
	     COM Z               -0.0000000000       -0.0000000000 
	     alpha                0.0000000000        0.0000000006 
	     beta                -0.0000000000       -0.0000000011 
	     gamma               -1.1508698276      -65.9399838902 


STEP_DATA::save_geom_energy(geom_in, energy_in, Ncart)
Ncart = 18
energy_in = -0.000983
   0.74128668  -1.16536451   0.00000000   2.50781259  -1.35256890  -0.00000000   0.42252902   0.58222036  -0.00000000
   8.39013174   6.54274064  -0.00000000   9.91939260   5.63884876   0.00000000   8.82588610   8.26488391   0.00000000
	Current energy   :        -0.0009834209

	Energy change for the previous step:
		Projected    :        -0.0000536362
		Actual       :        -0.0000864757

Attempting H_update
Nintco is 12
Ncart is 18

	Performing BFGS update
Data for Hessian update:

Current internal values:
   0.81928047   0.12568750   0.00000000  -0.00000000   0.00000000  -0.72262556  -0.81928047  -0.12568750  -0.00000000
   0.00000000  -0.00000000  -1.15086983

Current internal forces:
   0.00014649   0.00022690   0.00000000  -0.00000000   0.00000000   0.00008490  -0.00014649  -0.00022690  -0.00000000
   0.00000000  -0.00000000   0.00053411

Current coordinates:
   0.74128668  -1.16536451   0.00000000   2.50781259  -1.35256890  -0.00000000   0.42252902   0.58222036  -0.00000000
   8.39013174   6.54274064  -0.00000000   9.91939260   5.63884876   0.00000000   8.82588610   8.26488391   0.00000000
 with previous 1 gradient(s).

Old internal forces:
   0.00014817   0.00017561  -0.00000000  -0.00000000   0.00000000   0.00005941  -0.00014817  -0.00017561   0.00000000
   0.00000000  -0.00000000   0.00020280

Old cartesian coords:
   0.45902854  -1.35364687   0.00000000   2.23527095  -1.32870286  -0.00000000  -0.06600151   0.34341021   0.00000000
   8.69303582   6.70354053  -0.00000000  10.35627389   6.07960269   0.00000000   8.82241089   8.47524068  -0.00000000
old dq to subtract to calculate old q for EFP
   0.29325690   0.17923849  -0.00000000  -0.00000000   0.00000000  -0.11962135  -0.29325690  -0.17923849   0.00000000
   0.00000000  -0.00000000  -0.17493490

Old internals including efp:
   0.52602357  -0.05355099   0.00000000  -0.00000000   0.00000000  -0.60300421  -0.52602357   0.05355099  -0.00000000
   0.00000000  -0.00000000  -0.97593493

 NR step and forces 

 dq         fq        
    0.87205    0.00015
    0.62469    0.00023
   -0.00000    0.00000
   -0.00000   -0.00000
    0.00000    0.00000
   -0.26811    0.00008
   -0.87205   -0.00015
   -0.62469   -0.00023
    0.00000   -0.00000
    0.00000    0.00000
   -0.00000   -0.00000
   -0.35616    0.00053
	Change in EFP coordinate exceeds step limit of    0.40000.
	Scaling EFP displacements by    0.45869

in molecule_nr_step.cc line 68, Nintco = 12

in molecule_nr_step.cc line 76, Nintco = 12

in molecule_nr_step.cc line 85, Nintco = 12
	Projected energy change by quadratic approximation:        -0.0001152376

EFP_FRAG::displace()
new geometry: 
  1.131188 -0.868227  0.000000
  2.861407 -1.270720 -0.000000
  1.029216  0.905261 -0.000000

         Phi            T
    -0.00000000     0.40000000
     0.00000000     0.28653984
    -0.12298117    -0.00000000

EFP_FRAG::displace()
new geometry: 
  7.984149  6.274694 -0.000000
  9.346036  5.134114  0.000000
  8.694196  7.903035  0.000000

         Phi            T
     0.00000000    -0.40000000
    -0.00000000    -0.28653984
    -0.16336877     0.00000000

  ==> Convergence Check <==

  Measures of convergence in internal coordinates in au.
  Criteria marked as inactive (o), active & met (*), and active & unmet ( ).
  ---------------------------------------------------------------------------------------------
   Step     Total Energy     Delta E     MAX Force     RMS Force      MAX Disp      RMS Disp   
  ---------------------------------------------------------------------------------------------
    Convergence Criteria    1.00e-06 *    3.00e-04 *             o    1.20e-03 *             o
  ---------------------------------------------------------------------------------------------
      7      -0.00098342   -8.65e-05      5.34e-04      1.91e-04 o    4.00e-01      2.09e-01 o  ~
  ---------------------------------------------------------------------------------------------

	Writing optimization data to binary file.
	Nintco = 12 
	Ncart = 18 
	iteration = 7 
	steps.size() = 7 
	Structure for next step:
There are no QM fragments present.
	New coordinates for EFP fragments:

optking.cc, line 395, just before mol1->write_geom()
Preparing to write geometry
New coordinates for all atoms:
  1.131188 -0.868227  0.000000
  2.861407 -1.270720 -0.000000
  1.029216  0.905261 -0.000000
  7.984149  6.274694 -0.000000
  9.346036  5.134114  0.000000
  8.694196  7.903035  0.000000
	New coordinates for EFP fragments:
   1.1311875003   -0.8682271760    0.0000000000
   2.8614068284   -1.2707198859   -0.0000000000
   1.0292159950    0.9052612274   -0.0000000000
   7.9841488447    6.2746942342   -0.0000000000
   9.3460358380    5.1341140650    0.0000000000
   8.6941957418    7.9030347111    0.0000000000

optking.cc, line 395, just after mol1->write_geom()
geometry after write:
  Irrep: 1 Size: 0 x 3

	(empty)

			--------------------------
			 OPTKING Finished Execution 
			--------------------------

    Structure for next step:
Warning: There are no quantum mechanical atoms in this molecule.
Warning: There are no quantum mechanical atoms in this molecule.
gradient() will perform analytic gradient computation.
Executing run_efp_gradient in proc.py...
py_psi_efp_set_options


LIBEFP ver. 0.9.8-beta
Copyright (c) 2012-2013 Ilya Kaliman
Project web site: http://www.libefp.org/


  ==> Calculation Information <==

  Electrostatics damping:       SCREEN
  Dispersion damping:          OVERLAP
  Electrostatics enabled:             1
  Polarization enabled:               1
  Dispersion enabled:                 1
  Exchanged enabled:                  1
  Gradient enabled:                   1


  ==> EFP Gradient <==

     -0.000158     -0.000320     -0.000000      0.000000     -0.000000     -0.000049
      0.000158      0.000320      0.000000     -0.000000      0.000000     -0.001030

  ## EFP Gradient (Symmetry 0) ##
  Irrep: 1 Size: 2 x 6

                 1            2            3            4            5

    1   -0.0001579   -0.0003197   -0.0000000    0.0000000   -0.0000000
    2    0.0001579    0.0003197    0.0000000   -0.0000000    0.0000000

                 6

    1   -0.0000485
    2   -0.0010302



  ==> Energetics <==

  Electrostatics Energy =      -0.0010541861553276 [H] *
  Polarization Energy =        -0.0000186427305205 [H] *
  Dispersion Energy =          -0.0000537726743215 [H] *
  Exchange Energy =             0.0000002177070966 [H] *
  Total Energy =               -0.0011263838530730 [H] *
CURRENT ENERGY:   -0.0011263839

			-----------------------------------------
			 OPTKING 2.0: for geometry optimizations 
			  - R.A. King,  Bethel University        
			-----------------------------------------

	Previous internal coordinate definitions found.
After molecule constructor: fragments.size()     = 0
After molecule constructor: efp_fragments.size() = 0
done reading intcos
  Irrep: 1 Size: 2 x 6

                 1            2            3            4            5

    1   -0.0001579   -0.0003197   -0.0000000    0.0000000   -0.0000000
    2    0.0001579    0.0003197    0.0000000   -0.0000000    0.0000000

                 6

    1   -0.0000485
    2   -0.0010302



QM geometry:
  Irrep: 1 Size: 0 x 3

	(empty)

energy   -0.0011263839
done reading geom and grad
	---Fragment 1 EFP fragment Coordinates---
	 * Coordinate *           * BOHR/RAD *       * ANG/DEG *
	     COM X                1.2223000955        0.6468134020 
	     COM Y               -0.7915097538       -0.4188489541 
	     COM Z               -0.0000000000       -0.0000000000 
	     alpha               -0.0000000000       -0.0000000011 
	     beta                 0.0000000000        0.0000000017 
	     gamma               -0.8456067308      -48.4496968038 

	---Fragment 2 EFP fragment Coordinates---
	 * Coordinate *           * BOHR/RAD *       * ANG/DEG *
	     COM X                8.1000889806        4.2863828034 
	     COM Y                6.3019880569        3.3348687032 
	     COM Z                0.0000000000        0.0000000000 
	     alpha                0.0000000000        0.0000000011 
	     beta                -0.0000000000       -0.0000000017 
	     gamma               -1.3142386000      -75.3003250508 


STEP_DATA::save_geom_energy(geom_in, energy_in, Ncart)
Ncart = 18
energy_in = -0.001126
   1.13118750  -0.86822718   0.00000000   2.86140683  -1.27071989  -0.00000000   1.02921599   0.90526123  -0.00000000
   7.98414884   6.27469423  -0.00000000   9.34603584   5.13411407   0.00000000   8.69419574   7.90303471   0.00000000
	Current energy   :        -0.0011263839

	Energy change for the previous step:
		Projected    :        -0.0001152376
		Actual       :        -0.0001429630

Attempting H_update
Nintco is 12
Ncart is 18

	Performing BFGS update
Data for Hessian update:

Current internal values:
   1.21928047   0.41222734  -0.00000000  -0.00000000   0.00000000  -0.84560673  -1.21928047  -0.41222734   0.00000000
   0.00000000  -0.00000000  -1.31423860

Current internal forces:
   0.00015789   0.00031968   0.00000000  -0.00000000   0.00000000   0.00004853  -0.00015789  -0.00031968  -0.00000000
   0.00000000  -0.00000000   0.00103017

Current coordinates:
   1.13118750  -0.86822718   0.00000000   2.86140683  -1.27071989  -0.00000000   1.02921599   0.90526123  -0.00000000
   7.98414884   6.27469423  -0.00000000   9.34603584   5.13411407   0.00000000   8.69419574   7.90303471   0.00000000
 with previous 1 gradient(s).

Old internal forces:
   0.00014649   0.00022690   0.00000000  -0.00000000   0.00000000   0.00008490  -0.00014649  -0.00022690  -0.00000000
   0.00000000  -0.00000000   0.00053411

Old cartesian coords:
   0.74128668  -1.16536451   0.00000000   2.50781259  -1.35256890  -0.00000000   0.42252902   0.58222036  -0.00000000
   8.39013174   6.54274064  -0.00000000   9.91939260   5.63884876   0.00000000   8.82588610   8.26488391   0.00000000
old dq to subtract to calculate old q for EFP
   0.40000000   0.28653984  -0.00000000  -0.00000000   0.00000000  -0.12298117  -0.40000000  -0.28653984   0.00000000
   0.00000000  -0.00000000  -0.16336877

Old internals including efp:
   0.81928047   0.12568750   0.00000000  -0.00000000   0.00000000  -0.72262556  -0.81928047  -0.12568750  -0.00000000
   0.00000000  -0.00000000  -1.15086983

 NR step and forces 

 dq         fq        
   14.83346    0.00016
   11.00566    0.00032
   -0.00000    0.00000
   -0.00000   -0.00000
    0.00000    0.00000
   -4.23412    0.00005
  -14.83346   -0.00016
  -11.00566   -0.00032
    0.00000   -0.00000
    0.00000    0.00000
   -0.00000   -0.00000
   -5.38150    0.00103
	Change in EFP coordinate exceeds step limit of    0.40000.
	Scaling EFP displacements by    0.02697

in molecule_nr_step.cc line 68, Nintco = 12

in molecule_nr_step.cc line 76, Nintco = 12

in molecule_nr_step.cc line 85, Nintco = 12
	Projected energy change by quadratic approximation:        -0.0001588557

EFP_FRAG::displace()
new geometry: 
  1.523040 -0.560568  0.000000
  3.196138 -1.157563 -0.000000
  1.623785  1.212991 -0.000000

         Phi            T
    -0.00000000     0.40000000
     0.00000000     0.29677929
    -0.11417742    -0.00000000

EFP_FRAG::displace()
new geometry: 
  7.581421  5.994968 -0.000000
  8.764054  4.669435  0.000000
  8.519477  7.503513  0.000000

         Phi            T
     0.00000000    -0.40000000
    -0.00000000    -0.29677929
    -0.14511793     0.00000000

  ==> Convergence Check <==

  Measures of convergence in internal coordinates in au.
  Criteria marked as inactive (o), active & met (*), and active & unmet ( ).
  ---------------------------------------------------------------------------------------------
   Step     Total Energy     Delta E     MAX Force     RMS Force      MAX Disp      RMS Disp   
  ---------------------------------------------------------------------------------------------
    Convergence Criteria    1.00e-06 *    3.00e-04 *             o    1.20e-03 *             o
  ---------------------------------------------------------------------------------------------
      8      -0.00112638   -1.43e-04      1.03e-03      3.31e-04 o    4.00e-01      2.10e-01 o  ~
  ---------------------------------------------------------------------------------------------

	Writing optimization data to binary file.
	Nintco = 12 
	Ncart = 18 
	iteration = 8 
	steps.size() = 8 
	Structure for next step:
There are no QM fragments present.
	New coordinates for EFP fragments:

optking.cc, line 395, just before mol1->write_geom()
Preparing to write geometry
New coordinates for all atoms:
  1.523040 -0.560568  0.000000
  3.196138 -1.157563 -0.000000
  1.623785  1.212991 -0.000000
  7.581421  5.994968 -0.000000
  8.764054  4.669435  0.000000
  8.519477  7.503513  0.000000
	New coordinates for EFP fragments:
   1.5230403713   -0.5605679559    0.0000000000
   3.1961381623   -1.1575630032   -0.0000000001
   1.6237854770    1.2129905372   -0.0000000000
   7.5814205721    5.9949678376   -0.0000000000
   8.7640542773    4.6694351809    0.0000000000
   8.5194769582    7.5035133362    0.0000000001

optking.cc, line 395, just after mol1->write_geom()
geometry after write:
  Irrep: 1 Size: 0 x 3

	(empty)

			--------------------------
			 OPTKING Finished Execution 
			--------------------------

    Structure for next step:
Warning: There are no quantum mechanical atoms in this molecule.
Warning: There are no quantum mechanical atoms in this molecule.
gradient() will perform analytic gradient computation.
Executing run_efp_gradient in proc.py...
py_psi_efp_set_options


LIBEFP ver. 0.9.8-beta
Copyright (c) 2012-2013 Ilya Kaliman
Project web site: http://www.libefp.org/


  ==> Calculation Information <==

  Electrostatics damping:       SCREEN
  Dispersion damping:          OVERLAP
  Electrostatics enabled:             1
  Polarization enabled:               1
  Dispersion enabled:                 1
  Exchanged enabled:                  1
  Gradient enabled:                   1


  ==> EFP Gradient <==

     -0.000172     -0.000467     -0.000000      0.000000     -0.000000      0.000035
      0.000172      0.000467      0.000000     -0.000000      0.000000     -0.001758

  ## EFP Gradient (Symmetry 0) ##
  Irrep: 1 Size: 2 x 6

                 1            2            3            4            5

    1   -0.0001718   -0.0004672   -0.0000000    0.0000000   -0.0000000
    2    0.0001718    0.0004672    0.0000000   -0.0000000    0.0000000

                 6

    1    0.0000355
    2   -0.0017584



  ==> Energetics <==

  Electrostatics Energy =      -0.0011582351574187 [H] *
  Polarization Energy =        -0.0000342543506927 [H] *
  Dispersion Energy =          -0.0001025329917250 [H] *
  Exchange Energy =             0.0000052032481542 [H] *
  Total Energy =               -0.0012898192516823 [H] *
CURRENT ENERGY:   -0.0012898193

			-----------------------------------------
			 OPTKING 2.0: for geometry optimizations 
			  - R.A. King,  Bethel University        
			-----------------------------------------

	Previous internal coordinate definitions found.
After molecule constructor: fragments.size()     = 0
After molecule constructor: efp_fragments.size() = 0
done reading intcos
  Irrep: 1 Size: 2 x 6

                 1            2            3            4            5

    1   -0.0001718   -0.0004672   -0.0000000    0.0000000   -0.0000000
    2    0.0001718    0.0004672    0.0000000   -0.0000000    0.0000000

                 6

    1    0.0000355
    2   -0.0017584



QM geometry:
  Irrep: 1 Size: 0 x 3

	(empty)

energy   -0.0012898193
done reading geom and grad
	---Fragment 1 EFP fragment Coordinates---
	 * Coordinate *           * BOHR/RAD *       * ANG/DEG *
	     COM X                1.6223000955        0.8584843016 
	     COM Y               -0.4947304664       -0.2618001072 
	     COM Z               -0.0000000000       -0.0000000000 
	     alpha               -0.0000000000       -0.0000000017 
	     beta                 0.0000000000        0.0000000024 
	     gamma               -0.9597841539      -54.9915812646 

	---Fragment 2 EFP fragment Coordinates---
	 * Coordinate *           * BOHR/RAD *       * ANG/DEG *
	     COM X                7.7000889806        4.0747119038 
	     COM Y                6.0052087695        3.1778198563 
	     COM Z                0.0000000000        0.0000000000 
	     alpha                0.0000000000        0.0000000016 
	     beta                -0.0000000000       -0.0000000024 
	     gamma               -1.4593565345      -83.6149702303 


STEP_DATA::save_geom_energy(geom_in, energy_in, Ncart)
Ncart = 18
energy_in = -0.001290
   1.52304037  -0.56056796   0.00000000   3.19613816  -1.15756300  -0.00000000   1.62378548   1.21299054  -0.00000000
   7.58142057   5.99496784  -0.00000000   8.76405428   4.66943518   0.00000000   8.51947696   7.50351334   0.00000000
	Current energy   :        -0.0012898193

	Energy change for the previous step:
		Projected    :        -0.0001588557
		Actual       :        -0.0001634354

Attempting H_update
Nintco is 12
Ncart is 18

	Performing BFGS update
Data for Hessian update:

Current internal values:
   1.61928047   0.70900663  -0.00000000  -0.00000000   0.00000000  -0.95978415  -1.61928047  -0.70900663   0.00000000
   0.00000000  -0.00000000  -1.45935653

Current internal forces:
   0.00017181   0.00046722   0.00000000  -0.00000000   0.00000000  -0.00003546  -0.00017181  -0.00046722  -0.00000000
   0.00000000  -0.00000000   0.00175837

Current coordinates:
   1.52304037  -0.56056796   0.00000000   3.19613816  -1.15756300  -0.00000000   1.62378548   1.21299054  -0.00000000
   7.58142057   5.99496784  -0.00000000   8.76405428   4.66943518   0.00000000   8.51947696   7.50351334   0.00000000
 with previous 1 gradient(s).

Old internal forces:
   0.00015789   0.00031968   0.00000000  -0.00000000   0.00000000   0.00004853  -0.00015789  -0.00031968  -0.00000000
   0.00000000  -0.00000000   0.00103017

Old cartesian coords:
   1.13118750  -0.86822718   0.00000000   2.86140683  -1.27071989  -0.00000000   1.02921599   0.90526123  -0.00000000
   7.98414884   6.27469423  -0.00000000   9.34603584   5.13411407   0.00000000   8.69419574   7.90303471   0.00000000
old dq to subtract to calculate old q for EFP
   0.40000000   0.29677929  -0.00000000  -0.00000000   0.00000000  -0.11417742  -0.40000000  -0.29677929   0.00000000
   0.00000000  -0.00000000  -0.14511793

Old internals including efp:
   1.21928047   0.41222734  -0.00000000  -0.00000000   0.00000000  -0.84560673  -1.21928047  -0.41222734   0.00000000
   0.00000000  -0.00000000  -1.31423860

 NR step and forces 

 dq         fq        
  172.53209    0.00017
  127.09535    0.00047
   -0.00000    0.00000
   -0.00000   -0.00000
    0.00000    0.00000
  -49.86689   -0.00004
 -172.53209   -0.00017
 -127.09535   -0.00047
    0.00000   -0.00000
    0.00000    0.00000
   -0.00000   -0.00000
  -64.07365    0.00176
	Change in EFP coordinate exceeds step limit of    0.40000.
	Scaling EFP displacements by    0.00232

in molecule_nr_step.cc line 68, Nintco = 12

in molecule_nr_step.cc line 76, Nintco = 12

in molecule_nr_step.cc line 85, Nintco = 12
	Projected energy change by quadratic approximation:        -0.0001555072

EFP_FRAG::displace()
new geometry: 
  1.916108 -0.254019  0.000000
  3.509171 -1.040028 -0.000000
  2.220769  1.496078 -0.000000

         Phi            T
    -0.00000000     0.40000000
     0.00000000     0.29465903
    -0.11561186    -0.00000000

EFP_FRAG::displace()
new geometry: 
  7.181212  5.717985 -0.000000
  8.154638  4.232017  0.000000
  8.332207  7.071081  0.000000

         Phi            T
     0.00000000    -0.40000000
    -0.00000000    -0.29465903
    -0.14854895     0.00000000

  ==> Convergence Check <==

  Measures of convergence in internal coordinates in au.
  Criteria marked as inactive (o), active & met (*), and active & unmet ( ).
  ---------------------------------------------------------------------------------------------
   Step     Total Energy     Delta E     MAX Force     RMS Force      MAX Disp      RMS Disp   
  ---------------------------------------------------------------------------------------------
    Convergence Criteria    1.00e-06 *    3.00e-04 *             o    1.20e-03 *             o
  ---------------------------------------------------------------------------------------------
      9      -0.00128982   -1.63e-04      1.76e-03      5.47e-04 o    4.00e-01      2.10e-01 o  ~
  ---------------------------------------------------------------------------------------------

	Writing optimization data to binary file.
	Nintco = 12 
	Ncart = 18 
	iteration = 9 
	steps.size() = 9 
	Structure for next step:
There are no QM fragments present.
	New coordinates for EFP fragments:

optking.cc, line 395, just before mol1->write_geom()
Preparing to write geometry
New coordinates for all atoms:
  1.916108 -0.254019  0.000000
  3.509171 -1.040028 -0.000000
  2.220769  1.496078 -0.000000
  7.181212  5.717985 -0.000000
  8.154638  4.232017  0.000000
  8.332207  7.071081  0.000000
	New coordinates for EFP fragments:
   1.9161083408   -0.2540193621    0.0000000000
   3.5091711256   -1.0400284386   -0.0000000001
   2.2207688397    1.4960781452   -0.0000000000
   7.1812117907    5.7179848952   -0.0000000000
   8.1546379038    4.2320168918    0.0000000000
   8.3322068422    7.0710812318    0.0000000001

optking.cc, line 395, just after mol1->write_geom()
geometry after write:
  Irrep: 1 Size: 0 x 3

	(empty)

			--------------------------
			 OPTKING Finished Execution 
			--------------------------

    Structure for next step:
Warning: There are no quantum mechanical atoms in this molecule.
Warning: There are no quantum mechanical atoms in this molecule.
gradient() will perform analytic gradient computation.
Executing run_efp_gradient in proc.py...
py_psi_efp_set_options


LIBEFP ver. 0.9.8-beta
Copyright (c) 2012-2013 Ilya Kaliman
Project web site: http://www.libefp.org/


  ==> Calculation Information <==

  Electrostatics damping:       SCREEN
  Dispersion damping:          OVERLAP
  Electrostatics enabled:             1
  Polarization enabled:               1
  Dispersion enabled:                 1
  Exchanged enabled:                  1
  Gradient enabled:                   1


  ==> EFP Gradient <==

     -0.000133     -0.000721     -0.000000      0.000000     -0.000000     -0.000040
      0.000133      0.000721      0.000000     -0.000000      0.000000     -0.002976

  ## EFP Gradient (Symmetry 0) ##
  Irrep: 1 Size: 2 x 6

                 1            2            3            4            5

    1   -0.0001330   -0.0007206   -0.0000000    0.0000000   -0.0000000
    2    0.0001330    0.0007206    0.0000000   -0.0000000    0.0000000

                 6

    1   -0.0000404
    2   -0.0029764



  ==> Energetics <==

  Electrostatics Energy =      -0.0011891970918244 [H] *
  Polarization Energy =        -0.0000679157206722 [H] *
  Dispersion Energy =          -0.0002117439198558 [H] *
  Exchange Energy =             0.0000466199997841 [H] *
  Total Energy =               -0.0014222367325683 [H] *
CURRENT ENERGY:   -0.0014222367

			-----------------------------------------
			 OPTKING 2.0: for geometry optimizations 
			  - R.A. King,  Bethel University        
			-----------------------------------------

	Previous internal coordinate definitions found.
After molecule constructor: fragments.size()     = 0
After molecule constructor: efp_fragments.size() = 0
done reading intcos
  Irrep: 1 Size: 2 x 6

                 1            2            3            4            5

    1   -0.0001330   -0.0007206   -0.0000000    0.0000000   -0.0000000
    2    0.0001330    0.0007206    0.0000000   -0.0000000    0.0000000

                 6

    1   -0.0000404
    2   -0.0029764



QM geometry:
  Irrep: 1 Size: 0 x 3

	(empty)

energy   -0.0014222367
done reading geom and grad
	---Fragment 1 EFP fragment Coordinates---
	 * Coordinate *           * BOHR/RAD *       * ANG/DEG *
	     COM X                2.0223000955        1.0701552012 
	     COM Y               -0.2000714325       -0.1058732502 
	     COM Z               -0.0000000000       -0.0000000000 
	     alpha               -0.0000000000       -0.0000000022 
	     beta                 0.0000000001        0.0000000030 
	     gamma               -1.0753960145      -61.6156529357 

	---Fragment 2 EFP fragment Coordinates---
	 * Coordinate *           * BOHR/RAD *       * ANG/DEG *
	     COM X                7.3000889806        3.8630410042 
	     COM Y                5.7105497356        3.0218929994 
	     COM Z                0.0000000000        0.0000000000 
	     alpha                0.0000000000        0.0000000021 
	     beta                -0.0000000001       -0.0000000030 
	     gamma               -1.6079054869      -92.1261982569 


STEP_DATA::save_geom_energy(geom_in, energy_in, Ncart)
Ncart = 18
energy_in = -0.001422
   1.91610834  -0.25401936   0.00000000   3.50917113  -1.04002844  -0.00000000   2.22076884   1.49607815  -0.00000000
   7.18121179   5.71798490  -0.00000000   8.15463790   4.23201689   0.00000000   8.33220684   7.07108123   0.00000000
	Current energy   :        -0.0014222367

	Energy change for the previous step:
		Projected    :        -0.0001555072
		Actual       :        -0.0001324175

Attempting H_update
Nintco is 12
Ncart is 18

	Performing BFGS update
Data for Hessian update:

Current internal values:
   2.01928047   1.00366566  -0.00000000  -0.00000000   0.00000000  -1.07539601  -2.01928047  -1.00366566   0.00000000
   0.00000000  -0.00000000  -1.60790549

Current internal forces:
   0.00013300   0.00072055   0.00000000  -0.00000000   0.00000000   0.00004037  -0.00013300  -0.00072055  -0.00000000
   0.00000000  -0.00000000   0.00297645

Current coordinates:
   1.91610834  -0.25401936   0.00000000   3.50917113  -1.04002844  -0.00000000   2.22076884   1.49607815  -0.00000000
   7.18121179   5.71798490  -0.00000000   8.15463790   4.23201689   0.00000000   8.33220684   7.07108123   0.00000000
 with previous 1 gradient(s).

Old internal forces:
   0.00017181   0.00046722   0.00000000  -0.00000000   0.00000000  -0.00003546  -0.00017181  -0.00046722  -0.00000000
   0.00000000  -0.00000000   0.00175837

Old cartesian coords:
   1.52304037  -0.56056796   0.00000000   3.19613816  -1.15756300  -0.00000000   1.62378548   1.21299054  -0.00000000
   7.58142057   5.99496784  -0.00000000   8.76405428   4.66943518   0.00000000   8.51947696   7.50351334   0.00000000
[...]
    2    0.0000830    0.0001036    0.0000000    0.0000000   -0.0000000

                 6

    1    0.0000718
    2    0.0000250



QM geometry:
  Irrep: 1 Size: 0 x 3

	(empty)

energy   -0.0069877463
done reading geom and grad
	---Fragment 1 EFP fragment Coordinates---
	 * Coordinate *           * BOHR/RAD *       * ANG/DEG *
	     COM X                6.7276256876        3.5601064537 
	     COM Y                4.7508336523        2.5140330826 
	     COM Z                0.0000002343        0.0000001240 
	     alpha                0.0000001853        0.0000106144 
	     beta                -0.0000001822       -0.0000104393 
	     gamma               -5.0344375762     -288.4520253379 

	---Fragment 2 EFP fragment Coordinates---
	 * Coordinate *           * BOHR/RAD *       * ANG/DEG *
	     COM X                2.5947633884        1.3730897517 
	     COM Y                0.7596446508        0.4019866665 
	     COM Z               -0.0000002343       -0.0000001240 
	     alpha               -0.0000004762       -0.0000272817 
	     beta                -0.0000000111       -0.0000006375 
	     gamma               -3.5797784505     -205.1061968061 


STEP_DATA::save_geom_energy(geom_in, energy_in, Ncart)
Ncart = 18
energy_in = -0.006988
   6.83961957   4.71028199   0.00000027   6.32314790   6.40996323  -0.00000005   5.35467969   3.73528822   0.00000002
   2.64801932   0.86618513  -0.00000029   0.89994090   0.55014537  -0.00000009   3.44437584  -0.72173036   0.00000051
	Current energy   :        -0.0069877463

	Energy change for the previous step:
		Projected    :        -0.0003778758
		Actual       :        -0.0003359477
	Energy ratio indicates good step: Trust radius increased to 2.500e-01.


Attempting H_update
Nintco is 12
Ncart is 18

	Performing BFGS update
Data for Hessian update:

Current internal values:
   6.72460607   5.95457075   0.00000023   0.00000019  -0.00000018  -5.03443758  -6.72460607  -5.95457075  -0.00000023
  -0.00000048  -0.00000001  -3.57977845

Current internal forces:
   0.00008300   0.00010360   0.00000000  -0.00000000  -0.00000000  -0.00007183  -0.00008300  -0.00010360  -0.00000000
  -0.00000000   0.00000000  -0.00002505

Current coordinates:
   6.83961957   4.71028199   0.00000027   6.32314790   6.40996323  -0.00000005   5.35467969   3.73528822   0.00000002
   2.64801932   0.86618513  -0.00000029   0.89994090   0.55014537  -0.00000009   3.44437584  -0.72173036   0.00000051
 with previous 1 gradient(s).

Old internal forces:
  -0.00135833  -0.00139554  -0.00000000  -0.00000000  -0.00000000   0.00156092   0.00135833   0.00139554   0.00000000
   0.00000000   0.00000000   0.00039432

Old cartesian coords:
   7.16847994   4.44182791   0.00000029   7.19538931   6.21804163   0.00000001   5.45682191   3.96655313  -0.00000002
   2.29854907   1.10379002  -0.00000032   0.55962159   0.74076036  -0.00000007   3.13740524  -0.46208980   0.00000057
old dq to subtract to calculate old q for EFP
  -0.34658001   0.23620852  -0.00000003  -0.00000002   0.00000003   0.31014652   0.34658001  -0.23620852   0.00000003
   0.00000007  -0.00000002  -0.02694980

Old internals including efp:
   7.07118608   5.71836223   0.00000026   0.00000021  -0.00000021  -5.34458409  -7.07118608  -5.71836223  -0.00000026
  -0.00000054   0.00000001  -3.55282865

 NR step and forces 

 dq         fq        
    0.01247    0.00008
   -0.00747    0.00010
    0.00000    0.00000
   -0.00000   -0.00000
   -0.00000   -0.00000
   -0.01037   -0.00007
   -0.01247   -0.00008
    0.00747   -0.00010
   -0.00000   -0.00000
   -0.00000   -0.00000
    0.00000    0.00000
    0.00072   -0.00003

in molecule_nr_step.cc line 68, Nintco = 12

in molecule_nr_step.cc line 76, Nintco = 12

in molecule_nr_step.cc line 85, Nintco = 12
	Projected energy change by quadratic approximation:        -0.0000006251

EFP_FRAG::displace()
new geometry: 
  6.851668  4.701653  0.000000
  6.352850  6.406599 -0.000000
  5.356697  3.742111  0.000000

         Phi            T
    -0.00000000     0.01247483
    -0.00000001    -0.00746975
    -0.01037056     0.00000001

EFP_FRAG::displace()
new geometry: 
  2.635468  0.873693 -0.000000
  0.887617  0.556399 -0.000000
  3.432964 -0.713651  0.000000

         Phi            T
    -0.00000002    -0.01247483
     0.00000003     0.00746975
     0.00071753    -0.00000001

  ==> Convergence Check <==

  Measures of convergence in internal coordinates in au.
  Criteria marked as inactive (o), active & met (*), and active & unmet ( ).
  ---------------------------------------------------------------------------------------------
   Step     Total Energy     Delta E     MAX Force     RMS Force      MAX Disp      RMS Disp   
  ---------------------------------------------------------------------------------------------
    Convergence Criteria    1.00e-06 *    3.00e-04 *             o    1.20e-03 *             o
  ---------------------------------------------------------------------------------------------
     41      -0.00698775   -3.36e-04      1.04e-04 *    5.85e-05 o    1.25e-02      6.65e-03 o  ~
  ---------------------------------------------------------------------------------------------

	Writing optimization data to binary file.
	Nintco = 12 
	Ncart = 18 
	iteration = 41 
	steps.size() = 41 
	Structure for next step:
There are no QM fragments present.
	New coordinates for EFP fragments:

optking.cc, line 395, just before mol1->write_geom()
Preparing to write geometry
New coordinates for all atoms:
  6.851668  4.701653  0.000000
  6.352850  6.406599 -0.000000
  5.356697  3.742111  0.000000
  2.635468  0.873693 -0.000000
  0.887617  0.556399 -0.000000
  3.432964 -0.713651  0.000000
	New coordinates for EFP fragments:
   6.8516678491    4.7016530026    0.0000002817
   6.3528502771    6.4065988477   -0.0000000443
   5.3566967652    3.7421110478    0.0000000273
   2.6354680252    0.8736930649   -0.0000003084
   0.8876168201    0.5563990848   -0.0000000552
   3.4329637209   -0.7136506030    0.0000004968

optking.cc, line 395, just after mol1->write_geom()
geometry after write:
  Irrep: 1 Size: 0 x 3

	(empty)

			--------------------------
			 OPTKING Finished Execution 
			--------------------------

    Structure for next step:
Warning: There are no quantum mechanical atoms in this molecule.
Warning: There are no quantum mechanical atoms in this molecule.
gradient() will perform analytic gradient computation.
Executing run_efp_gradient in proc.py...
py_psi_efp_set_options


LIBEFP ver. 0.9.8-beta
Copyright (c) 2012-2013 Ilya Kaliman
Project web site: http://www.libefp.org/


  ==> Calculation Information <==

  Electrostatics damping:       SCREEN
  Dispersion damping:          OVERLAP
  Electrostatics enabled:             1
  Polarization enabled:               1
  Dispersion enabled:                 1
  Exchanged enabled:                  1
  Gradient enabled:                   1


  ==> EFP Gradient <==

     -0.000021     -0.000029     -0.000000      0.000000      0.000000      0.000021
      0.000021      0.000029      0.000000      0.000000     -0.000000      0.000016

  ## EFP Gradient (Symmetry 0) ##
  Irrep: 1 Size: 2 x 6

                 1            2            3            4            5

    1   -0.0000214   -0.0000295   -0.0000000    0.0000000    0.0000000
    2    0.0000214    0.0000295    0.0000000    0.0000000   -0.0000000

                 6

    1    0.0000210
    2    0.0000163



  ==> Energetics <==

  Electrostatics Energy =      -0.0094150527381709 [H] *
  Polarization Energy =        -0.0009631367736588 [H] *
  Dispersion Energy =          -0.0016397585815604 [H] *
  Exchange Energy =             0.0050294279298635 [H] *
  Total Energy =               -0.0069885201635266 [H] *
CURRENT ENERGY:   -0.0069885202

			-----------------------------------------
			 OPTKING 2.0: for geometry optimizations 
			  - R.A. King,  Bethel University        
			-----------------------------------------

	Previous internal coordinate definitions found.
After molecule constructor: fragments.size()     = 0
After molecule constructor: efp_fragments.size() = 0
done reading intcos
  Irrep: 1 Size: 2 x 6

                 1            2            3            4            5

    1   -0.0000214   -0.0000295   -0.0000000    0.0000000    0.0000000
    2    0.0000214    0.0000295    0.0000000    0.0000000   -0.0000000

                 6

    1    0.0000210
    2    0.0000163



QM geometry:
  Irrep: 1 Size: 0 x 3

	(empty)

energy   -0.0069885202
done reading geom and grad
	---Fragment 1 EFP fragment Coordinates---
	 * Coordinate *           * BOHR/RAD *       * ANG/DEG *
	     COM X                6.7401005212        3.5667078518 
	     COM Y                4.7433639031        2.5100802613 
	     COM Z                0.0000002492        0.0000001319 
	     alpha                0.0000001817        0.0000104122 
	     beta                -0.0000001931       -0.0000110649 
	     gamma               -5.0448081373     -289.0462147221 

	---Fragment 2 EFP fragment Coordinates---
	 * Coordinate *           * BOHR/RAD *       * ANG/DEG *
	     COM X                2.5822885548        1.3664883536 
	     COM Y                0.7671144000        0.4059394879 
	     COM Z               -0.0000002492       -0.0000001319 
	     alpha               -0.0000004927       -0.0000282270 
	     beta                 0.0000000188        0.0000010773 
	     gamma               -3.5790609216     -205.0650854264 


STEP_DATA::save_geom_energy(geom_in, energy_in, Ncart)
Ncart = 18
energy_in = -0.006989
   6.85166785   4.70165300   0.00000028   6.35285028   6.40659885  -0.00000004   5.35669677   3.74211105   0.00000003
   2.63546803   0.87369306  -0.00000031   0.88761682   0.55639908  -0.00000006   3.43296372  -0.71365060   0.00000050
	Current energy   :        -0.0069885202

	Energy change for the previous step:
		Projected    :        -0.0000006251
		Actual       :        -0.0000007739
	Energy ratio indicates good step: Trust radius increased to 5.000e-01.


Attempting H_update
Nintco is 12
Ncart is 18

	Performing BFGS update
Data for Hessian update:

Current internal values:
   6.73708090   5.94710100   0.00000025   0.00000018  -0.00000019  -5.04480814  -6.73708090  -5.94710100  -0.00000025
  -0.00000049   0.00000002  -3.57906092

Current internal forces:
   0.00002144   0.00002946   0.00000000  -0.00000000  -0.00000000  -0.00002095  -0.00002144  -0.00002946  -0.00000000
  -0.00000000   0.00000000  -0.00001625

Current coordinates:
   6.85166785   4.70165300   0.00000028   6.35285028   6.40659885  -0.00000004   5.35669677   3.74211105   0.00000003
   2.63546803   0.87369306  -0.00000031   0.88761682   0.55639908  -0.00000006   3.43296372  -0.71365060   0.00000050
 with previous 1 gradient(s).

Old internal forces:
   0.00008300   0.00010360   0.00000000  -0.00000000  -0.00000000  -0.00007183  -0.00008300  -0.00010360  -0.00000000
  -0.00000000   0.00000000  -0.00002505

Old cartesian coords:
   6.83961957   4.71028199   0.00000027   6.32314790   6.40996323  -0.00000005   5.35467969   3.73528822   0.00000002
   2.64801932   0.86618513  -0.00000029   0.89994090   0.55014537  -0.00000009   3.44437584  -0.72173036   0.00000051
old dq to subtract to calculate old q for EFP
   0.01247483  -0.00746975   0.00000001  -0.00000000  -0.00000001  -0.01037056  -0.01247483   0.00746975  -0.00000001
  -0.00000002   0.00000003   0.00071753

Old internals including efp:
   6.72460607   5.95457075   0.00000023   0.00000019  -0.00000018  -5.03443758  -6.72460607  -5.95457075  -0.00000023
  -0.00000048  -0.00000001  -3.57977845

 NR step and forces 

 dq         fq        
    0.00352    0.00002
   -0.00196    0.00003
    0.00000    0.00000
   -0.00000   -0.00000
   -0.00000   -0.00000
   -0.00312   -0.00002
   -0.00352   -0.00002
    0.00196   -0.00003
   -0.00000   -0.00000
   -0.00000   -0.00000
    0.00000    0.00000
    0.00016   -0.00002

in molecule_nr_step.cc line 68, Nintco = 12

in molecule_nr_step.cc line 76, Nintco = 12

in molecule_nr_step.cc line 85, Nintco = 12
	Projected energy change by quadratic approximation:        -0.0000000492

EFP_FRAG::displace()
new geometry: 
  6.855059  4.699348  0.000000
  6.361560  6.405841 -0.000000
  5.357104  3.744472  0.000000

         Phi            T
    -0.00000001     0.00352199
    -0.00000001    -0.00195747
    -0.00311789     0.00000002

EFP_FRAG::displace()
new geometry: 
  2.631929  0.875659 -0.000000
  0.884129  0.558084 -0.000000
  3.429680 -0.711556  0.000000

         Phi            T
    -0.00000002    -0.00352199
     0.00000004     0.00195747
     0.00016086    -0.00000002

  ==> Convergence Check <==

  Measures of convergence in internal coordinates in au.
  Criteria marked as inactive (o), active & met (*), and active & unmet ( ).
  ---------------------------------------------------------------------------------------------
   Step     Total Energy     Delta E     MAX Force     RMS Force      MAX Disp      RMS Disp   
  ---------------------------------------------------------------------------------------------
    Convergence Criteria    1.00e-06 *    3.00e-04 *             o    1.20e-03 *             o
  ---------------------------------------------------------------------------------------------
     42      -0.00698852   -7.74e-07 *    2.95e-05 *    1.67e-05 o    3.52e-03      1.88e-03 o  ~
  ---------------------------------------------------------------------------------------------


  **** Optimization is complete! ****

  ==> Optimization Summary <==

  Measures of convergence in internal coordinates in au.
  --------------------------------------------------------------------------------------------------------------- ~
   Step         Total Energy             Delta E       MAX Force       RMS Force        MAX Disp        RMS Disp  ~
  --------------------------------------------------------------------------------------------------------------- ~
      1      -0.000205578324     -0.000205578324      0.00081789      0.00028362      0.02726310      0.01063173  ~
      2      -0.000239748179     -0.000034169856      0.00081089      0.00028063      0.40000000      0.15694568  ~
      3      -0.000667395526     -0.000427647347      0.00052089      0.00018188      0.40000000      0.15841901  ~
      4      -0.000860803609     -0.000193408082      0.00015869      0.00008950      0.08103839      0.03578040  ~
      5      -0.000875614470     -0.000014810862      0.00016246      0.00009592      0.07509068      0.04074520  ~
      6      -0.000896945165     -0.000021330695      0.00020280      0.00011189      0.29325690      0.15306959  ~
      7      -0.000983420877     -0.000086475712      0.00053411      0.00019113      0.40000000      0.20936887  ~
      8      -0.001126383853     -0.000142962976      0.00103017      0.00033139      0.40000000      0.21020855  ~
      9      -0.001289819252     -0.000163435399      0.00175837      0.00054687      0.40000000      0.20997635  ~
     10      -0.001422236733     -0.000132417481      0.00297645      0.00090988      0.31222728      0.16415784  ~
     11      -0.001292108778      0.000130127955      0.00466138      0.00141837      0.02921544      0.01744825  ~
     12      -0.001324077053     -0.000031968275      0.00456234      0.00137971      0.08954112      0.05505679  ~
     13      -0.001378070310     -0.000053993257      0.00437047      0.00131436      0.06396858      0.03324151  ~
     14      -0.001400228502     -0.000022158192      0.00435370      0.00131092      0.22315533      0.10953918  ~
     15      -0.001466317540     -0.000066089038      0.00442790      0.00134206      0.37864280      0.17976697  ~
     16      -0.001567756644     -0.000101439104      0.00461286      0.00141118      0.40000000      0.18575012  ~
     17      -0.001690931007     -0.000123174363      0.00476396      0.00146548      0.40000000      0.18319840  ~
     18      -0.001850303751     -0.000159372744      0.00489110      0.00150422      0.40000000      0.18327267  ~
     19      -0.002062408450     -0.000212104698      0.00523933      0.00159555      0.34775315      0.17949731  ~
     20      -0.002189560638     -0.000127152188      0.00717924      0.00230078      0.15651615      0.06887045  ~
     21      -0.002348766829     -0.000159206191      0.00657012      0.00200719      0.10889907      0.04837774  ~
     22      -0.002515237079     -0.000166470250      0.00701815      0.00210287      0.40000000      0.17069752  ~
     23      -0.002689881605     -0.000174644526      0.00739092      0.00219182      0.40000000      0.17001459  ~
     24      -0.002803136682     -0.000113255077      0.00701162      0.00208656      0.40000000      0.17165796  ~
     25      -0.002883111169     -0.000079974487      0.00664208      0.00198928      0.37072512      0.16614640  ~
     26      -0.002978530676     -0.000095419507      0.00652695      0.00195383      0.38106690      0.19557653  ~
     27      -0.003181133672     -0.000202602996      0.00688965      0.00206010      0.40000000      0.20711756  ~
     28      -0.003367196301     -0.000186062629      0.00669511      0.00200517      0.40000000      0.23756821  ~
     29      -0.003650329298     -0.000283132996      0.00633397      0.00189758      0.40000000      0.20953610  ~
     30      -0.003972268340     -0.000321939043      0.00585683      0.00175558      0.40000000      0.18398262  ~
     31      -0.004360717503     -0.000388449163      0.00529520      0.00158651      0.40000000      0.17206839  ~
     32      -0.004778137561     -0.000417420058      0.00460611      0.00138411      0.40000000      0.17741246  ~
     33      -0.005053945878     -0.000275808317      0.00396927      0.00125686      0.40000000      0.16779747  ~
     34      -0.005442819341     -0.000388873463      0.00310894      0.00104754      0.40000000      0.17137438  ~
     35      -0.005801551654     -0.000358732313      0.00216811      0.00084321      0.40000000      0.17910783  ~
     36      -0.006158348016     -0.000356796362      0.00190640      0.00067771      0.40000000      0.19000654  ~
     37      -0.006509800689     -0.000351452673      0.00168325      0.00058795      0.40000000      0.24455893  ~
     38      -0.006473008325      0.000036792364      0.00318003      0.00157973      0.40000000      0.21488316  ~
     39      -0.006975597095     -0.000502588770      0.00041576      0.00024068      0.38857387      0.21736873  ~
     40      -0.006651798553      0.000323798542      0.00156092      0.00092092      0.34658001      0.19337819  ~
     41      -0.006987746291     -0.000335947738      0.00010360      0.00005848      0.01247483      0.00665144  ~
     42      -0.006988520164     -0.000000773873      0.00002946      0.00001673      0.00352199      0.00187571  ~
  --------------------------------------------------------------------------------------------------------------- ~

	Writing optimization data to binary file.
	Nintco = 12 
	Ncart = 18 
	iteration = 42 
	steps.size() = 42 
	Final energy is     -0.0069885201635
	Final (previous) structure:
There are no QM fragments present.
	New coordinates for EFP fragments:
	Saving final (previous) structure.
Preparing to write geometry
New coordinates for all atoms:
  6.851668  4.701653  0.000000
  6.352850  6.406599 -0.000000
  5.356697  3.742111  0.000000
  2.635468  0.873693 -0.000000
  0.887617  0.556399 -0.000000
  3.432964 -0.713651  0.000000
	New coordinates for EFP fragments:
   6.8516678491    4.7016530026    0.0000002817
   6.3528502771    6.4065988477   -0.0000000443
   5.3566967652    3.7421110478    0.0000000273
   2.6354680252    0.8736930649   -0.0000003084
   0.8876168201    0.5563990848   -0.0000000552
   3.4329637209   -0.7136506030    0.0000004968
			--------------------------
			 OPTKING Finished Execution 
			--------------------------

    Final optimized geometry and variables:

*** PSI4 exiting successfully. Buy a developer a beer!
