
    -----------------------------------------------------------------------
          Psi4: An Open-Source Ab Initio Electronic Structure Package
                               Psi4 1.5a1.dev259 

                         Git: Rev {linK-new} c83626b dirty


    D. G. A. Smith, L. A. Burns, A. C. Simmonett, R. M. Parrish,
    M. C. Schieber, R. Galvelis, P. Kraus, H. Kruse, R. Di Remigio,
    A. Alenaizan, A. M. James, S. Lehtola, J. P. Misiewicz, M. Scheurer,
    R. A. Shaw, J. B. Schriber, Y. Xie, Z. L. Glick, D. A. Sirianni,
    J. S. O'Brien, J. M. Waldrop, A. Kumar, E. G. Hohenstein,
    B. P. Pritchard, B. R. Brooks, H. F. Schaefer III, A. Yu. Sokolov,
    K. Patkowski, A. E. DePrince III, U. Bozkaya, R. A. King,
    F. A. Evangelista, J. M. Turney, T. D. Crawford, C. D. Sherrill,
    J. Chem. Phys. 152(18) 184108 (2020). https://doi.org/10.1063/5.0006002

                            Additional Code Authors
    E. T. Seidl, C. L. Janssen, E. F. Valeev, M. L. Leininger,
    J. F. Gonthier, R. M. Richard, H. R. McAlexander, M. Saitow, X. Wang,
    P. Verma, and M. H. Lechner

             Previous Authors, Complete List of Code Contributors,
                       and Citations for Specific Modules
    https://github.com/psi4/psi4/blob/master/codemeta.json
    https://github.com/psi4/psi4/graphs/contributors
    http://psicode.org/psi4manual/master/introduction.html#citing-psifour

    -----------------------------------------------------------------------


    Psi4 started on: Monday, 13 December 2021 03:16PM

    Process ID: 19142
    Host:       ds10
    PSIDATADIR: /scratch/jiang/p4dev/psi4/objdir-livie/stage/share/psi4
    Memory:     500.0 MiB
    Threads:    6
    
  ==> Input File <==

--------------------------------------------------------------------------
#! RKS Linear Exchange Algorithm test for benzene

ref_energy = -232.33331405755291 # TEST (CSAM Screening)

molecule mol {
    0 1
    C    -1.0478252   -1.4216736    0.0000000
    C    -1.4545034   -0.8554459    1.2062048
    C    -1.4545034   -0.8554459   -1.2062048
    C    -2.2667970    0.2771610    1.2069539
    C    -2.6714781    0.8450211    0.0000000
    C    -2.2667970    0.2771610   -1.2069539
    H    -1.1338534   -1.2920593   -2.1423150
    H    -2.5824943    0.7163066   -2.1437977
    H    -3.3030422    1.7232700    0.0000000
    H    -2.5824943    0.7163066    2.1437977
    H    -1.1338534   -1.2920593    2.1423150
    H    -0.4060253   -2.2919049    0.0000000
    symmetry c1
    no_reorient
    no_com
}

set {
    scf_type direct
    df_scf_guess false
    basis cc-pVTZ
    ints_tolerance 1.0e-12
    e_convergence 1.0e-10
    screening density
    incfock true
    incfock_full_fock_every 4
    do_linK true
    linK_ints_tolerance 1.0e-12
}

linK_energy = energy('b3lyp')
psi4.compare_values(ref_energy, linK_energy, 7, "B3LYP Energy (using LinK algo)")
--------------------------------------------------------------------------

Scratch directory: /scratch/jiang/

*** tstart() called on ds10
*** at Mon Dec 13 15:16:16 2021

   => Loading Basis Set <=

    Name: CC-PVTZ
    Role: ORBITAL
    Keyword: BASIS
    atoms 1-6  entry C          line   186 file /scratch/jiang/p4dev/psi4/objdir-livie/stage/share/psi4/basis/cc-pvtz.gbs 
    atoms 7-12 entry H          line    23 file /scratch/jiang/p4dev/psi4/objdir-livie/stage/share/psi4/basis/cc-pvtz.gbs 


         ---------------------------------------------------------
                                   SCF
               by Justin Turney, Rob Parrish, Andy Simmonett
                          and Daniel G. A. Smith
                              RKS Reference
                        6 Threads,    500 MiB Core
         ---------------------------------------------------------

  ==> Geometry <==

    Molecular point group: c1
    Full point group: Cs

    Geometry (in Angstrom), charge = 0, multiplicity = 1:

       Center              X                  Y                   Z               Mass       
    ------------   -----------------  -----------------  -----------------  -----------------
         C           -1.047825200000    -1.421673600000     0.000000000000    12.000000000000
         C           -1.454503400000    -0.855445900000     1.206204800000    12.000000000000
         C           -1.454503400000    -0.855445900000    -1.206204800000    12.000000000000
         C           -2.266797000000     0.277161000000     1.206953900000    12.000000000000
         C           -2.671478100000     0.845021100000     0.000000000000    12.000000000000
         C           -2.266797000000     0.277161000000    -1.206953900000    12.000000000000
         H           -1.133853400000    -1.292059300000    -2.142315000000     1.007825032230
         H           -2.582494300000     0.716306600000    -2.143797700000     1.007825032230
         H           -3.303042200000     1.723270000000     0.000000000000     1.007825032230
         H           -2.582494300000     0.716306600000     2.143797700000     1.007825032230
         H           -1.133853400000    -1.292059300000     2.142315000000     1.007825032230
         H           -0.406025300000    -2.291904900000     0.000000000000     1.007825032230

  Running in c1 symmetry.

  Rotational constants: A =      0.10996  B =      0.04618  C =      0.04339 [cm^-1]
  Rotational constants: A =   3296.45833  B =   1384.51424  C =   1300.84014 [MHz]
  Nuclear repulsion =  203.710931360278892

  Charge       = 0
  Multiplicity = 1
  Electrons    = 42
  Nalpha       = 21
  Nbeta        = 21

  ==> Algorithm <==

  SCF Algorithm Type is DIRECT.
  DIIS enabled.
  MOM disabled.
  Fractional occupation disabled.
  Guess Type is SAD.
  Energy threshold   = 1.00e-10
  Density threshold  = 1.00e-06
  Integral threshold = 1.00e-12

  ==> Primary Basis <==

  Basis Set: CC-PVTZ
    Blend: CC-PVTZ
    Number of shells: 96
    Number of basis functions: 264
    Number of Cartesian functions: 300
    Spherical Harmonics?: true
    Max angular momentum: 3

  ==> DFT Potential <==

   => LibXC <=

    Version 5.1.5
    S. Lehtola, C. Steigemann, M. J. Oliveira, and M. A. Marques, SoftwareX 7, 1 (2018) (10.1016/j.softx.2017.11.002)

   => Composite Functional: B3LYP <= 

    B3LYP Hyb-GGA Exchange-Correlation Functional

    P. J. Stephens, F. J. Devlin, C. F. Chabalowski, and M. J. Frisch, J. Phys. Chem. 98, 11623 (1994) (10.1021/j100096a001)

    Deriv               =              1
    GGA                 =           TRUE
    Meta                =          FALSE

    Exchange Hybrid     =           TRUE
    MP2 Hybrid          =          FALSE

   => Exchange Functionals <=

    0.0800   Slater exchange
    0.7200         Becke 88

   => Exact (HF) Exchange <=

    0.2000               HF 

   => Correlation Functionals <=

    0.1900   Vosko, Wilk & Nusair (VWN5_RPA)
    0.8100   Lee, Yang & Parr

   => LibXC Density Thresholds  <==

    XC_HYB_GGA_XC_B3LYP:  1.00E-15 

   => Molecular Quadrature <=

    Radial Scheme          =       TREUTLER
    Pruning Scheme         =           NONE
    Nuclear Scheme         =       TREUTLER

    BS radius alpha        =              1
    Pruning alpha          =              1
    Radial Points          =             75
    Spherical Points       =            302
    Total Points           =         254624
    Total Blocks           =           2003
    Max Points             =            256
    Max Functions          =            264
    Weights Tolerance      =       1.00E-15

  ==> Integral Setup <==

  ==> DirectJK: Integral-Direct J/K Matrices <==

    J tasked:                  Yes
    K tasked:                  Yes
    wK tasked:                  No
    Integrals threads:           6
    Screening Type:        DENSITY
    Screening Cutoff:        1E-12
    Incremental Fock:          Yes
    LinK:                      Yes

  Cached 20.0% of DFT collocation blocks in 0.306 [GiB].

  Minimum eigenvalue in the overlap matrix is 3.7592595820E-05.
  Reciprocal condition number of the overlap matrix is 4.6398212530E-06.
    Using symmetric orthogonalization.

  ==> Pre-Iterations <==

  SCF Guess: Superposition of Atomic Densities via on-the-fly atomic UHF (no occupation information).

   -------------------------
    Irrep   Nso     Nmo    
   -------------------------
     A        264     264 
   -------------------------
    Total     264     264
   -------------------------

  ==> Iterations <==

                        Total Energy        Delta E     RMS |[F,P]|

   @RKS iter SAD:  -231.83025753211248   -2.31830e+02   0.00000e+00 
   @RKS iter   1:  -231.83545138974341   -5.19386e-03   3.65134e-03 DIIS/LINK
   @RKS iter   2:  -231.53451813741364    3.00933e-01   4.63456e-03 DIIS/INCFOCK/LINK
   @RKS iter   3:  -232.32894881043921   -7.94431e-01   3.73776e-04 DIIS/INCFOCK/LINK
   @RKS iter   4:  -232.33313490272693   -4.18609e-03   7.47834e-05 DIIS/INCFOCK/LINK
   @RKS iter   5:  -232.33331174817062   -1.76845e-04   7.61920e-06 DIIS/LINK
   @RKS iter   6:  -232.33331208111088   -3.32940e-07   6.98258e-06 DIIS/INCFOCK/LINK
   @RKS iter   7:  -232.33331400009934   -1.91899e-06   7.12476e-07 DIIS/INCFOCK/LINK
   @RKS iter   8:  -232.33331403503959   -3.49403e-08   3.25934e-07 DIIS/LINK
   @RKS iter   9:  -232.33331403832963   -3.29004e-09   3.43378e-08 DIIS/LINK
   @RKS iter  10:  -232.33331403831227    1.73657e-11   8.11680e-09 DIIS/LINK
  Energy and wave function converged.


  ==> Post-Iterations <==

   Electrons on quadrature grid:
      Ntotal   =   42.0000093710 ; deviation = 9.371e-06 

    Orbital Energies [Eh]
    ---------------------

    Doubly Occupied:                                                      

       1A    -10.179336     2A    -10.179069     3A    -10.179026  
       4A    -10.178480     5A    -10.178470     6A    -10.178177  
       7A     -0.856473     8A     -0.748537     9A     -0.748355  
      10A     -0.605600    11A     -0.605522    12A     -0.527215  
      13A     -0.464477    14A     -0.449847    15A     -0.425094  
      16A     -0.424859    17A     -0.371376    18A     -0.348012  
      19A     -0.347777    20A     -0.258029    21A     -0.257914  

    Virtual:                                                              

      22A     -0.012718    23A     -0.012697    24A      0.039665  
      25A      0.070876    26A      0.070935    27A      0.101604  
      28A      0.101689    29A      0.127420    30A      0.142898  
      31A      0.231221    32A      0.231231    33A      0.257186  
      34A      0.261218    35A      0.264707    36A      0.264844  
      37A      0.278951    38A      0.321940    39A      0.321998  
      40A      0.354309    41A      0.362819    42A      0.362964  
      43A      0.387785    44A      0.398014    45A      0.398227  
      46A      0.404759    47A      0.404825    48A      0.435503  
      49A      0.435588    50A      0.446932    51A      0.479869  
      52A      0.482470    53A      0.482607    54A      0.495601  
      55A      0.497533    56A      0.546552    57A      0.547427  
      58A      0.547538    59A      0.573794    60A      0.573888  
      61A      0.649985    62A      0.674175    63A      0.674460  
      64A      0.707566    65A      0.727887    66A      0.728089  
      67A      0.745412    68A      0.761139    69A      0.761504  
      70A      0.797715    71A      0.860923    72A      0.860999  
      73A      0.897726    74A      0.926248    75A      0.961516  
      76A      1.001704    77A      1.002118    78A      1.018489  
      79A      1.018520    80A      1.021122    81A      1.088628  
      82A      1.088636    83A      1.098049    84A      1.108073  
      85A      1.108333    86A      1.168867    87A      1.168920  
      88A      1.250032    89A      1.250389    90A      1.263517  
      91A      1.265924    92A      1.268110    93A      1.268959  
      94A      1.284411    95A      1.284519    96A      1.369946  
      97A      1.370553    98A      1.378701    99A      1.378760  
     100A      1.386570   101A      1.405695   102A      1.406101  
     103A      1.468753   104A      1.484827   105A      1.484852  
     106A      1.524480   107A      1.580466   108A      1.666498  
     109A      1.856944   110A      1.927162   111A      1.927693  
     112A      1.963130   113A      1.969157   114A      1.986571  
     115A      1.987125   116A      2.064577   117A      2.091555  
     118A      2.091694   119A      2.142684   120A      2.160515  
     121A      2.161541   122A      2.175115   123A      2.175225  
     124A      2.289609   125A      2.353420   126A      2.412317  
     127A      2.412370   128A      2.456262   129A      2.457143  
     130A      2.472080   131A      2.496168   132A      2.565766  
     133A      2.566819   134A      2.607496   135A      2.632928  
     136A      2.633280   137A      2.682083   138A      2.682187  
     139A      2.684307   140A      2.698269   141A      2.698271  
     142A      2.749813   143A      2.750283   144A      2.751273  
     145A      2.785931   146A      2.828060   147A      2.828663  
     148A      2.901599   149A      2.905118   150A      2.905295  
     151A      2.965716   152A      2.965959   153A      2.979955  
     154A      2.980075   155A      3.011802   156A      3.037544  
     157A      3.049710   158A      3.050641   159A      3.054291  
     160A      3.054761   161A      3.057690   162A      3.058051  
     163A      3.084711   164A      3.110816   165A      3.119015  
     166A      3.119264   167A      3.136306   168A      3.168848  
     169A      3.283882   170A      3.300185   171A      3.300434  
     172A      3.313047   173A      3.328498   174A      3.328509  
     175A      3.362636   176A      3.362777   177A      3.381001  
     178A      3.381032   179A      3.392716   180A      3.393322  
     181A      3.413239   182A      3.557591   183A      3.558218  
     184A      3.574236   185A      3.602041   186A      3.728889  
     187A      3.751464   188A      3.761037   189A      3.762259  
     190A      3.768309   191A      3.770073   192A      3.770425  
     193A      3.775798   194A      3.789114   195A      3.791648  
     196A      3.791779   197A      3.836651   198A      3.840740  
     199A      3.841061   200A      3.882804   201A      3.882897  
     202A      4.001704   203A      4.002221   204A      4.016714  
     205A      4.080155   206A      4.080216   207A      4.087677  
     208A      4.091946   209A      4.097188   210A      4.097607  
     211A      4.170149   212A      4.187743   213A      4.208142  
     214A      4.209148   215A      4.228764   216A      4.312792  
     217A      4.312884   218A      4.315935   219A      4.315943  
     220A      4.317341   221A      4.317954   222A      4.352403  
     223A      4.352450   224A      4.493430   225A      4.533555  
     226A      4.534388   227A      4.658325   228A      4.662729  
     229A      4.663690   230A      4.710571   231A      4.756582  
     232A      4.756597   233A      4.771141   234A      4.771576  
     235A      4.806611   236A      4.906247   237A      4.947587  
     238A      5.016402   239A      5.026887   240A      5.027551  
     241A      5.032846   242A      5.054016   243A      5.054646  
     244A      5.156970   245A      5.158067   246A      5.350307  
     247A      5.350347   248A      5.458725   249A      5.675539  
     250A      5.677300   251A      5.707012   252A      5.867595  
     253A      5.867738   254A      5.947520   255A      6.116005  
     256A      6.117104   257A      6.439575   258A      6.925198  
     259A      8.904275   260A     12.359167   261A     12.360801  
     262A     12.863042   263A     12.864253   264A     15.402532  

    Final Occupation by Irrep:
              A 
    DOCC [    21 ]

  @RKS Final Energy:  -232.33331403831227

   => Energetics <=

    Nuclear Repulsion Energy =            203.7109313602788916
    One-Electron Energy =                -714.7993059272098435
    Two-Electron Energy =                 306.9305828176451882
    DFT Exchange-Correlation Energy =     -28.1755222890264818
    Empirical Dispersion Energy =           0.0000000000000000
    VV10 Nonlocal Energy =                  0.0000000000000000
    Total Energy =                       -232.3333140383122384

Computation Completed


Properties will be evaluated at   0.000000,   0.000000,   0.000000 [a0]

Properties computed using the SCF density matrix

  Nuclear Dipole Moment: [e a0]
     X:  -147.6125      Y:   -22.9025      Z:     0.0000

  Electronic Dipole Moment: [e a0]
     X:   147.6175      Y:    22.9056      Z:    -0.0000

  Dipole Moment: [e a0]
     X:     0.0049      Y:     0.0032      Z:    -0.0000     Total:     0.0058

  Dipole Moment: [D]
     X:     0.0125      Y:     0.0080      Z:    -0.0000     Total:     0.0149


*** tstop() called on ds10 at Mon Dec 13 15:18:24 2021
Module time:
	user time   =     767.37 seconds =      12.79 minutes
	system time =       0.51 seconds =       0.01 minutes
	total time  =        128 seconds =       2.13 minutes
Total time:
	user time   =     767.37 seconds =      12.79 minutes
	system time =       0.51 seconds =       0.01 minutes
	total time  =        128 seconds =       2.13 minutes
    B3LYP Energy (using LinK algo)........................................................PASSED

    Psi4 stopped on: Monday, 13 December 2021 03:18PM
    Psi4 wall time for execution: 0:02:08.44

*** Psi4 exiting successfully. Buy a developer a beer!
