
    -----------------------------------------------------------------------
          Psi4: An Open-Source Ab Initio Electronic Structure Package
                               Psi4 1.3a2.dev69 

                         Git: Rev {nbody} da35840 dirty


    R. M. Parrish, L. A. Burns, D. G. A. Smith, A. C. Simmonett,
    A. E. DePrince III, E. G. Hohenstein, U. Bozkaya, A. Yu. Sokolov,
    R. Di Remigio, R. M. Richard, J. F. Gonthier, A. M. James,
    H. R. McAlexander, A. Kumar, M. Saitow, X. Wang, B. P. Pritchard,
    P. Verma, H. F. Schaefer III, K. Patkowski, R. A. King, E. F. Valeev,
    F. A. Evangelista, J. M. Turney, T. D. Crawford, and C. D. Sherrill,
    J. Chem. Theory Comput. 13(7) pp 3185--3197 (2017).
    (doi: 10.1021/acs.jctc.7b00174)


                         Additional Contributions by
    P. Kraus, H. Kruse, M. H. Lechner, M. C. Schieber, and R. A. Shaw

    -----------------------------------------------------------------------


    Psi4 started on: Thursday, 25 October 2018 09:30PM

    Process ID: 3361
    Host:       ds1.sherrill.chemistry.gatech.edu
    PSIDATADIR: /theoryfs2/ds/alenaizan/Gits/psi4/objdir/stage/share/psi4
    Memory:     500.0 MiB
    Threads:    6
    
  ==> Input File <==

--------------------------------------------------------------------------
#! Computation of water trimer gradients (geometry from J. Chem. Theory Comput. 11, 2126-2136 (2015))

gradients = {} #TEST

gradients['NoCP_cc-pV[D, T]Z'] = [ #TEST
[-0.00161712162231,     0.00397356392398,    -0.00055253860837], #TEST
[ 0.00504360782128,    -0.00281087786046,     0.00018612225717], #TEST
[-0.00113999839704,    -0.00042223788224,     0.00061503806174], #TEST
[-0.00249581829630,    -0.00365667862949,    -0.00062733918280], #TEST
[ 0.00107540599930,    -0.00078182703602,     0.00059159625154], #TEST
[-0.00029079787019,     0.00615533362786,     0.00024796425548], #TEST
[ 0.00437118223131,    -0.00042281908453,     0.00022012956887], #TEST
[-0.00515699830171,    -0.00322587123912,    -0.00015350319263], #TEST
[ 0.00021053843766,     0.00119141417999,    -0.00052746941092], #TEST
] #TEST

gradients['NoCP_cc-pV[T, Q]Z'] = [
[-0.00201023630443,     0.00550407890882,    -0.00214187279674], #TEST
[ 0.00611000361211,    -0.00258835873337,     0.00031106509025], #TEST
[-0.00150989323869,    -0.00139651812715,     0.00186215863679], #TEST
[-0.00363671913057,    -0.00473727051158,    -0.00208879128055], #TEST
[ 0.00203833177435,    -0.00058829293587,     0.00180529250813], #TEST
[-0.00097842272305,     0.00681648942769,     0.00052805609234], #TEST
[ 0.00583735434654,    -0.00079144214316,     0.00212363060113], #TEST
[-0.00538786265203,    -0.00421049776019,    -0.00040531063829], #TEST
[-0.00046255567916,     0.00199181187437,    -0.00199422821343], #TEST
]

gradients['CP_cc-pV[D, T]Z'] = [ #TEST
[-0.00087631220747,     0.00443341294891,    -0.00120415700496], #TEST
[ 0.00618551913333,    -0.00230619284206,    -0.00030756983706], #TEST
[-0.00147813243186,    -0.00023541181481,     0.00138410577596], #TEST
[-0.00325108815667,    -0.00319121782581,    -0.00103644856403], #TEST
[ 0.00106447324291,    -0.00118919345117,     0.00135119458673], #TEST
[-0.00132766134200,     0.00689407347032,    -0.00029327191679], #TEST
[ 0.00442501064524,    -0.00137193358290,     0.00098128668027], #TEST
[-0.00525973650781,    -0.00442822597784,     0.00056456869334], #TEST
[ 0.00051792762617,     0.00139468907558,    -0.00143970841378], #TEST
] #TEST

gradients['CP_cc-pV[T, Q]Z'] = [ #TEST
[-0.00161321194285,     0.00558317016944,    -0.00245105027017], #TEST
[ 0.00644170572211,    -0.00254954209147,     0.00012436819369], #TEST
[-0.00158560062905,    -0.00117607664279,     0.00216637216164], #TEST
[-0.00392857121648,    -0.00442407454382,    -0.00225140703442], #TEST
[ 0.00194277506382,    -0.00076528435085,     0.00214187338979], #TEST
[-0.00119929528192,     0.00714346218804,     0.00017455603551], #TEST
[ 0.00572902568196,    -0.00118211097206,     0.00238530920393], #TEST
[-0.00554945372110,    -0.00451372077558,    -0.00000397258313], #TEST
[-0.00023737367209,     0.00188417701814,    -0.00228604909771], #TEST
] #TEST

gradients['VMFC_cc-pV[D, T]Z'] = [ #TEST
[-0.00092761705447,     0.00466052851184,    -0.00130283684930], #TEST
[ 0.00668392117802,    -0.00235918080042,    -0.00019765394317], #TEST
[-0.00153729770672,    -0.00014795961576,     0.00146346144361], #TEST
[-0.00336968392591,    -0.00331330105299,    -0.00125563672558], #TEST
[ 0.00101105151634,    -0.00129448298115,     0.00141807707029], #TEST
[-0.00155035753018,     0.00732355737541,    -0.00022163039437], #TEST
[ 0.00463860264367,    -0.00139753550192,     0.00108979700882], #TEST
[-0.00556480033546,    -0.00487973460985,     0.00052242110554], #TEST
[ 0.00061618121681,     0.00140810867464,    -0.00151599871578], #TEST
]

gradients['VMFC_cc-pV[T, Q]Z'] = [ #TEST
[-0.00166572307177,     0.00565659163491,    -0.00251487040417], #TEST
[ 0.00661484005595,    -0.00263313341858,     0.00018339518836], #TEST
[-0.00160430688292,    -0.00113031247814,     0.00221483475913], #TEST
[-0.00393654673092,    -0.00448609423111,    -0.00239631943440], #TEST
[ 0.00190073642927,    -0.00080389189077,     0.00218223564743], #TEST
[-0.00121999229413,     0.00731512081389,     0.00022471558091], #TEST
[ 0.00580267354081,    -0.00113547784629,     0.00246418190880], #TEST
[-0.00570596119514,    -0.00464715080422,    -0.00002647227634], #TEST
[-0.00018571984645,     0.00186434821939,    -0.00233170096960], #TEST
] #TEST

molecule water_trimer {
O      -2.76373224  -1.24377706  -0.15444566
H      -1.12357791  -2.06227970  -0.05243799
H      -3.80792362  -2.08705525   1.06090407
--
O       2.46924614  -1.75437739  -0.17092884
H       3.76368260  -2.21425403   1.00846104
H       2.30598330   0.07098445  -0.03942473
--
O       0.29127930   3.00875625   0.20308515
H      -1.21253048   1.95820900   0.10303324
H       0.10002049   4.24958115  -1.10222079
no_reorient
no_com
symmetry c1
units bohr
}

for bsse in ['NoCP', 'CP', 'VMFC']:
    for basis in ['cc-pV[D, T]Z', 'cc-pV[T, Q]Z']:
        g = gradient('MP2/' + basis, molecule=water_trimer, bsse_type=bsse,
                                     max_nbody=2, return_total_data=True)
        core.clean()

        compare_arrays(g, gradients[bsse + '_' + basis], 6, #TEST
                       bsse + '-Corrected MP2/' + basis + ' Gradient') #TEST
--------------------------------------------------------------------------


   ===> N-Body Interaction Abacus <===
        BSSE Treatment:                     nocp
        Number of 1-body computations:     3
        Number of 2-body computations:     3

   ==> N-Body: Now computing 1-body complexes <==


       N-Body: Computing complex (1/3) with fragments (3,) in the basis of fragments (3,).


  //>>>>>>>>>>>>>>>>>>>>>>>>>>>>>>>>>>>//
  //    CBS Setup: MP2/cc-pV[D, T]Z    //
  //<<<<<<<<<<<<<<<<<<<<<<<<<<<<<<<<<<<//

    Naive listing of computations required.
             hf / cc-pvtz                  for  HF TOTAL ENERGY, GRADIENT
            mp2 / cc-pvdz                  for  MP2 TOTAL ENERGY, GRADIENT
            mp2 / cc-pvtz                  for  MP2 TOTAL ENERGY, GRADIENT
             hf / cc-pvdz                  for  HF TOTAL ENERGY, GRADIENT
             hf / cc-pvtz                  for  HF TOTAL ENERGY, GRADIENT

    Enlightened listing of computations required.
             hf / cc-pvtz                  for  HF TOTAL ENERGY, GRADIENT
            mp2 / cc-pvdz                  for  MP2 TOTAL ENERGY, GRADIENT
            mp2 / cc-pvtz                  for  MP2 TOTAL ENERGY, GRADIENT
             hf / cc-pvdz                  for  HF TOTAL ENERGY, GRADIENT

    Full listing of computations to be obtained (required and bonus).
             hf / cc-pvtz                  for  HF TOTAL ENERGY, GRADIENT
             hf / cc-pvdz                  for  HF TOTAL ENERGY, GRADIENT
            mp2 / cc-pvdz                  for  MP2 TOTAL ENERGY, GRADIENT
             hf / cc-pvtz                  for  HF TOTAL ENERGY, GRADIENT
            mp2 / cc-pvtz                  for  MP2 TOTAL ENERGY, GRADIENT
             hf / cc-pvdz                  for  HF TOTAL ENERGY, GRADIENT

  //>>>>>>>>>>>>>>>>>>>>>>>>>>>>>>>>>>>>>>>>>//
  // CBS Computation: HF / CC-PVTZ, GRADIENT //
  //<<<<<<<<<<<<<<<<<<<<<<<<<<<<<<<<<<<<<<<<<//

gradient() will perform analytic gradient computation.

*** tstart() called on ds1.sherrill.chemistry.gatech.edu
*** at Thu Oct 25 21:30:42 2018

   => Loading Basis Set <=

    Name: CC-PVTZ
    Role: ORBITAL
    Keyword: BASIS
    atoms 1   entry O          line   262 file /theoryfs2/ds/alenaizan/Gits/psi4/objdir/stage/share/psi4/basis/cc-pvtz.gbs 
    atoms 2-3 entry H          line    23 file /theoryfs2/ds/alenaizan/Gits/psi4/objdir/stage/share/psi4/basis/cc-pvtz.gbs 


         ---------------------------------------------------------
                                   SCF
            by Justin Turney, Rob Parrish, Andy Simmonett
                             and Daniel Smith
                              RHF Reference
                        6 Threads,    500 MiB Core
         ---------------------------------------------------------

  ==> Geometry <==

    Molecular point group: c1
    Full point group: C1

    Geometry (in Bohr), charge = 0, multiplicity = 1:

       Center              X                  Y                   Z               Mass       
    ------------   -----------------  -----------------  -----------------  -----------------
         O            0.291279300000     3.008756250000     0.203085150000    15.994914619560
         H           -1.212530480000     1.958209000000     0.103033240000     1.007825032070
         H            0.100020490000     4.249581150000    -1.102220790000     1.007825032070

  Running in c1 symmetry.

  Rotational constants: A =     16.29746  B =      0.35535  C =      0.35390 [cm^-1]
  Rotational constants: A = 488585.46328  B =  10652.99421  C =  10609.68719 [MHz]
  Nuclear repulsion =    9.116312738955250

  Charge       = 0
  Multiplicity = 1
  Electrons    = 10
  Nalpha       = 5
  Nbeta        = 5

  ==> Algorithm <==

  SCF Algorithm Type is DF.
  DIIS enabled.
  MOM disabled.
  Fractional occupation disabled.
  Guess Type is SAD.
  Energy threshold   = 1.00e-08
  Density threshold  = 1.00e-08
  Integral threshold = 0.00e+00

  ==> Primary Basis <==

  Basis Set: CC-PVTZ
    Blend: CC-PVTZ
    Number of shells: 22
    Number of basis function: 58
    Number of Cartesian functions: 65
    Spherical Harmonics?: true
    Max angular momentum: 3

   => Loading Basis Set <=

    Name: (CC-PVTZ AUX)
    Role: JKFIT
    Keyword: DF_BASIS_SCF
    atoms 1   entry O          line   229 file /theoryfs2/ds/alenaizan/Gits/psi4/objdir/stage/share/psi4/basis/cc-pvtz-jkfit.gbs 
    atoms 2-3 entry H          line    51 file /theoryfs2/ds/alenaizan/Gits/psi4/objdir/stage/share/psi4/basis/cc-pvtz-jkfit.gbs 

  ==> Pre-Iterations <==

   -------------------------------------------------------
    Irrep   Nso     Nmo     Nalpha   Nbeta   Ndocc  Nsocc
   -------------------------------------------------------
     A         58      58       0       0       0       0
   -------------------------------------------------------
    Total      58      58       5       5       5       0
   -------------------------------------------------------

  ==> Integral Setup <==

  DFHelper Memory: AOs need 0.004 GiB; user supplied 0.366 GiB. Using in-core AOs.

  ==> MemDFJK: Density-Fitted J/K Matrices <==

    J tasked:                   Yes
    K tasked:                   Yes
    wK tasked:                   No
    OpenMP threads:               6
    Memory [MiB]:               375
    Algorithm:                 Core
    Schwarz Cutoff:           1E-12
    Mask sparsity (%):       0.0000
    Fitting Condition:        1E-12

   => Auxiliary Basis Set <=

  Basis Set: (CC-PVTZ AUX)
    Blend: CC-PVTZ-JKFIT
    Number of shells: 45
    Number of basis function: 139
    Number of Cartesian functions: 166
    Spherical Harmonics?: true
    Max angular momentum: 4

  Minimum eigenvalue in the overlap matrix is 2.5537536249E-03.
  Using Symmetric Orthogonalization.

  SCF Guess: Superposition of Atomic Densities via on-the-fly atomic UHF.

  ==> Iterations <==

                           Total Energy        Delta E     RMS |[F,P]|

   @DF-RHF iter   0:   -75.96718128358462   -7.59672e+01   6.96710e-02 
   @DF-RHF iter   1:   -76.02653200935234   -5.93507e-02   8.28481e-03 
   @DF-RHF iter   2:   -76.04896715195451   -2.24351e-02   6.10812e-03 DIIS
   @DF-RHF iter   3:   -76.05582509832517   -6.85795e-03   9.99376e-04 DIIS
   @DF-RHF iter   4:   -76.05630893034201   -4.83832e-04   3.27637e-04 DIIS
   @DF-RHF iter   5:   -76.05640052618716   -9.15958e-05   8.81872e-05 DIIS
   @DF-RHF iter   6:   -76.05640884727525   -8.32109e-06   1.59674e-05 DIIS
   @DF-RHF iter   7:   -76.05640909789749   -2.50622e-07   2.28745e-06 DIIS
   @DF-RHF iter   8:   -76.05640910215665   -4.25916e-09   4.35390e-07 DIIS
   @DF-RHF iter   9:   -76.05640910231870   -1.62046e-10   1.28496e-07 DIIS
   @DF-RHF iter  10:   -76.05640910233276   -1.40687e-11   2.69606e-08 DIIS
   @DF-RHF iter  11:   -76.05640910233313   -3.69482e-13   4.05103e-09 DIIS
  Energy converged.


  ==> Post-Iterations <==

    Orbital Energies [Eh]
    ---------------------

    Doubly Occupied:                                                      

       1A    -20.555686     2A     -1.340898     3A     -0.707133  
       4A     -0.574356     5A     -0.503517  

    Virtual:                                                              

       6A      0.141645     7A      0.203148     8A      0.542289  
       9A      0.594423    10A      0.670703    11A      0.787562  
      12A      0.804248    13A      0.804821    14A      0.857653  
      15A      0.958385    16A      1.136708    17A      1.189931  
      18A      1.519447    19A      1.554790    20A      2.029388  
      21A      2.065213    22A      2.065598    23A      2.167149  
      24A      2.238749    25A      2.591820    26A      2.954510  
      27A      3.365164    28A      3.492098    29A      3.569682  
      30A      3.639833    31A      3.796118    32A      3.869593  
      33A      3.882295    34A      3.954252    35A      4.020814  
      36A      4.075797    37A      4.182278    38A      4.306754  
      39A      4.387476    40A      4.549800    41A      4.680469  
      42A      4.846663    43A      5.126176    44A      5.249938  
      45A      5.530299    46A      6.036953    47A      6.531010  
      48A      6.896751    49A      6.945631    50A      6.997944  
      51A      7.006545    52A      7.067826    53A      7.161903  
      54A      7.224123    55A      7.461628    56A      7.774233  
      57A      8.253433    58A     12.752551  

    Final Occupation by Irrep:
              A 
    DOCC [     5 ]

  @DF-RHF Final Energy:   -76.05640910233313

   => Energetics <=

    Nuclear Repulsion Energy =              9.1163127389552496
    One-Electron Energy =                -122.9822651005110288
    Two-Electron Energy =                  37.8095432592226501
    Total Energy =                        -76.0564091023331343

Computation Completed


Properties will be evaluated at   0.000000,   0.000000,   0.000000 [a0]

Properties computed using the SCF density matrix

  Nuclear Dipole Moment: [e a0]
     X:     1.2177      Y:    30.2778      Z:     0.6255

  Electronic Dipole Moment: [e a0]
     X:    -1.8249      Y:   -30.2071      Z:    -1.1313

  Dipole Moment: [e a0]
     X:    -0.6072      Y:     0.0707      Z:    -0.5058     Total:     0.7935

  Dipole Moment: [D]
     X:    -1.5434      Y:     0.1797      Z:    -1.2857     Total:     2.0168


*** tstop() called on ds1.sherrill.chemistry.gatech.edu at Thu Oct 25 21:30:43 2018
Module time:
	user time   =       2.81 seconds =       0.05 minutes
	system time =       0.09 seconds =       0.00 minutes
	total time  =          1 seconds =       0.02 minutes
Total time:
	user time   =       2.81 seconds =       0.05 minutes
	system time =       0.09 seconds =       0.00 minutes
	total time  =          1 seconds =       0.02 minutes

*** tstart() called on ds1.sherrill.chemistry.gatech.edu
*** at Thu Oct 25 21:30:43 2018


         ------------------------------------------------------------
                                   SCF GRAD                          
                          Rob Parrish, Justin Turney,                
                       Andy Simmonett, and Alex Sokolov              
         ------------------------------------------------------------

  ==> Geometry <==

    Molecular point group: c1
    Full point group: C1

    Geometry (in Bohr), charge = 0, multiplicity = 1:

       Center              X                  Y                   Z               Mass       
    ------------   -----------------  -----------------  -----------------  -----------------
         O            0.291279300000     3.008756250000     0.203085150000    15.994914619560
         H           -1.212530480000     1.958209000000     0.103033240000     1.007825032070
         H            0.100020490000     4.249581150000    -1.102220790000     1.007825032070

  Nuclear repulsion =    9.116312738955250

  ==> Basis Set <==

  Basis Set: CC-PVTZ
    Blend: CC-PVTZ
    Number of shells: 22
    Number of basis function: 58
    Number of Cartesian functions: 65
    Spherical Harmonics?: true
    Max angular momentum: 3

  ==> DFJKGrad: Density-Fitted SCF Gradients <==

    Gradient:                    1
    J tasked:                  Yes
    K tasked:                  Yes
    wK tasked:                  No
    OpenMP threads:              6
    Integrals threads:           6
    Memory [MiB]:              375
    Schwarz Cutoff:          0E+00
    Fitting Condition:       1E-12

   => Auxiliary Basis Set <=

  Basis Set: (CC-PVTZ AUX)
    Blend: CC-PVTZ-JKFIT
    Number of shells: 45
    Number of basis function: 139
    Number of Cartesian functions: 166
    Spherical Harmonics?: true
    Max angular momentum: 4


  -Total Gradient:
     Atom            X                  Y                   Z
    ------   -----------------  -----------------  -----------------
       1        0.028586238509     0.005830415749     0.015199476653
       2       -0.027025728226    -0.019306208705    -0.001397193417
       3       -0.001560510283     0.013475792957    -0.013802283236


*** tstop() called on ds1.sherrill.chemistry.gatech.edu at Thu Oct 25 21:30:44 2018
Module time:
	user time   =       3.64 seconds =       0.06 minutes
	system time =       0.20 seconds =       0.00 minutes
	total time  =          1 seconds =       0.02 minutes
Total time:
	user time   =       6.46 seconds =       0.11 minutes
	system time =       0.29 seconds =       0.00 minutes
	total time  =          2 seconds =       0.03 minutes

  //>>>>>>>>>>>>>>>>>>>>>>>>>>>>>>>>>>>>>>>>>>//
  // CBS Computation: MP2 / CC-PVDZ, GRADIENT //
  //<<<<<<<<<<<<<<<<<<<<<<<<<<<<<<<<<<<<<<<<<<//

gradient() will perform analytic gradient computation.

*** tstart() called on ds1.sherrill.chemistry.gatech.edu
*** at Thu Oct 25 21:30:44 2018

    SCF Algorithm Type (re)set to DF.

*** tstart() called on ds1.sherrill.chemistry.gatech.edu
*** at Thu Oct 25 21:30:44 2018

   => Loading Basis Set <=

    Name: CC-PVDZ
    Role: ORBITAL
    Keyword: BASIS
    atoms 1   entry O          line   198 file /theoryfs2/ds/alenaizan/Gits/psi4/objdir/stage/share/psi4/basis/cc-pvdz.gbs 
    atoms 2-3 entry H          line    22 file /theoryfs2/ds/alenaizan/Gits/psi4/objdir/stage/share/psi4/basis/cc-pvdz.gbs 


         ---------------------------------------------------------
                                   SCF
            by Justin Turney, Rob Parrish, Andy Simmonett
                             and Daniel Smith
                              RHF Reference
                        6 Threads,    500 MiB Core
         ---------------------------------------------------------

  ==> Geometry <==

    Molecular point group: c1
    Full point group: C1

    Geometry (in Bohr), charge = 0, multiplicity = 1:

       Center              X                  Y                   Z               Mass       
    ------------   -----------------  -----------------  -----------------  -----------------
         O            0.291279300000     3.008756250000     0.203085150000    15.994914619560
         H           -1.212530480000     1.958209000000     0.103033240000     1.007825032070
         H            0.100020490000     4.249581150000    -1.102220790000     1.007825032070

  Running in c1 symmetry.

  Rotational constants: A =     16.29746  B =      0.35535  C =      0.35390 [cm^-1]
  Rotational constants: A = 488585.46328  B =  10652.99421  C =  10609.68719 [MHz]
  Nuclear repulsion =    9.116312738955250

  Charge       = 0
  Multiplicity = 1
  Electrons    = 10
  Nalpha       = 5
  Nbeta        = 5

  ==> Algorithm <==

  SCF Algorithm Type is DF.
  DIIS enabled.
  MOM disabled.
  Fractional occupation disabled.
  Guess Type is SAD.
  Energy threshold   = 1.00e-10
  Density threshold  = 1.00e-10
  Integral threshold = 0.00e+00

  ==> Primary Basis <==

  Basis Set: CC-PVDZ
    Blend: CC-PVDZ
    Number of shells: 12
    Number of basis function: 24
    Number of Cartesian functions: 25
    Spherical Harmonics?: true
    Max angular momentum: 2

   => Loading Basis Set <=

    Name: (CC-PVDZ AUX)
    Role: JKFIT
    Keyword: DF_BASIS_SCF
    atoms 1   entry O          line   221 file /theoryfs2/ds/alenaizan/Gits/psi4/objdir/stage/share/psi4/basis/cc-pvdz-jkfit.gbs 
    atoms 2-3 entry H          line    51 file /theoryfs2/ds/alenaizan/Gits/psi4/objdir/stage/share/psi4/basis/cc-pvdz-jkfit.gbs 

  ==> Pre-Iterations <==

   -------------------------------------------------------
    Irrep   Nso     Nmo     Nalpha   Nbeta   Ndocc  Nsocc
   -------------------------------------------------------
     A         24      24       0       0       0       0
   -------------------------------------------------------
    Total      24      24       5       5       5       0
   -------------------------------------------------------

  ==> Integral Setup <==

  DFHelper Memory: AOs need 0.001 GiB; user supplied 0.366 GiB. Using in-core AOs.

  ==> MemDFJK: Density-Fitted J/K Matrices <==

    J tasked:                   Yes
    K tasked:                   Yes
    wK tasked:                   No
    OpenMP threads:               6
    Memory [MiB]:               375
    Algorithm:                 Core
    Schwarz Cutoff:           1E-12
    Mask sparsity (%):       0.0000
    Fitting Condition:        1E-12

   => Auxiliary Basis Set <=

  Basis Set: (CC-PVDZ AUX)
    Blend: CC-PVDZ-JKFIT
    Number of shells: 42
    Number of basis function: 116
    Number of Cartesian functions: 131
    Spherical Harmonics?: true
    Max angular momentum: 3

  Minimum eigenvalue in the overlap matrix is 3.4891768475E-02.
  Using Symmetric Orthogonalization.

  SCF Guess: Superposition of Atomic Densities via on-the-fly atomic UHF.

  ==> Iterations <==

                           Total Energy        Delta E     RMS |[F,P]|

   @DF-RHF iter   0:   -75.90737322597666   -7.59074e+01   1.37075e-01 
   @DF-RHF iter   1:   -76.00277589072877   -9.54027e-02   1.71792e-02 
   @DF-RHF iter   2:   -76.02110071762259   -1.83248e-02   1.15401e-02 DIIS
   @DF-RHF iter   3:   -76.02577702955521   -4.67631e-03   2.03763e-03 DIIS
   @DF-RHF iter   4:   -76.02607719025393   -3.00161e-04   5.72564e-04 DIIS
   @DF-RHF iter   5:   -76.02612369465876   -4.65044e-05   8.96665e-05 DIIS
   @DF-RHF iter   6:   -76.02612780050848   -4.10585e-06   2.33311e-05 DIIS
   @DF-RHF iter   7:   -76.02612788062046   -8.01120e-08   4.14368e-06 DIIS
   @DF-RHF iter   8:   -76.02612788313189   -2.51143e-09   8.90282e-07 DIIS
   @DF-RHF iter   9:   -76.02612788325447   -1.22583e-10   1.44852e-07 DIIS
   @DF-RHF iter  10:   -76.02612788325708   -2.60059e-12   3.58613e-08 DIIS
   @DF-RHF iter  11:   -76.02612788325730   -2.27374e-13   7.46149e-09 DIIS
   @DF-RHF iter  12:   -76.02612788325735   -4.26326e-14   1.17292e-09 DIIS
   @DF-RHF iter  13:   -76.02612788325726    8.52651e-14   2.56699e-10 DIIS
   @DF-RHF iter  14:   -76.02612788325722    4.26326e-14   8.08400e-11 DIIS
  Energy converged.


  ==> Post-Iterations <==

    Orbital Energies [Eh]
    ---------------------

    Doubly Occupied:                                                      

       1A    -20.551319     2A     -1.331974     3A     -0.696737  
       4A     -0.563191     5A     -0.492235  

    Virtual:                                                              

       6A      0.184346     7A      0.254966     8A      0.786217  
       9A      0.843364    10A      1.163515    11A      1.200538  
      12A      1.253016    13A      1.454602    14A      1.471747  
      15A      1.678781    16A      1.871332    17A      1.921443  
      18A      2.429894    19A      2.476142    20A      3.273672  
      21A      3.335866    22A      3.496017    23A      3.865142  
      24A      4.133655  

    Final Occupation by Irrep:
              A 
    DOCC [     5 ]

  @DF-RHF Final Energy:   -76.02612788325722

   => Energetics <=

    Nuclear Repulsion Energy =              9.1163127389552496
    One-Electron Energy =                -123.0139675695982930
    Two-Electron Energy =                  37.8715269473858314
    Total Energy =                        -76.0261278832572174

Computation Completed


Properties will be evaluated at   0.000000,   0.000000,   0.000000 [a0]

Properties computed using the SCF density matrix

  Nuclear Dipole Moment: [e a0]
     X:     1.2177      Y:    30.2778      Z:     0.6255

  Electronic Dipole Moment: [e a0]
     X:    -1.8348      Y:   -30.2056      Z:    -1.1399

  Dipole Moment: [e a0]
     X:    -0.6171      Y:     0.0722      Z:    -0.5144     Total:     0.8066

  Dipole Moment: [D]
     X:    -1.5685      Y:     0.1836      Z:    -1.3075     Total:     2.0502


*** tstop() called on ds1.sherrill.chemistry.gatech.edu at Thu Oct 25 21:30:44 2018
Module time:
	user time   =       3.11 seconds =       0.05 minutes
	system time =       0.06 seconds =       0.00 minutes
	total time  =          0 seconds =       0.00 minutes
Total time:
	user time   =       9.60 seconds =       0.16 minutes
	system time =       0.35 seconds =       0.01 minutes
	total time  =          2 seconds =       0.03 minutes

  //>>>>>>>>>>>>>>>>>>>>>>>>>>>>>>>>>>>//
  //               DFMP2               //
  //<<<<<<<<<<<<<<<<<<<<<<<<<<<<<<<<<<<//

   => Loading Basis Set <=

    Name: (CC-PVDZ AUX)
    Role: RIFIT
    Keyword: DF_BASIS_MP2
    atoms 1   entry O          line   235 file /theoryfs2/ds/alenaizan/Gits/psi4/objdir/stage/share/psi4/basis/cc-pvdz-ri.gbs 
    atoms 2-3 entry H          line    19 file /theoryfs2/ds/alenaizan/Gits/psi4/objdir/stage/share/psi4/basis/cc-pvdz-ri.gbs 

	 --------------------------------------------------------
	                          DF-MP2                         
	      2nd-Order Density-Fitted Moller-Plesset Theory     
	              RMP2 Wavefunction,   6 Threads             
	                                                         
	        Rob Parrish, Justin Turney, Andy Simmonett,      
	           Ed Hohenstein, and C. David Sherrill          
	 --------------------------------------------------------

   => Auxiliary Basis Set <=

  Basis Set: (CC-PVDZ AUX)
    Blend: CC-PVDZ-RI
    Number of shells: 30
    Number of basis function: 84
    Number of Cartesian functions: 96
    Spherical Harmonics?: true
    Max angular momentum: 3

	 --------------------------------------------------------
	                 NBF =    24, NAUX =    84
	 --------------------------------------------------------
	   CLASS    FOCC     OCC    AOCC    AVIR     VIR    FVIR
	   PAIRS       0       5       5      19      19       0
	 --------------------------------------------------------

  DFHelper Memory: AOs need 0.001 GiB; user supplied 0.366 GiB. Using in-core AOs.


         ------------------------------------------------------------
                                     CPHF                           
                                  Rob Parrish                       
         ------------------------------------------------------------

  ==> Geometry <==

    Molecular point group: c1
    Full point group: C1

    Geometry (in Bohr), charge = 0, multiplicity = 1:

       Center              X                  Y                   Z               Mass       
    ------------   -----------------  -----------------  -----------------  -----------------
         O            0.291279300000     3.008756250000     0.203085150000    15.994914619560
         H           -1.212530480000     1.958209000000     0.103033240000     1.007825032070
         H            0.100020490000     4.249581150000    -1.102220790000     1.007825032070

  Nuclear repulsion =    9.116312738955250
  Reference energy  =  -76.026127883257217

  ==> Basis Set <==

  Basis Set: CC-PVDZ
    Blend: CC-PVDZ
    Number of shells: 12
    Number of basis function: 24
    Number of Cartesian functions: 25
    Spherical Harmonics?: true
    Max angular momentum: 2

  ==> CGRSolver (by Rob Parrish) <==

   Number of roots    =         1
   Preconditioning    =    JACOBI
   Convergence cutoff =     1E-06
   Maximum iterations =       100

  ==> CPHFRHamiltonian (by Rob Parrish) <== 

  ==> MemDFJK: Density-Fitted J/K Matrices <==

    J tasked:                   Yes
    K tasked:                   Yes
    wK tasked:                   No
    OpenMP threads:               6
    Memory [MiB]:               375
    Algorithm:                 Core
    Schwarz Cutoff:           1E-12
    Mask sparsity (%):       0.0000
    Fitting Condition:        1E-12

   => Auxiliary Basis Set <=

  Basis Set: (CC-PVDZ AUX)
    Blend: CC-PVDZ-JKFIT
    Number of shells: 42
    Number of basis function: 116
    Number of Cartesian functions: 131
    Spherical Harmonics?: true
    Max angular momentum: 3

  ==> CPHF Iterations <==

  => Iterations <=

             Iter  Converged  Remaining    Residual
  CGR           1          0          1   2.485E-02
  CGR           2          0          1   1.068E-02
  CGR           3          0          1   1.767E-03
  CGR           4          0          1   3.454E-04
  CGR           5          0          1   8.004E-05
  CGR           6          0          1   1.158E-05
  CGR           7          0          1   1.416E-06
  CGR           8          1          0   1.850E-07

    CGRSolver converged.

  ==> DFCorrGrad: Density-Fitted Correlated Gradients <==

    OpenMP threads:              6
    Integrals threads:           6
    Memory [GiB]:            0.366
    Schwarz Cutoff:          0E+00
    Fitting Condition:       1E-12

   => Auxiliary Basis Set <=

  Basis Set: (CC-PVDZ AUX)
    Blend: CC-PVDZ-JKFIT
    Number of shells: 42
    Number of basis function: 116
    Number of Cartesian functions: 131
    Spherical Harmonics?: true
    Max angular momentum: 3

	-----------------------------------------------------------
	 ==================> DF-MP2 Energies <==================== 
	-----------------------------------------------------------
	 Reference Energy          =     -76.0261278832572174 [Eh]
	 Singles Energy            =      -0.0000000000000000 [Eh]
	 Same-Spin Energy          =      -0.0516299194128821 [Eh]
	 Opposite-Spin Energy      =      -0.1527652915144865 [Eh]
	 Correlation Energy        =      -0.2043952109273685 [Eh]
	 Total Energy              =     -76.2305230941845906 [Eh]
	-----------------------------------------------------------
	 ================> DF-SCS-MP2 Energies <================== 
	-----------------------------------------------------------
	 SCS Same-Spin Scale       =       0.3333333333333333 [-]
	 SCS Opposite-Spin Scale   =       1.2000000000000000 [-]
	 SCS Same-Spin Energy      =      -0.0172099731376274 [Eh]
	 SCS Opposite-Spin Energy  =      -0.1833183498173837 [Eh]
	 SCS Correlation Energy    =      -0.2005283229550111 [Eh]
	 SCS Total Energy          =     -76.2266562062122262 [Eh]
	-----------------------------------------------------------


  -Total Gradient:
     Atom            X                  Y                   Z
    ------   -----------------  -----------------  -----------------
       1        0.000961328486     0.009613716722    -0.008345627396
       2       -0.006382138152    -0.008831889849     0.003688310439
       3        0.005420809667    -0.000781826871     0.004657316958


*** tstop() called on ds1.sherrill.chemistry.gatech.edu at Thu Oct 25 21:30:45 2018
Module time:
	user time   =       8.42 seconds =       0.14 minutes
	system time =       0.26 seconds =       0.00 minutes
	total time  =          1 seconds =       0.02 minutes
Total time:
	user time   =      14.91 seconds =       0.25 minutes
	system time =       0.55 seconds =       0.01 minutes
	total time  =          3 seconds =       0.05 minutes

  //>>>>>>>>>>>>>>>>>>>>>>>>>>>>>>>>>>>>>>>>>>//
  // CBS Computation: MP2 / CC-PVTZ, GRADIENT //
  //<<<<<<<<<<<<<<<<<<<<<<<<<<<<<<<<<<<<<<<<<<//

gradient() will perform analytic gradient computation.

*** tstart() called on ds1.sherrill.chemistry.gatech.edu
*** at Thu Oct 25 21:30:45 2018

    SCF Algorithm Type (re)set to DF.

*** tstart() called on ds1.sherrill.chemistry.gatech.edu
*** at Thu Oct 25 21:30:45 2018

   => Loading Basis Set <=

    Name: CC-PVTZ
    Role: ORBITAL
    Keyword: BASIS
    atoms 1   entry O          line   262 file /theoryfs2/ds/alenaizan/Gits/psi4/objdir/stage/share/psi4/basis/cc-pvtz.gbs 
    atoms 2-3 entry H          line    23 file /theoryfs2/ds/alenaizan/Gits/psi4/objdir/stage/share/psi4/basis/cc-pvtz.gbs 


         ---------------------------------------------------------
                                   SCF
            by Justin Turney, Rob Parrish, Andy Simmonett
                             and Daniel Smith
                              RHF Reference
                        6 Threads,    500 MiB Core
         ---------------------------------------------------------

  ==> Geometry <==

    Molecular point group: c1
    Full point group: C1

    Geometry (in Bohr), charge = 0, multiplicity = 1:

       Center              X                  Y                   Z               Mass       
    ------------   -----------------  -----------------  -----------------  -----------------
         O            0.291279300000     3.008756250000     0.203085150000    15.994914619560
         H           -1.212530480000     1.958209000000     0.103033240000     1.007825032070
         H            0.100020490000     4.249581150000    -1.102220790000     1.007825032070

  Running in c1 symmetry.

  Rotational constants: A =     16.29746  B =      0.35535  C =      0.35390 [cm^-1]
  Rotational constants: A = 488585.46328  B =  10652.99421  C =  10609.68719 [MHz]
  Nuclear repulsion =    9.116312738955250

  Charge       = 0
  Multiplicity = 1
  Electrons    = 10
  Nalpha       = 5
  Nbeta        = 5

  ==> Algorithm <==

  SCF Algorithm Type is DF.
  DIIS enabled.
  MOM disabled.
  Fractional occupation disabled.
  Guess Type is SAD.
  Energy threshold   = 1.00e-10
  Density threshold  = 1.00e-10
  Integral threshold = 0.00e+00

  ==> Primary Basis <==

  Basis Set: CC-PVTZ
    Blend: CC-PVTZ
    Number of shells: 22
    Number of basis function: 58
    Number of Cartesian functions: 65
    Spherical Harmonics?: true
    Max angular momentum: 3

   => Loading Basis Set <=

    Name: (CC-PVTZ AUX)
    Role: JKFIT
    Keyword: DF_BASIS_SCF
    atoms 1   entry O          line   229 file /theoryfs2/ds/alenaizan/Gits/psi4/objdir/stage/share/psi4/basis/cc-pvtz-jkfit.gbs 
    atoms 2-3 entry H          line    51 file /theoryfs2/ds/alenaizan/Gits/psi4/objdir/stage/share/psi4/basis/cc-pvtz-jkfit.gbs 

  ==> Pre-Iterations <==

   -------------------------------------------------------
    Irrep   Nso     Nmo     Nalpha   Nbeta   Ndocc  Nsocc
   -------------------------------------------------------
     A         58      58       0       0       0       0
   -------------------------------------------------------
    Total      58      58       5       5       5       0
   -------------------------------------------------------

  ==> Integral Setup <==

  DFHelper Memory: AOs need 0.004 GiB; user supplied 0.366 GiB. Using in-core AOs.

  ==> MemDFJK: Density-Fitted J/K Matrices <==

    J tasked:                   Yes
    K tasked:                   Yes
    wK tasked:                   No
    OpenMP threads:               6
    Memory [MiB]:               375
    Algorithm:                 Core
    Schwarz Cutoff:           1E-12
    Mask sparsity (%):       0.0000
    Fitting Condition:        1E-12

   => Auxiliary Basis Set <=

  Basis Set: (CC-PVTZ AUX)
    Blend: CC-PVTZ-JKFIT
    Number of shells: 45
    Number of basis function: 139
    Number of Cartesian functions: 166
    Spherical Harmonics?: true
    Max angular momentum: 4

  Minimum eigenvalue in the overlap matrix is 2.5537536249E-03.
  Using Symmetric Orthogonalization.

  SCF Guess: Superposition of Atomic Densities via on-the-fly atomic UHF.

  ==> Iterations <==

                           Total Energy        Delta E     RMS |[F,P]|

   @DF-RHF iter   0:   -75.96718128358462   -7.59672e+01   6.96710e-02 
   @DF-RHF iter   1:   -76.02653200935245   -5.93507e-02   8.78737e-03 
   @DF-RHF iter   2:   -76.04896715195443   -2.24351e-02   6.10812e-03 DIIS
   @DF-RHF iter   3:   -76.05582509832507   -6.85795e-03   8.76511e-04 DIIS
   @DF-RHF iter   4:   -76.05630893034200   -4.83832e-04   3.27637e-04 DIIS
   @DF-RHF iter   5:   -76.05640052618698   -9.15958e-05   9.29574e-05 DIIS
   @DF-RHF iter   6:   -76.05640884727526   -8.32109e-06   1.15840e-05 DIIS
   @DF-RHF iter   7:   -76.05640909789760   -2.50622e-07   2.28745e-06 DIIS
   @DF-RHF iter   8:   -76.05640910215658   -4.25898e-09   4.35390e-07 DIIS
   @DF-RHF iter   9:   -76.05640910231868   -1.62103e-10   1.35446e-07 DIIS
   @DF-RHF iter  10:   -76.05640910233274   -1.40545e-11   2.43868e-08 DIIS
   @DF-RHF iter  11:   -76.05640910233321   -4.68958e-13   5.72903e-09 DIIS
   @DF-RHF iter  12:   -76.05640910233339   -1.84741e-13   1.35415e-09 DIIS
   @DF-RHF iter  13:   -76.05640910233319    1.98952e-13   3.07142e-10 DIIS
   @DF-RHF iter  14:   -76.05640910233319    0.00000e+00   6.47810e-11 DIIS
  Energy converged.


  ==> Post-Iterations <==

    Orbital Energies [Eh]
    ---------------------

    Doubly Occupied:                                                      

       1A    -20.555686     2A     -1.340898     3A     -0.707133  
       4A     -0.574356     5A     -0.503517  

    Virtual:                                                              

       6A      0.141645     7A      0.203148     8A      0.542289  
       9A      0.594423    10A      0.670703    11A      0.787562  
      12A      0.804248    13A      0.804821    14A      0.857653  
      15A      0.958385    16A      1.136708    17A      1.189931  
      18A      1.519447    19A      1.554790    20A      2.029388  
      21A      2.065213    22A      2.065598    23A      2.167149  
      24A      2.238749    25A      2.591820    26A      2.954510  
      27A      3.365164    28A      3.492098    29A      3.569682  
      30A      3.639833    31A      3.796118    32A      3.869593  
      33A      3.882295    34A      3.954252    35A      4.020814  
      36A      4.075797    37A      4.182278    38A      4.306754  
      39A      4.387476    40A      4.549800    41A      4.680469  
      42A      4.846663    43A      5.126176    44A      5.249938  
      45A      5.530299    46A      6.036953    47A      6.531010  
      48A      6.896751    49A      6.945631    50A      6.997944  
      51A      7.006545    52A      7.067826    53A      7.161903  
      54A      7.224123    55A      7.461628    56A      7.774233  
      57A      8.253433    58A     12.752551  

    Final Occupation by Irrep:
              A 
    DOCC [     5 ]

  @DF-RHF Final Energy:   -76.05640910233319

   => Energetics <=

    Nuclear Repulsion Energy =              9.1163127389552496
    One-Electron Energy =                -122.9822650420026946
    Two-Electron Energy =                  37.8095432007142591
    Total Energy =                        -76.0564091023331912

Computation Completed


Properties will be evaluated at   0.000000,   0.000000,   0.000000 [a0]

Properties computed using the SCF density matrix

  Nuclear Dipole Moment: [e a0]
     X:     1.2177      Y:    30.2778      Z:     0.6255

  Electronic Dipole Moment: [e a0]
     X:    -1.8249      Y:   -30.2071      Z:    -1.1313

  Dipole Moment: [e a0]
     X:    -0.6072      Y:     0.0707      Z:    -0.5058     Total:     0.7935

  Dipole Moment: [D]
     X:    -1.5434      Y:     0.1797      Z:    -1.2857     Total:     2.0168


*** tstop() called on ds1.sherrill.chemistry.gatech.edu at Thu Oct 25 21:30:46 2018
Module time:
	user time   =       3.45 seconds =       0.06 minutes
	system time =       0.12 seconds =       0.00 minutes
	total time  =          1 seconds =       0.02 minutes
Total time:
	user time   =      18.39 seconds =       0.31 minutes
	system time =       0.67 seconds =       0.01 minutes
	total time  =          4 seconds =       0.07 minutes

  //>>>>>>>>>>>>>>>>>>>>>>>>>>>>>>>>>>>//
  //               DFMP2               //
  //<<<<<<<<<<<<<<<<<<<<<<<<<<<<<<<<<<<//

   => Loading Basis Set <=

    Name: (CC-PVTZ AUX)
    Role: RIFIT
    Keyword: DF_BASIS_MP2
    atoms 1   entry O          line   305 file /theoryfs2/ds/alenaizan/Gits/psi4/objdir/stage/share/psi4/basis/cc-pvtz-ri.gbs 
    atoms 2-3 entry H          line    19 file /theoryfs2/ds/alenaizan/Gits/psi4/objdir/stage/share/psi4/basis/cc-pvtz-ri.gbs 

	 --------------------------------------------------------
	                          DF-MP2                         
	      2nd-Order Density-Fitted Moller-Plesset Theory     
	              RMP2 Wavefunction,   6 Threads             
	                                                         
	        Rob Parrish, Justin Turney, Andy Simmonett,      
	           Ed Hohenstein, and C. David Sherrill          
	 --------------------------------------------------------

   => Auxiliary Basis Set <=

  Basis Set: (CC-PVTZ AUX)
    Blend: CC-PVTZ-RI
    Number of shells: 43
    Number of basis function: 141
    Number of Cartesian functions: 171
    Spherical Harmonics?: true
    Max angular momentum: 4

	 --------------------------------------------------------
	                 NBF =    58, NAUX =   141
	 --------------------------------------------------------
	   CLASS    FOCC     OCC    AOCC    AVIR     VIR    FVIR
	   PAIRS       0       5       5      53      53       0
	 --------------------------------------------------------

  DFHelper Memory: AOs need 0.004 GiB; user supplied 0.366 GiB. Using in-core AOs.


         ------------------------------------------------------------
                                     CPHF                           
                                  Rob Parrish                       
         ------------------------------------------------------------

  ==> Geometry <==

    Molecular point group: c1
    Full point group: C1

    Geometry (in Bohr), charge = 0, multiplicity = 1:

       Center              X                  Y                   Z               Mass       
    ------------   -----------------  -----------------  -----------------  -----------------
         O            0.291279300000     3.008756250000     0.203085150000    15.994914619560
         H           -1.212530480000     1.958209000000     0.103033240000     1.007825032070
         H            0.100020490000     4.249581150000    -1.102220790000     1.007825032070

  Nuclear repulsion =    9.116312738955250
  Reference energy  =  -76.056409102333191

  ==> Basis Set <==

  Basis Set: CC-PVTZ
    Blend: CC-PVTZ
    Number of shells: 22
    Number of basis function: 58
    Number of Cartesian functions: 65
    Spherical Harmonics?: true
    Max angular momentum: 3

  ==> CGRSolver (by Rob Parrish) <==

   Number of roots    =         1
   Preconditioning    =    JACOBI
   Convergence cutoff =     1E-06
   Maximum iterations =       100

  ==> CPHFRHamiltonian (by Rob Parrish) <== 

  ==> MemDFJK: Density-Fitted J/K Matrices <==

    J tasked:                   Yes
    K tasked:                   Yes
    wK tasked:                   No
    OpenMP threads:               6
    Memory [MiB]:               375
    Algorithm:                 Core
    Schwarz Cutoff:           1E-12
    Mask sparsity (%):       0.0000
    Fitting Condition:        1E-12

   => Auxiliary Basis Set <=

  Basis Set: (CC-PVTZ AUX)
    Blend: CC-PVTZ-JKFIT
    Number of shells: 45
    Number of basis function: 139
    Number of Cartesian functions: 166
    Spherical Harmonics?: true
    Max angular momentum: 4

  ==> CPHF Iterations <==

  => Iterations <=

             Iter  Converged  Remaining    Residual
  CGR           1          0          1   6.050E-02
  CGR           2          0          1   1.562E-02
  CGR           3          0          1   2.148E-03
  CGR           4          0          1   4.199E-04
  CGR           5          0          1   5.344E-05
  CGR           6          0          1   9.856E-06
  CGR           7          0          1   2.019E-06
  CGR           8          1          0   2.643E-07

    CGRSolver converged.

  ==> DFCorrGrad: Density-Fitted Correlated Gradients <==

    OpenMP threads:              6
    Integrals threads:           6
    Memory [GiB]:            0.366
    Schwarz Cutoff:          0E+00
    Fitting Condition:       1E-12

   => Auxiliary Basis Set <=

  Basis Set: (CC-PVTZ AUX)
    Blend: CC-PVTZ-JKFIT
    Number of shells: 45
    Number of basis function: 139
    Number of Cartesian functions: 166
    Spherical Harmonics?: true
    Max angular momentum: 4

	-----------------------------------------------------------
	 ==================> DF-MP2 Energies <==================== 
	-----------------------------------------------------------
	 Reference Energy          =     -76.0564091023331912 [Eh]
	 Singles Energy            =      -0.0000000000000000 [Eh]
	 Same-Spin Energy          =      -0.0666661968699843 [Eh]
	 Opposite-Spin Energy      =      -0.2088092097494478 [Eh]
	 Correlation Energy        =      -0.2754754066194320 [Eh]
	 Total Energy              =     -76.3318845089526263 [Eh]
	-----------------------------------------------------------
	 ================> DF-SCS-MP2 Energies <================== 
	-----------------------------------------------------------
	 SCS Same-Spin Scale       =       0.3333333333333333 [-]
	 SCS Opposite-Spin Scale   =       1.2000000000000000 [-]
	 SCS Same-Spin Energy      =      -0.0222220656233281 [Eh]
	 SCS Opposite-Spin Energy  =      -0.2505710516993374 [Eh]
	 SCS Correlation Energy    =      -0.2727931173226654 [Eh]
	 SCS Total Energy          =     -76.3292022196558548 [Eh]
	-----------------------------------------------------------


  -Total Gradient:
     Atom            X                  Y                   Z
    ------   -----------------  -----------------  -----------------
       1        0.009032053164     0.008263704757    -0.001236703247
       2       -0.011713389706    -0.010705893198     0.001593450881
       3        0.002681336542     0.002442188442    -0.000356747634


*** tstop() called on ds1.sherrill.chemistry.gatech.edu at Thu Oct 25 21:30:47 2018
Module time:
	user time   =      11.08 seconds =       0.18 minutes
	system time =       0.40 seconds =       0.01 minutes
	total time  =          2 seconds =       0.03 minutes
Total time:
	user time   =      26.02 seconds =       0.43 minutes
	system time =       0.95 seconds =       0.02 minutes
	total time  =          5 seconds =       0.08 minutes

  //>>>>>>>>>>>>>>>>>>>>>>>>>>>>>>>>>>>>>>>>>//
  // CBS Computation: HF / CC-PVDZ, GRADIENT //
  //<<<<<<<<<<<<<<<<<<<<<<<<<<<<<<<<<<<<<<<<<//

gradient() will perform analytic gradient computation.

*** tstart() called on ds1.sherrill.chemistry.gatech.edu
*** at Thu Oct 25 21:30:47 2018

   => Loading Basis Set <=

    Name: CC-PVDZ
    Role: ORBITAL
    Keyword: BASIS
    atoms 1   entry O          line   198 file /theoryfs2/ds/alenaizan/Gits/psi4/objdir/stage/share/psi4/basis/cc-pvdz.gbs 
    atoms 2-3 entry H          line    22 file /theoryfs2/ds/alenaizan/Gits/psi4/objdir/stage/share/psi4/basis/cc-pvdz.gbs 


         ---------------------------------------------------------
                                   SCF
            by Justin Turney, Rob Parrish, Andy Simmonett
                             and Daniel Smith
                              RHF Reference
                        6 Threads,    500 MiB Core
         ---------------------------------------------------------

  ==> Geometry <==

    Molecular point group: c1
    Full point group: C1

    Geometry (in Bohr), charge = 0, multiplicity = 1:

       Center              X                  Y                   Z               Mass       
    ------------   -----------------  -----------------  -----------------  -----------------
         O            0.291279300000     3.008756250000     0.203085150000    15.994914619560
         H           -1.212530480000     1.958209000000     0.103033240000     1.007825032070
         H            0.100020490000     4.249581150000    -1.102220790000     1.007825032070

  Running in c1 symmetry.

  Rotational constants: A =     16.29746  B =      0.35535  C =      0.35390 [cm^-1]
  Rotational constants: A = 488585.46328  B =  10652.99421  C =  10609.68719 [MHz]
  Nuclear repulsion =    9.116312738955250

  Charge       = 0
  Multiplicity = 1
  Electrons    = 10
  Nalpha       = 5
  Nbeta        = 5

  ==> Algorithm <==

  SCF Algorithm Type is DF.
  DIIS enabled.
  MOM disabled.
  Fractional occupation disabled.
  Guess Type is SAD.
  Energy threshold   = 1.00e-08
  Density threshold  = 1.00e-08
  Integral threshold = 0.00e+00

  ==> Primary Basis <==

  Basis Set: CC-PVDZ
    Blend: CC-PVDZ
    Number of shells: 12
    Number of basis function: 24
    Number of Cartesian functions: 25
    Spherical Harmonics?: true
    Max angular momentum: 2

   => Loading Basis Set <=

    Name: (CC-PVDZ AUX)
    Role: JKFIT
    Keyword: DF_BASIS_SCF
    atoms 1   entry O          line   221 file /theoryfs2/ds/alenaizan/Gits/psi4/objdir/stage/share/psi4/basis/cc-pvdz-jkfit.gbs 
    atoms 2-3 entry H          line    51 file /theoryfs2/ds/alenaizan/Gits/psi4/objdir/stage/share/psi4/basis/cc-pvdz-jkfit.gbs 

  ==> Pre-Iterations <==

   -------------------------------------------------------
    Irrep   Nso     Nmo     Nalpha   Nbeta   Ndocc  Nsocc
   -------------------------------------------------------
     A         24      24       0       0       0       0
   -------------------------------------------------------
    Total      24      24       5       5       5       0
   -------------------------------------------------------

  ==> Integral Setup <==

  DFHelper Memory: AOs need 0.001 GiB; user supplied 0.366 GiB. Using in-core AOs.

  ==> MemDFJK: Density-Fitted J/K Matrices <==

    J tasked:                   Yes
    K tasked:                   Yes
    wK tasked:                   No
    OpenMP threads:               6
    Memory [MiB]:               375
    Algorithm:                 Core
    Schwarz Cutoff:           1E-12
    Mask sparsity (%):       0.0000
    Fitting Condition:        1E-12

   => Auxiliary Basis Set <=

  Basis Set: (CC-PVDZ AUX)
    Blend: CC-PVDZ-JKFIT
    Number of shells: 42
    Number of basis function: 116
    Number of Cartesian functions: 131
    Spherical Harmonics?: true
    Max angular momentum: 3

  Minimum eigenvalue in the overlap matrix is 3.4891768475E-02.
  Using Symmetric Orthogonalization.

  SCF Guess: Superposition of Atomic Densities via on-the-fly atomic UHF.

  ==> Iterations <==

                           Total Energy        Delta E     RMS |[F,P]|

   @DF-RHF iter   0:   -75.90737322597670   -7.59074e+01   1.18711e-01 
   @DF-RHF iter   1:   -76.00277589072881   -9.54027e-02   1.71792e-02 
   @DF-RHF iter   2:   -76.02110071762257   -1.83248e-02   1.15401e-02 DIIS
   @DF-RHF iter   3:   -76.02577702955526   -4.67631e-03   1.44082e-03 DIIS
   @DF-RHF iter   4:   -76.02607719025394   -3.00161e-04   5.72564e-04 DIIS
   @DF-RHF iter   5:   -76.02612369465879   -4.65044e-05   1.17401e-04 DIIS
   @DF-RHF iter   6:   -76.02612780050849   -4.10585e-06   2.33311e-05 DIIS
   @DF-RHF iter   7:   -76.02612788062048   -8.01120e-08   4.14368e-06 DIIS
   @DF-RHF iter   8:   -76.02612788313186   -2.51138e-09   6.29524e-07 DIIS
   @DF-RHF iter   9:   -76.02612788325452   -1.22654e-10   1.44852e-07 DIIS
   @DF-RHF iter  10:   -76.02612788325709   -2.57216e-12   2.53578e-08 DIIS
   @DF-RHF iter  11:   -76.02612788325730   -2.13163e-13   7.46149e-09 DIIS
  Energy converged.


  ==> Post-Iterations <==

    Orbital Energies [Eh]
    ---------------------

    Doubly Occupied:                                                      

       1A    -20.551319     2A     -1.331974     3A     -0.696737  
       4A     -0.563191     5A     -0.492235  

    Virtual:                                                              

       6A      0.184346     7A      0.254966     8A      0.786217  
       9A      0.843364    10A      1.163515    11A      1.200538  
      12A      1.253016    13A      1.454602    14A      1.471747  
      15A      1.678781    16A      1.871332    17A      1.921443  
      18A      2.429894    19A      2.476142    20A      3.273672  
      21A      3.335866    22A      3.496017    23A      3.865142  
      24A      4.133655  

    Final Occupation by Irrep:
              A 
    DOCC [     5 ]

  @DF-RHF Final Energy:   -76.02612788325730

   => Energetics <=

    Nuclear Repulsion Energy =              9.1163127389552496
    One-Electron Energy =                -123.0139676233928157
    Two-Electron Energy =                  37.8715270011802687
    Total Energy =                        -76.0261278832573026

Computation Completed


Properties will be evaluated at   0.000000,   0.000000,   0.000000 [a0]

Properties computed using the SCF density matrix

  Nuclear Dipole Moment: [e a0]
     X:     1.2177      Y:    30.2778      Z:     0.6255

  Electronic Dipole Moment: [e a0]
     X:    -1.8348      Y:   -30.2056      Z:    -1.1399

  Dipole Moment: [e a0]
     X:    -0.6171      Y:     0.0722      Z:    -0.5144     Total:     0.8066

  Dipole Moment: [D]
     X:    -1.5685      Y:     0.1836      Z:    -1.3075     Total:     2.0502


*** tstop() called on ds1.sherrill.chemistry.gatech.edu at Thu Oct 25 21:30:48 2018
Module time:
	user time   =       3.85 seconds =       0.06 minutes
	system time =       0.11 seconds =       0.00 minutes
	total time  =          1 seconds =       0.02 minutes
Total time:
	user time   =      29.90 seconds =       0.50 minutes
	system time =       1.06 seconds =       0.02 minutes
	total time  =          6 seconds =       0.10 minutes

*** tstart() called on ds1.sherrill.chemistry.gatech.edu
*** at Thu Oct 25 21:30:48 2018


         ------------------------------------------------------------
                                   SCF GRAD                          
                          Rob Parrish, Justin Turney,                
                       Andy Simmonett, and Alex Sokolov              
         ------------------------------------------------------------

  ==> Geometry <==

    Molecular point group: c1
    Full point group: C1

    Geometry (in Bohr), charge = 0, multiplicity = 1:

       Center              X                  Y                   Z               Mass       
    ------------   -----------------  -----------------  -----------------  -----------------
         O            0.291279300000     3.008756250000     0.203085150000    15.994914619560
         H           -1.212530480000     1.958209000000     0.103033240000     1.007825032070
         H            0.100020490000     4.249581150000    -1.102220790000     1.007825032070

  Nuclear repulsion =    9.116312738955250

  ==> Basis Set <==

  Basis Set: CC-PVDZ
    Blend: CC-PVDZ
    Number of shells: 12
    Number of basis function: 24
    Number of Cartesian functions: 25
    Spherical Harmonics?: true
    Max angular momentum: 2

  ==> DFJKGrad: Density-Fitted SCF Gradients <==

    Gradient:                    1
    J tasked:                  Yes
    K tasked:                  Yes
    wK tasked:                  No
    OpenMP threads:              6
    Integrals threads:           6
    Memory [MiB]:              375
    Schwarz Cutoff:          0E+00
    Fitting Condition:       1E-12

   => Auxiliary Basis Set <=

  Basis Set: (CC-PVDZ AUX)
    Blend: CC-PVDZ-JKFIT
    Number of shells: 42
    Number of basis function: 116
    Number of Cartesian functions: 131
    Spherical Harmonics?: true
    Max angular momentum: 3


  -Total Gradient:
     Atom            X                  Y                   Z
    ------   -----------------  -----------------  -----------------
       1        0.021479551058     0.007013691671     0.008944862219
       2       -0.022259919969    -0.017532246036     0.000382651351
       3        0.000780368911     0.010518554367    -0.009327513569


*** tstop() called on ds1.sherrill.chemistry.gatech.edu at Thu Oct 25 21:30:48 2018
Module time:
	user time   =       2.32 seconds =       0.04 minutes
	system time =       0.09 seconds =       0.00 minutes
	total time  =          0 seconds =       0.00 minutes
Total time:
	user time   =      32.22 seconds =       0.54 minutes
	system time =       1.15 seconds =       0.02 minutes
	total time  =          6 seconds =       0.10 minutes

  //>>>>>>>>>>>>>>>>>>>>>>>>>>>>>>>>>>>//
  //   CBS Results: MP2/cc-pV[D, T]Z   //
  //<<<<<<<<<<<<<<<<<<<<<<<<<<<<<<<<<<<//


   ==> HF <==

   HI-zeta (3) Energy:               -76.056409102333


   ==> Helgaker 2-point correlated extrapolation for method: MP2 <==

   LO-zeta (2) Energy:               -76.230523094185
   HI-zeta (3) Energy:               -76.331884508953
   Alpha (exponent) Value:             3.000000000000
   Extrapolated Energy:              -76.374562999381

   @Extrapolated MP2/(D,T):          -76.374562999381



   ==> Helgaker 2-point correlated extrapolation for method: HF <==

   LO-zeta (2) Energy:               -76.026127883257
   HI-zeta (3) Energy:               -76.056409102333
   Alpha (exponent) Value:             3.000000000000
   Extrapolated Energy:              -76.069159089312

   @Extrapolated HF/(D,T):           -76.069159089312


   ==> Components <==

  ---------------------------------------------------------------------------------------------------------
                          Method / Basis                      Rqd      Energy [Eh]   Variable
  ---------------------------------------------------------------------------------------------------------
                              hf / cc-pvtz                      *     -76.05640910   HF TOTAL ENERGY
                              hf / cc-pvdz                      *     -76.02612788   HF TOTAL ENERGY
                             mp2 / cc-pvdz                      *     -76.23052309   MP2 TOTAL ENERGY
                              hf / cc-pvtz                      *     -76.05640910   HF TOTAL ENERGY
                             mp2 / cc-pvtz                      *     -76.33188451   MP2 TOTAL ENERGY
                              hf / cc-pvdz                      *     -76.02612788   HF TOTAL ENERGY
  ---------------------------------------------------------------------------------------------------------

   ==> Stages <==

  ---------------------------------------------------------------------------------------------------------
      Stage               Method / Basis                       Wt      Energy [Eh]   Scheme
  ---------------------------------------------------------------------------------------------------------
        scf                   hf / cc-pvtz                      1     -76.05640910   xtpl_highest_1
       corl                  mp2 / cc-pv[dt]z                   1     -76.37456300   corl_xtpl_helgaker_2
       corl                   hf / cc-pv[dt]z                  -1     -76.06915909   corl_xtpl_helgaker_2
  ---------------------------------------------------------------------------------------------------------

   ==> CBS <==

  ---------------------------------------------------------------------------------------------------------
      Stage               Method / Basis                               Energy [Eh]   Scheme
  ---------------------------------------------------------------------------------------------------------
        scf                   hf / cc-pvtz                            -76.05640910   xtpl_highest_1
       corl                  mp2 / cc-pv[dt]z                          -0.30540391   corl_xtpl_helgaker_2
      total                  CBS                                      -76.36181301   
  ---------------------------------------------------------------------------------------------------------
   => Loading Basis Set <=

    Name: DEF2-SVP
    Role: ORBITAL
    Keyword: BASIS
    atoms 1   entry O          line   130 file /theoryfs2/ds/alenaizan/Gits/psi4/objdir/stage/share/psi4/basis/def2-svp.gbs 
    atoms 2-3 entry H          line    15 file /theoryfs2/ds/alenaizan/Gits/psi4/objdir/stage/share/psi4/basis/def2-svp.gbs 

CURRENT GRADIENT  Irrep: 1 Size: 3 x 3

                 1                   2                   3

    1     0.00943796357522     0.00819350010764    -0.00087699389277
    2    -0.01195147109395    -0.01074801558955     0.00146081307427
    3     0.00251350751862     0.00255451548286    -0.00058381918146




       N-Body: Complex Energy (fragments = (3,), basis = (3,):   -76.36181301240198)

       N-Body: Computing complex (2/3) with fragments (2,) in the basis of fragments (2,).


  //>>>>>>>>>>>>>>>>>>>>>>>>>>>>>>>>>>>//
  //    CBS Setup: MP2/cc-pV[D, T]Z    //
  //<<<<<<<<<<<<<<<<<<<<<<<<<<<<<<<<<<<//

    Naive listing of computations required.
             hf / cc-pvtz                  for  HF TOTAL ENERGY, GRADIENT
            mp2 / cc-pvdz                  for  MP2 TOTAL ENERGY, GRADIENT
            mp2 / cc-pvtz                  for  MP2 TOTAL ENERGY, GRADIENT
             hf / cc-pvdz                  for  HF TOTAL ENERGY, GRADIENT
             hf / cc-pvtz                  for  HF TOTAL ENERGY, GRADIENT

    Enlightened listing of computations required.
             hf / cc-pvtz                  for  HF TOTAL ENERGY, GRADIENT
            mp2 / cc-pvdz                  for  MP2 TOTAL ENERGY, GRADIENT
            mp2 / cc-pvtz                  for  MP2 TOTAL ENERGY, GRADIENT
             hf / cc-pvdz                  for  HF TOTAL ENERGY, GRADIENT

    Full listing of computations to be obtained (required and bonus).
             hf / cc-pvtz                  for  HF TOTAL ENERGY, GRADIENT
             hf / cc-pvdz                  for  HF TOTAL ENERGY, GRADIENT
            mp2 / cc-pvdz                  for  MP2 TOTAL ENERGY, GRADIENT
             hf / cc-pvtz                  for  HF TOTAL ENERGY, GRADIENT
            mp2 / cc-pvtz                  for  MP2 TOTAL ENERGY, GRADIENT
             hf / cc-pvdz                  for  HF TOTAL ENERGY, GRADIENT

  //>>>>>>>>>>>>>>>>>>>>>>>>>>>>>>>>>>>>>>>>>//
  // CBS Computation: HF / CC-PVTZ, GRADIENT //
  //<<<<<<<<<<<<<<<<<<<<<<<<<<<<<<<<<<<<<<<<<//

gradient() will perform analytic gradient computation.

*** tstart() called on ds1.sherrill.chemistry.gatech.edu
*** at Thu Oct 25 21:30:48 2018

   => Loading Basis Set <=

    Name: CC-PVTZ
    Role: ORBITAL
    Keyword: BASIS
    atoms 1   entry O          line   262 file /theoryfs2/ds/alenaizan/Gits/psi4/objdir/stage/share/psi4/basis/cc-pvtz.gbs 
    atoms 2-3 entry H          line    23 file /theoryfs2/ds/alenaizan/Gits/psi4/objdir/stage/share/psi4/basis/cc-pvtz.gbs 


         ---------------------------------------------------------
                                   SCF
            by Justin Turney, Rob Parrish, Andy Simmonett
                             and Daniel Smith
                              RHF Reference
                        6 Threads,    500 MiB Core
         ---------------------------------------------------------

  ==> Geometry <==

    Molecular point group: c1
    Full point group: C1

    Geometry (in Bohr), charge = 0, multiplicity = 1:

       Center              X                  Y                   Z               Mass       
    ------------   -----------------  -----------------  -----------------  -----------------
         O            2.469246140000    -1.754377390000    -0.170928840000    15.994914619560
         H            3.763682600000    -2.214254030000     1.008461040000     1.007825032070
         H            2.305983300000     0.070984450000    -0.039424730000     1.007825032070

  Running in c1 symmetry.

  Rotational constants: A =     17.73733  B =      0.35284  C =      0.35071 [cm^-1]
  Rotational constants: A = 531751.83717  B =  10577.84786  C =  10514.12905 [MHz]
  Nuclear repulsion =    9.116778471315827

  Charge       = 0
  Multiplicity = 1
  Electrons    = 10
  Nalpha       = 5
  Nbeta        = 5

  ==> Algorithm <==

  SCF Algorithm Type is DF.
  DIIS enabled.
  MOM disabled.
  Fractional occupation disabled.
  Guess Type is SAD.
  Energy threshold   = 1.00e-08
  Density threshold  = 1.00e-08
  Integral threshold = 0.00e+00

  ==> Primary Basis <==

  Basis Set: CC-PVTZ
    Blend: CC-PVTZ
    Number of shells: 22
    Number of basis function: 58
    Number of Cartesian functions: 65
    Spherical Harmonics?: true
    Max angular momentum: 3

   => Loading Basis Set <=

    Name: (CC-PVTZ AUX)
    Role: JKFIT
    Keyword: DF_BASIS_SCF
    atoms 1   entry O          line   229 file /theoryfs2/ds/alenaizan/Gits/psi4/objdir/stage/share/psi4/basis/cc-pvtz-jkfit.gbs 
    atoms 2-3 entry H          line    51 file /theoryfs2/ds/alenaizan/Gits/psi4/objdir/stage/share/psi4/basis/cc-pvtz-jkfit.gbs 

  ==> Pre-Iterations <==

   -------------------------------------------------------
    Irrep   Nso     Nmo     Nalpha   Nbeta   Ndocc  Nsocc
   -------------------------------------------------------
     A         58      58       0       0       0       0
   -------------------------------------------------------
    Total      58      58       5       5       5       0
   -------------------------------------------------------

  ==> Integral Setup <==

  DFHelper Memory: AOs need 0.004 GiB; user supplied 0.366 GiB. Using in-core AOs.

  ==> MemDFJK: Density-Fitted J/K Matrices <==

    J tasked:                   Yes
    K tasked:                   Yes
    wK tasked:                   No
    OpenMP threads:               6
    Memory [MiB]:               375
    Algorithm:                 Core
    Schwarz Cutoff:           1E-12
    Mask sparsity (%):       0.0000
    Fitting Condition:        1E-12

   => Auxiliary Basis Set <=

  Basis Set: (CC-PVTZ AUX)
    Blend: CC-PVTZ-JKFIT
    Number of shells: 45
    Number of basis function: 139
    Number of Cartesian functions: 166
    Spherical Harmonics?: true
    Max angular momentum: 4

  Minimum eigenvalue in the overlap matrix is 2.5508337067E-03.
  Using Symmetric Orthogonalization.

  SCF Guess: Superposition of Atomic Densities via on-the-fly atomic UHF.

  ==> Iterations <==

                           Total Energy        Delta E     RMS |[F,P]|

   @DF-RHF iter   0:   -75.98882356905261   -7.59888e+01   6.65997e-02 
   @DF-RHF iter   1:   -76.02319590580321   -3.43723e-02   1.05686e-02 
   @DF-RHF iter   2:   -76.04828131188310   -2.50854e-02   6.32718e-03 DIIS
   @DF-RHF iter   3:   -76.05570272886627   -7.42142e-03   1.10245e-03 DIIS
   @DF-RHF iter   4:   -76.05629161427825   -5.88885e-04   3.58535e-04 DIIS
   @DF-RHF iter   5:   -76.05639969379075   -1.08080e-04   9.18301e-05 DIIS
   @DF-RHF iter   6:   -76.05640830500062   -8.61121e-06   1.28707e-05 DIIS
   @DF-RHF iter   7:   -76.05640856641399   -2.61413e-07   2.54200e-06 DIIS
   @DF-RHF iter   8:   -76.05640857296881   -6.55481e-09   6.18266e-07 DIIS
   @DF-RHF iter   9:   -76.05640857325351   -2.84700e-10   1.18696e-07 DIIS
   @DF-RHF iter  10:   -76.05640857327303   -1.95257e-11   2.40539e-08 DIIS
   @DF-RHF iter  11:   -76.05640857327353   -4.97380e-13   5.23375e-09 DIIS
  Energy converged.


  ==> Post-Iterations <==

    Orbital Energies [Eh]
    ---------------------

    Doubly Occupied:                                                      

       1A    -20.555573     2A     -1.340807     3A     -0.707532  
       4A     -0.574001     5A     -0.503460  

    Virtual:                                                              

       6A      0.141684     7A      0.203118     8A      0.542639  
       9A      0.593803    10A      0.670841    11A      0.787596  
      12A      0.804690    13A      0.805276    14A      0.857282  
      15A      0.959187    16A      1.136412    17A      1.189444  
      18A      1.519786    19A      1.554755    20A      2.028528  
      21A      2.065239    22A      2.066058    23A      2.166622  
      24A      2.238935    25A      2.593167    26A      2.953999  
      27A      3.366874    28A      3.493013    29A      3.568237  
      30A      3.638733    31A      3.796450    32A      3.869727  
      33A      3.882105    34A      3.953714    35A      4.021303  
      36A      4.076409    37A      4.182159    38A      4.307955  
      39A      4.389673    40A      4.546932    41A      4.680741  
      42A      4.846786    43A      5.125326    44A      5.250241  
      45A      5.531103    46A      6.036153    47A      6.528534  
      48A      6.897417    49A      6.946524    50A      6.997928  
      51A      7.006257    52A      7.072117    53A      7.160198  
      54A      7.223761    55A      7.463001    56A      7.773534  
      57A      8.252468    58A     12.755128  

    Final Occupation by Irrep:
              A 
    DOCC [     5 ]

  @DF-RHF Final Energy:   -76.05640857327353

   => Energetics <=

    Nuclear Repulsion Energy =              9.1167784713158273
    One-Electron Energy =                -122.9836286097918219
    Two-Electron Energy =                  37.8104415652024670
    Total Energy =                        -76.0564085732735293

Computation Completed


Properties will be evaluated at   0.000000,   0.000000,   0.000000 [a0]

Properties computed using the SCF density matrix

  Nuclear Dipole Moment: [e a0]
     X:    25.8236      Y:   -16.1783      Z:    -0.3984

  Electronic Dipole Moment: [e a0]
     X:   -25.4157      Y:    16.6665      Z:     0.8705

  Dipole Moment: [e a0]
     X:     0.4080      Y:     0.4882      Z:     0.4721     Total:     0.7922

  Dipole Moment: [D]
     X:     1.0370      Y:     1.2408      Z:     1.2000     Total:     2.0137


*** tstop() called on ds1.sherrill.chemistry.gatech.edu at Thu Oct 25 21:30:49 2018
Module time:
	user time   =       2.88 seconds =       0.05 minutes
	system time =       0.09 seconds =       0.00 minutes
	total time  =          1 seconds =       0.02 minutes
Total time:
	user time   =      35.90 seconds =       0.60 minutes
	system time =       1.26 seconds =       0.02 minutes
	total time  =          7 seconds =       0.12 minutes

*** tstart() called on ds1.sherrill.chemistry.gatech.edu
*** at Thu Oct 25 21:30:49 2018


         ------------------------------------------------------------
                                   SCF GRAD                          
                          Rob Parrish, Justin Turney,                
                       Andy Simmonett, and Alex Sokolov              
         ------------------------------------------------------------

  ==> Geometry <==

    Molecular point group: c1
    Full point group: C1

    Geometry (in Bohr), charge = 0, multiplicity = 1:

       Center              X                  Y                   Z               Mass       
    ------------   -----------------  -----------------  -----------------  -----------------
         O            2.469246140000    -1.754377390000    -0.170928840000    15.994914619560
         H            3.763682600000    -2.214254030000     1.008461040000     1.007825032070
         H            2.305983300000     0.070984450000    -0.039424730000     1.007825032070

  Nuclear repulsion =    9.116778471315827

  ==> Basis Set <==

  Basis Set: CC-PVTZ
    Blend: CC-PVTZ
    Number of shells: 22
    Number of basis function: 58
    Number of Cartesian functions: 65
    Spherical Harmonics?: true
    Max angular momentum: 3

  ==> DFJKGrad: Density-Fitted SCF Gradients <==

    Gradient:                    1
    J tasked:                  Yes
    K tasked:                  Yes
    wK tasked:                  No
    OpenMP threads:              6
    Integrals threads:           6
    Memory [MiB]:              375
    Schwarz Cutoff:          0E+00
    Fitting Condition:       1E-12

   => Auxiliary Basis Set <=

  Basis Set: (CC-PVTZ AUX)
    Blend: CC-PVTZ-JKFIT
    Number of shells: 45
    Number of basis function: 139
    Number of Cartesian functions: 166
    Spherical Harmonics?: true
    Max angular momentum: 4


  -Total Gradient:
     Atom            X                  Y                   Z
    ------   -----------------  -----------------  -----------------
       1       -0.010002571629    -0.027532212506    -0.014042946600
       2        0.013579921674    -0.005680233201     0.012237283585
       3       -0.003577350044     0.033212445705     0.001805663016


*** tstop() called on ds1.sherrill.chemistry.gatech.edu at Thu Oct 25 21:30:50 2018
Module time:
	user time   =       3.58 seconds =       0.06 minutes
	system time =       0.18 seconds =       0.00 minutes
	total time  =          1 seconds =       0.02 minutes
Total time:
	user time   =      39.49 seconds =       0.66 minutes
	system time =       1.44 seconds =       0.02 minutes
	total time  =          8 seconds =       0.13 minutes

  //>>>>>>>>>>>>>>>>>>>>>>>>>>>>>>>>>>>>>>>>>>//
  // CBS Computation: MP2 / CC-PVDZ, GRADIENT //
  //<<<<<<<<<<<<<<<<<<<<<<<<<<<<<<<<<<<<<<<<<<//

gradient() will perform analytic gradient computation.

*** tstart() called on ds1.sherrill.chemistry.gatech.edu
*** at Thu Oct 25 21:30:50 2018

    SCF Algorithm Type (re)set to DF.

*** tstart() called on ds1.sherrill.chemistry.gatech.edu
*** at Thu Oct 25 21:30:50 2018

   => Loading Basis Set <=

    Name: CC-PVDZ
    Role: ORBITAL
    Keyword: BASIS
    atoms 1   entry O          line   198 file /theoryfs2/ds/alenaizan/Gits/psi4/objdir/stage/share/psi4/basis/cc-pvdz.gbs 
    atoms 2-3 entry H          line    22 file /theoryfs2/ds/alenaizan/Gits/psi4/objdir/stage/share/psi4/basis/cc-pvdz.gbs 


         ---------------------------------------------------------
                                   SCF
            by Justin Turney, Rob Parrish, Andy Simmonett
                             and Daniel Smith
                              RHF Reference
                        6 Threads,    500 MiB Core
         ---------------------------------------------------------

  ==> Geometry <==

    Molecular point group: c1
    Full point group: C1

    Geometry (in Bohr), charge = 0, multiplicity = 1:

       Center              X                  Y                   Z               Mass       
    ------------   -----------------  -----------------  -----------------  -----------------
         O            2.469246140000    -1.754377390000    -0.170928840000    15.994914619560
         H            3.763682600000    -2.214254030000     1.008461040000     1.007825032070
         H            2.305983300000     0.070984450000    -0.039424730000     1.007825032070

  Running in c1 symmetry.

  Rotational constants: A =     17.73733  B =      0.35284  C =      0.35071 [cm^-1]
  Rotational constants: A = 531751.83717  B =  10577.84786  C =  10514.12905 [MHz]
  Nuclear repulsion =    9.116778471315827

  Charge       = 0
  Multiplicity = 1
  Electrons    = 10
  Nalpha       = 5
  Nbeta        = 5

  ==> Algorithm <==

  SCF Algorithm Type is DF.
  DIIS enabled.
  MOM disabled.
  Fractional occupation disabled.
  Guess Type is SAD.
  Energy threshold   = 1.00e-10
  Density threshold  = 1.00e-10
  Integral threshold = 0.00e+00

  ==> Primary Basis <==

  Basis Set: CC-PVDZ
    Blend: CC-PVDZ
    Number of shells: 12
    Number of basis function: 24
    Number of Cartesian functions: 25
    Spherical Harmonics?: true
    Max angular momentum: 2

   => Loading Basis Set <=

    Name: (CC-PVDZ AUX)
    Role: JKFIT
    Keyword: DF_BASIS_SCF
    atoms 1   entry O          line   221 file /theoryfs2/ds/alenaizan/Gits/psi4/objdir/stage/share/psi4/basis/cc-pvdz-jkfit.gbs 
    atoms 2-3 entry H          line    51 file /theoryfs2/ds/alenaizan/Gits/psi4/objdir/stage/share/psi4/basis/cc-pvdz-jkfit.gbs 

  ==> Pre-Iterations <==

   -------------------------------------------------------
    Irrep   Nso     Nmo     Nalpha   Nbeta   Ndocc  Nsocc
   -------------------------------------------------------
     A         24      24       0       0       0       0
   -------------------------------------------------------
    Total      24      24       5       5       5       0
   -------------------------------------------------------

  ==> Integral Setup <==

  DFHelper Memory: AOs need 0.001 GiB; user supplied 0.366 GiB. Using in-core AOs.

  ==> MemDFJK: Density-Fitted J/K Matrices <==

    J tasked:                   Yes
    K tasked:                   Yes
    wK tasked:                   No
    OpenMP threads:               6
    Memory [MiB]:               375
    Algorithm:                 Core
    Schwarz Cutoff:           1E-12
    Mask sparsity (%):       0.0000
    Fitting Condition:        1E-12

   => Auxiliary Basis Set <=

  Basis Set: (CC-PVDZ AUX)
    Blend: CC-PVDZ-JKFIT
    Number of shells: 42
    Number of basis function: 116
    Number of Cartesian functions: 131
    Spherical Harmonics?: true
    Max angular momentum: 3

  Minimum eigenvalue in the overlap matrix is 3.4914352079E-02.
  Using Symmetric Orthogonalization.

  SCF Guess: Superposition of Atomic Densities via on-the-fly atomic UHF.

  ==> Iterations <==

                           Total Energy        Delta E     RMS |[F,P]|

   @DF-RHF iter   0:   -75.96868376878558   -7.59687e+01   1.69147e-01 
   @DF-RHF iter   1:   -75.99441986525578   -2.57361e-02   1.92760e-02 
   @DF-RHF iter   2:   -76.01920011212033   -2.47802e-02   1.34048e-02 DIIS
   @DF-RHF iter   3:   -76.02549393648522   -6.29382e-03   2.42586e-03 DIIS
   @DF-RHF iter   4:   -76.02602279523133   -5.28859e-04   5.36283e-04 DIIS
   @DF-RHF iter   5:   -76.02610603729934   -8.32421e-05   1.94420e-04 DIIS
   @DF-RHF iter   6:   -76.02611319470131   -7.15740e-06   1.95188e-05 DIIS
   @DF-RHF iter   7:   -76.02611339929906   -2.04598e-07   5.58955e-06 DIIS
   @DF-RHF iter   8:   -76.02611340416502   -4.86595e-09   9.13579e-07 DIIS
   @DF-RHF iter   9:   -76.02611340439215   -2.27132e-10   1.71698e-07 DIIS
   @DF-RHF iter  10:   -76.02611340439967   -7.51754e-12   3.35232e-08 DIIS
   @DF-RHF iter  11:   -76.02611340440001   -3.41061e-13   7.91155e-09 DIIS
   @DF-RHF iter  12:   -76.02611340440005   -4.26326e-14   1.58441e-09 DIIS
   @DF-RHF iter  13:   -76.02611340440002    2.84217e-14   3.89911e-10 DIIS
   @DF-RHF iter  14:   -76.02611340440005   -2.84217e-14   8.63853e-11 DIIS
  Energy converged.


  ==> Post-Iterations <==

    Orbital Energies [Eh]
[...]
	 Opposite-Spin Energy      =      -0.4846631678560482 [Eh]
	 Correlation Energy        =      -0.6307090038753533 [Eh]
	 Total Energy              =    -152.7641203440830964 [Eh]
	-----------------------------------------------------------
	 ================> DF-SCS-MP2 Energies <================== 
	-----------------------------------------------------------
	 SCS Same-Spin Scale       =       0.3333333333333333 [-]
	 SCS Opposite-Spin Scale   =       1.2000000000000000 [-]
	 SCS Same-Spin Energy      =      -0.0486819453397684 [Eh]
	 SCS Opposite-Spin Energy  =      -0.5815958014272579 [Eh]
	 SCS Correlation Energy    =      -0.6302777467670262 [Eh]
	 SCS Total Energy          =    -152.7636890869747788 [Eh]
	-----------------------------------------------------------


  -Total Gradient:
     Atom            X                  Y                   Z
    ------   -----------------  -----------------  -----------------
       1       -0.009430571929     0.006290942898    -0.000004459322
       2        0.012825545635    -0.004865486878    -0.000391419789
       3       -0.002326922396     0.000036281392     0.000558817226
       4        0.005810467695     0.001442297831     0.001622039411
       5       -0.007597737782    -0.005885508841     0.000532041376
       6        0.000719218779     0.002981473597    -0.002317018903


*** tstop() called on ds1.sherrill.chemistry.gatech.edu at Thu Oct 25 21:41:35 2018
Module time:
	user time   =      34.27 seconds =       0.57 minutes
	system time =       0.90 seconds =       0.02 minutes
	total time  =          6 seconds =       0.10 minutes
Total time:
	user time   =    3458.22 seconds =      57.64 minutes
	system time =      92.59 seconds =       1.54 minutes
	total time  =        653 seconds =      10.88 minutes

  //>>>>>>>>>>>>>>>>>>>>>>>>>>>>>>>>>>>>>>>>>//
  // CBS Computation: HF / CC-PVTZ, GRADIENT //
  //<<<<<<<<<<<<<<<<<<<<<<<<<<<<<<<<<<<<<<<<<//

gradient() will perform analytic gradient computation.

*** tstart() called on ds1.sherrill.chemistry.gatech.edu
*** at Thu Oct 25 21:41:35 2018

   => Loading Basis Set <=

    Name: CC-PVTZ
    Role: ORBITAL
    Keyword: BASIS
    atoms 1, 4     entry O          line   262 file /theoryfs2/ds/alenaizan/Gits/psi4/objdir/stage/share/psi4/basis/cc-pvtz.gbs 
    atoms 2-3, 5-6 entry H          line    23 file /theoryfs2/ds/alenaizan/Gits/psi4/objdir/stage/share/psi4/basis/cc-pvtz.gbs 


         ---------------------------------------------------------
                                   SCF
            by Justin Turney, Rob Parrish, Andy Simmonett
                             and Daniel Smith
                              RHF Reference
                        6 Threads,    500 MiB Core
         ---------------------------------------------------------

  ==> Geometry <==

    Molecular point group: c1
    Full point group: C1

    Geometry (in Bohr), charge = 0, multiplicity = 1:

       Center              X                  Y                   Z               Mass       
    ------------   -----------------  -----------------  -----------------  -----------------
         O           -2.763732240000    -1.243777060000    -0.154445660000    15.994914619560
         H           -1.123577910000    -2.062279700000    -0.052437990000     1.007825032070
         H           -3.807923620000    -2.087055250000     1.060904070000     1.007825032070
         O            0.291279300000     3.008756250000     0.203085150000    15.994914619560
         H           -1.212530480000     1.958209000000     0.103033240000     1.007825032070
         H            0.100020490000     4.249581150000    -1.102220790000     1.007825032070

  Running in c1 symmetry.

  Rotational constants: A =      0.66207  B =      0.23435  C =      0.17633 [cm^-1]
  Rotational constants: A =  19848.38696  B =   7025.55974  C =   5286.37823 [MHz]
  Nuclear repulsion =   37.415382693305901

  Charge       = 0
  Multiplicity = 1
  Electrons    = 20
  Nalpha       = 10
  Nbeta        = 10

  ==> Algorithm <==

  SCF Algorithm Type is DF.
  DIIS enabled.
  MOM disabled.
  Fractional occupation disabled.
  Guess Type is SAD.
  Energy threshold   = 1.00e-08
  Density threshold  = 1.00e-08
  Integral threshold = 0.00e+00

  ==> Primary Basis <==

  Basis Set: CC-PVTZ
    Blend: CC-PVTZ
    Number of shells: 44
    Number of basis function: 116
    Number of Cartesian functions: 130
    Spherical Harmonics?: true
    Max angular momentum: 3

   => Loading Basis Set <=

    Name: (CC-PVTZ AUX)
    Role: JKFIT
    Keyword: DF_BASIS_SCF
    atoms 1, 4     entry O          line   229 file /theoryfs2/ds/alenaizan/Gits/psi4/objdir/stage/share/psi4/basis/cc-pvtz-jkfit.gbs 
    atoms 2-3, 5-6 entry H          line    51 file /theoryfs2/ds/alenaizan/Gits/psi4/objdir/stage/share/psi4/basis/cc-pvtz-jkfit.gbs 

  ==> Pre-Iterations <==

   -------------------------------------------------------
    Irrep   Nso     Nmo     Nalpha   Nbeta   Ndocc  Nsocc
   -------------------------------------------------------
     A        116     116       0       0       0       0
   -------------------------------------------------------
    Total     116     116      10      10      10       0
   -------------------------------------------------------

  ==> Integral Setup <==

  DFHelper Memory: AOs need 0.031 GiB; user supplied 0.366 GiB. Using in-core AOs.

  ==> MemDFJK: Density-Fitted J/K Matrices <==

    J tasked:                   Yes
    K tasked:                   Yes
    wK tasked:                   No
    OpenMP threads:               6
    Memory [MiB]:               375
    Algorithm:                 Core
    Schwarz Cutoff:           1E-12
    Mask sparsity (%):       2.3930
    Fitting Condition:        1E-12

   => Auxiliary Basis Set <=

  Basis Set: (CC-PVTZ AUX)
    Blend: CC-PVTZ-JKFIT
    Number of shells: 90
    Number of basis function: 278
    Number of Cartesian functions: 332
    Spherical Harmonics?: true
    Max angular momentum: 4

  Minimum eigenvalue in the overlap matrix is 2.1281703168E-03.
  Using Symmetric Orthogonalization.

  SCF Guess: Superposition of Atomic Densities via on-the-fly atomic UHF.

  ==> Iterations <==

                           Total Energy        Delta E     RMS |[F,P]|

   @DF-RHF iter   0:  -152.06659110970736   -1.52067e+02   5.01982e-02 
   @DF-RHF iter   1:  -152.05323068864016    1.33604e-02   8.31801e-03 
   @DF-RHF iter   2:  -152.10377221804885   -5.05415e-02   4.28907e-03 DIIS
   @DF-RHF iter   3:  -152.11745454202261   -1.36823e-02   8.03851e-04 DIIS
   @DF-RHF iter   4:  -152.11870815696409   -1.25361e-03   2.48062e-04 DIIS
   @DF-RHF iter   5:  -152.11891258572564   -2.04429e-04   6.41891e-05 DIIS
   @DF-RHF iter   6:  -152.11892845292684   -1.58672e-05   1.60468e-05 DIIS
   @DF-RHF iter   7:  -152.11892897197126   -5.19044e-07   7.18128e-06 DIIS
   @DF-RHF iter   8:  -152.11892906026847   -8.82972e-08   1.27919e-06 DIIS
   @DF-RHF iter   9:  -152.11892906581224   -5.54377e-09   2.33131e-07 DIIS
   @DF-RHF iter  10:  -152.11892906598715   -1.74907e-10   4.51334e-08 DIIS
   @DF-RHF iter  11:  -152.11892906599221   -5.05906e-12   1.07748e-08 DIIS
   @DF-RHF iter  12:  -152.11892906599240   -1.98952e-13   3.23815e-09 DIIS
  Energy converged.


  ==> Post-Iterations <==

    Orbital Energies [Eh]
    ---------------------

    Doubly Occupied:                                                      

       1A    -20.581369     2A    -20.525581     3A     -1.369268  
       4A     -1.314301     5A     -0.736805     6A     -0.686491  
       7A     -0.603916     8A     -0.551438     9A     -0.523493  
      10A     -0.477238  

    Virtual:                                                              

      11A      0.129165    12A      0.180273    13A      0.200467  
      14A      0.300818    15A      0.516217    16A      0.555521  
      17A      0.565983    18A      0.601494    19A      0.667618  
      20A      0.703342    21A      0.739804    22A      0.778147  
      23A      0.787800    24A      0.809636    25A      0.844832  
      26A      0.871902    27A      0.902890    28A      0.971497  
      29A      1.004465    30A      1.069543    31A      1.155770  
      32A      1.202348    33A      1.255785    34A      1.380525  
      35A      1.522328    36A      1.544246    37A      1.579934  
      38A      1.766854    39A      1.996485    40A      2.029570  
      41A      2.058440    42A      2.081514    43A      2.118070  
      44A      2.161919    45A      2.215750    46A      2.237074  
      47A      2.296318    48A      2.433031    49A      2.609350  
      50A      2.663216    51A      2.934498    52A      3.019677  
      53A      3.342273    54A      3.390845    55A      3.465521  
      56A      3.537339    57A      3.551132    58A      3.616668  
      59A      3.639118    60A      3.675631    61A      3.779971  
      62A      3.821964    63A      3.853196    64A      3.881027  
      65A      3.911512    66A      3.957874    67A      3.994556  
      68A      4.043417    69A      4.051487    70A      4.071183  
      71A      4.128319    72A      4.180528    73A      4.242248  
      74A      4.266594    75A      4.353991    76A      4.403512  
      77A      4.449275    78A      4.477683    79A      4.534129  
      80A      4.634647    81A      4.707914    82A      4.728267  
      83A      4.873371    84A      4.900140    85A      5.127362  
      86A      5.193886    87A      5.276371    88A      5.342375  
      89A      5.515078    90A      5.583373    91A      6.019170  
      92A      6.072503    93A      6.531036    94A      6.602893  
      95A      6.872437    96A      6.878053    97A      6.964210  
      98A      6.976469    99A      6.987433   100A      7.035517  
     101A      7.050127   102A      7.060248   103A      7.087716  
     104A      7.133400   105A      7.170434   106A      7.237414  
     107A      7.265922   108A      7.367167   109A      7.480556  
     110A      7.555798   111A      7.782233   112A      7.861090  
     113A      8.248015   114A      8.315830   115A     12.882923  
     116A     12.965959  

    Final Occupation by Irrep:
              A 
    DOCC [    10 ]

  @DF-RHF Final Energy:  -152.11892906599240

   => Energetics <=

    Nuclear Repulsion Energy =             37.4153826933059008
    One-Electron Energy =                -284.3288258492129330
    Two-Electron Energy =                  94.7945140899145997
    Total Energy =                       -152.1189290659924325

Computation Completed


Properties will be evaluated at   0.000000,   0.000000,   0.000000 [a0]

Properties computed using the SCF density matrix

  Nuclear Dipole Moment: [e a0]
     X:   -25.8236      Y:    16.1783      Z:     0.3984

  Electronic Dipole Moment: [e a0]
     X:    25.3208      Y:   -16.8806      Z:    -0.4290

  Dipole Moment: [e a0]
     X:    -0.5029      Y:    -0.7023      Z:    -0.0306     Total:     0.8643

  Dipole Moment: [D]
     X:    -1.2781      Y:    -1.7851      Z:    -0.0778     Total:     2.1969


*** tstop() called on ds1.sherrill.chemistry.gatech.edu at Thu Oct 25 21:41:36 2018
Module time:
	user time   =       4.13 seconds =       0.07 minutes
	system time =       0.12 seconds =       0.00 minutes
	total time  =          1 seconds =       0.02 minutes
Total time:
	user time   =    3462.43 seconds =      57.71 minutes
	system time =      92.72 seconds =       1.55 minutes
	total time  =        654 seconds =      10.90 minutes

*** tstart() called on ds1.sherrill.chemistry.gatech.edu
*** at Thu Oct 25 21:41:36 2018


         ------------------------------------------------------------
                                   SCF GRAD                          
                          Rob Parrish, Justin Turney,                
                       Andy Simmonett, and Alex Sokolov              
         ------------------------------------------------------------

  ==> Geometry <==

    Molecular point group: c1
    Full point group: C1

    Geometry (in Bohr), charge = 0, multiplicity = 1:

       Center              X                  Y                   Z               Mass       
    ------------   -----------------  -----------------  -----------------  -----------------
         O           -2.763732240000    -1.243777060000    -0.154445660000    15.994914619560
         H           -1.123577910000    -2.062279700000    -0.052437990000     1.007825032070
         H           -3.807923620000    -2.087055250000     1.060904070000     1.007825032070
         O            0.291279300000     3.008756250000     0.203085150000    15.994914619560
         H           -1.212530480000     1.958209000000     0.103033240000     1.007825032070
         H            0.100020490000     4.249581150000    -1.102220790000     1.007825032070

  Nuclear repulsion =   37.415382693305901

  ==> Basis Set <==

  Basis Set: CC-PVTZ
    Blend: CC-PVTZ
    Number of shells: 44
    Number of basis function: 116
    Number of Cartesian functions: 130
    Spherical Harmonics?: true
    Max angular momentum: 3

  ==> DFJKGrad: Density-Fitted SCF Gradients <==

    Gradient:                    1
    J tasked:                  Yes
    K tasked:                  Yes
    wK tasked:                  No
    OpenMP threads:              6
    Integrals threads:           6
    Memory [MiB]:              375
    Schwarz Cutoff:          0E+00
    Fitting Condition:       1E-12

   => Auxiliary Basis Set <=

  Basis Set: (CC-PVTZ AUX)
    Blend: CC-PVTZ-JKFIT
    Number of shells: 90
    Number of basis function: 278
    Number of Cartesian functions: 332
    Spherical Harmonics?: true
    Max angular momentum: 4


  -Total Gradient:
     Atom            X                  Y                   Z
    ------   -----------------  -----------------  -----------------
       1       -0.014285241982     0.026303104184    -0.014181907580
       2        0.027371638464    -0.013161898004     0.001955823101
       3       -0.010520993146    -0.008786648357     0.012504570213
       4        0.024199272558    -0.000752726733     0.016365295656
       5       -0.024082461503    -0.017185962097    -0.001916604010
       6       -0.002682214389     0.013584131009    -0.014727177380


*** tstop() called on ds1.sherrill.chemistry.gatech.edu at Thu Oct 25 21:41:37 2018
Module time:
	user time   =       4.28 seconds =       0.07 minutes
	system time =       0.14 seconds =       0.00 minutes
	total time  =          1 seconds =       0.02 minutes
Total time:
	user time   =    3466.72 seconds =      57.78 minutes
	system time =      92.86 seconds =       1.55 minutes
	total time  =        655 seconds =      10.92 minutes

  //>>>>>>>>>>>>>>>>>>>>>>>>>>>>>>>>>>>//
  //   CBS Results: MP2/cc-pV[T, Q]Z   //
  //<<<<<<<<<<<<<<<<<<<<<<<<<<<<<<<<<<<//


   ==> HF <==

   HI-zeta (4) Energy:               -152.133411340207


   ==> Helgaker 2-point correlated extrapolation for method: MP2 <==

   LO-zeta (3) Energy:               -152.673481280017
   HI-zeta (4) Energy:               -152.764120344083
   Alpha (exponent) Value:             3.000000000000
   Extrapolated Energy:              -152.830262363807

   @Extrapolated MP2/(T,Q):          -152.830262363807



   ==> Helgaker 2-point correlated extrapolation for method: HF <==

   LO-zeta (3) Energy:               -152.118929065992
   HI-zeta (4) Energy:               -152.133411340207
   Alpha (exponent) Value:             3.000000000000
   Extrapolated Energy:              -152.143979486255

   @Extrapolated HF/(T,Q):           -152.143979486255


   ==> Components <==

  ---------------------------------------------------------------------------------------------------------
                          Method / Basis                      Rqd      Energy [Eh]   Variable
  ---------------------------------------------------------------------------------------------------------
                              hf / cc-pvqz                      *    -152.13341134   HF TOTAL ENERGY
                              hf / cc-pvtz                      *    -152.11892907   HF TOTAL ENERGY
                             mp2 / cc-pvtz                      *    -152.67348128   MP2 TOTAL ENERGY
                              hf / cc-pvqz                      *    -152.13341134   HF TOTAL ENERGY
                             mp2 / cc-pvqz                      *    -152.76412034   MP2 TOTAL ENERGY
                              hf / cc-pvtz                      *    -152.11892907   HF TOTAL ENERGY
  ---------------------------------------------------------------------------------------------------------

   ==> Stages <==

  ---------------------------------------------------------------------------------------------------------
      Stage               Method / Basis                       Wt      Energy [Eh]   Scheme
  ---------------------------------------------------------------------------------------------------------
        scf                   hf / cc-pvqz                      1    -152.13341134   xtpl_highest_1
       corl                  mp2 / cc-pv[tq]z                   1    -152.83026236   corl_xtpl_helgaker_2
       corl                   hf / cc-pv[tq]z                  -1    -152.14397949   corl_xtpl_helgaker_2
  ---------------------------------------------------------------------------------------------------------

   ==> CBS <==

  ---------------------------------------------------------------------------------------------------------
      Stage               Method / Basis                               Energy [Eh]   Scheme
  ---------------------------------------------------------------------------------------------------------
        scf                   hf / cc-pvqz                           -152.13341134   xtpl_highest_1
       corl                  mp2 / cc-pv[tq]z                          -0.68628288   corl_xtpl_helgaker_2
      total                  CBS                                     -152.81969422   
  ---------------------------------------------------------------------------------------------------------
   => Loading Basis Set <=

    Name: DEF2-SVP
    Role: ORBITAL
    Keyword: BASIS
    atoms 1, 4     entry O          line   130 file /theoryfs2/ds/alenaizan/Gits/psi4/objdir/stage/share/psi4/basis/def2-svp.gbs 
    atoms 2-3, 5-6 entry H          line    15 file /theoryfs2/ds/alenaizan/Gits/psi4/objdir/stage/share/psi4/basis/def2-svp.gbs 

CURRENT GRADIENT  Irrep: 1 Size: 6 x 3

                 1                   2                   3

    1    -0.00970062446650     0.00672335228821    -0.00045849533671
    2     0.01296111580029    -0.00495944218284    -0.00021663963274
    3    -0.00232173781660    -0.00024679859623     0.00081175500412
    4     0.00599323671606     0.00137093247813     0.00201290994898
    5    -0.00739760153347    -0.00584005029095     0.00037611303742
    6     0.00046561130294     0.00295200630281    -0.00252564302120




       N-Body: Complex Energy (fragments = (1, 3), basis = (1, 3):  -152.81969421775872)

   ==> N-Body: Valiron-Mayer Function Couterpoise (VMFC) energies <==

   n-Body     Total Energy [Eh]       I.E. [kcal/mol]      Delta [kcal/mol]
        1     -229.217052449849        0.000000000000        0.000000000000
        2     -229.238962379990      -13.748688733509      -13.748688733509

   => Loading Basis Set <=

    Name: DEF2-SVP
    Role: ORBITAL
    Keyword: BASIS
    atoms 1, 4, 7       entry O          line   130 file /theoryfs2/ds/alenaizan/Gits/psi4/objdir/stage/share/psi4/basis/def2-svp.gbs 
    atoms 2-3, 5-6, 8-9 entry H          line    15 file /theoryfs2/ds/alenaizan/Gits/psi4/objdir/stage/share/psi4/basis/def2-svp.gbs 

	VMFC-Corrected MP2/cc-pV[T, Q]Z Gradient..........................PASSED

    Psi4 stopped on: Thursday, 25 October 2018 09:41PM
    Psi4 wall time for execution: 0:10:54.77

*** Psi4 exiting successfully. Buy a developer a beer!
