    -----------------------------------------------------------------------
          PSI4: An Open-Source Ab Initio Electronic Structure Package
                              PSI 4.0.0-beta4+ Driver

               Git: Rev {c4} ef7097b1d82a7804b2d78ad28247f837c1527697

    J. M. Turney, A. C. Simmonett, R. M. Parrish, E. G. Hohenstein,
    F. A. Evangelista, J. T. Fermann, B. J. Mintz, L. A. Burns, J. J. Wilke,
    M. L. Abrams, N. J. Russ, M. L. Leininger, C. L. Janssen, E. T. Seidl,
    W. D. Allen, H. F. Schaefer, R. A. King, E. F. Valeev, C. D. Sherrill,
    and T. D. Crawford, WIREs Comput. Mol. Sci., (2011) (doi: 10.1002/wcms.93)

                         Additional Contributions by
    A. E. DePrince, M. Saitow, U. Bozkaya, A. Yu. Sokolov
    -----------------------------------------------------------------------

    Process ID:  17521
    PSI4DATADIR: /theoryfs2/ds/loriab/chem/psi4_trials/c4/psi4/lib

    Using LocalCommunicator (Number of processes = 1)

    Memory level set to 256.000 MB

  ==> Input File <==

--------------------------------------------------------------------------
#! single-point MP4/qz2p on NH2

print '        <<< Literal ZMAT to Cfour >>>'

cfour {
ROHF-MP4 energy calculation
N
H 1 R
H 1 R 2 A

R=1.008
A=105.0

*ACES2(CALC=MP4,BASIS=qz2p
MULT=2,REF=ROHF
OCCUPATION=3-1-1-0/3-0-1-0
SCF_CONV=12
MEMORY=20000000)
}

energy('cfour')

compare_values(-55.5847372601, get_variable('scf total energy'), 6, 'SCF')  #TEST
compare_values(-0.002983751786, get_variable('mp2 singles energy'), 6, 'MP2 singles')  #TEST
compare_values(-0.155770420921, get_variable('mp2 opposite-spin energy'), 6, 'MP2 OS corl')  #TEST
compare_values(-0.041785354569, get_variable('mp2 same-spin energy'), 6, 'MP2 SS corl')  #TEST
compare_values(-0.200539527276, get_variable('mp2 correlation energy'), 6, 'MP2 corl')  #TEST
compare_values(-55.785276787341, get_variable('mp2 total energy'), 6, 'MP2')  #TEST
compare_values(-0.215858889, get_variable('mp3 correlation energy'), 6, 'MP3 corl')  #TEST
compare_values(-55.800596149, get_variable('mp3 total energy'), 6, 'MP3')  #TEST
#compare_values(-55.807004598386, get_variable('mp4 total energy'), 6, 'MP4')  #TEST
compare_values(-55.806988018769, get_variable('mp4 total energy'), 6, 'MP4')  #TEST
#compare_values(-0.222267338321, get_variable('mp4 correlation energy'), 6, 'MP4 corl')  #TEST
compare_values(-0.222250758669, get_variable('mp4 correlation energy'), 6, 'MP4 corl')  #TEST
compare_values(-55.806988018769, get_variable('current energy'), 6, 'Current')  #TEST
compare_values(-0.222250758669, get_variable('current correlation energy'), 6, 'Current corl')  #TEST
compare_values(-55.5847372601, get_variable('current reference energy'), 6, 'Current ref')  #TEST
#compare_values(-0.217505967817, get_variable('mp4(sdq) correlation energy'), 6, 'MP4(SDQ) corl')  #TEST
#compare_values(-55.802243227882, get_variable('mp4(sdq) total energy'), 6, 'MP4(SDQ)')  #TEST
compare_values(-0.217489388149, get_variable('mp4(sdq) correlation energy'), 6, 'MP4(SDQ) corl')  #TEST
compare_values(-55.802226648249, get_variable('mp4(sdq) total energy'), 6, 'MP4(SDQ)')  #TEST
compare_values(-0.004761370505, get_variable('mp4(t) correction energy'), 6, 'MP4(T)')  #TEST

clean()
clean_variables()
cfour {}

print '        <<< Translation of ZMAT to Psi4 format to Cfour >>>'

banner('ROHF-MP4 energy calculation')

molecule {
0 2
N
H 1 R
H 1 R 2 A

R=1.008
A=105.0
}

set {
cfour_CALC_level=MP4
cfour_BASIS=qz2p
cfour_REFerence=ROHF
cfour_occupation [[3,1,1,0],[3,0,1,0]]
cfour_SCF_CONV=12
}

energy('cfour')

compare_values(-55.5847372601, get_variable('scf total energy'), 6, 'SCF')  #TEST
compare_values(-0.002983751786, get_variable('mp2 singles energy'), 6, 'MP2 singles')  #TEST
compare_values(-0.155770420921, get_variable('mp2 opposite-spin energy'), 6, 'MP2 OS corl')  #TEST
compare_values(-0.041785354569, get_variable('mp2 same-spin energy'), 6, 'MP2 SS corl')  #TEST
compare_values(-0.200539527276, get_variable('mp2 correlation energy'), 6, 'MP2 corl')  #TEST
compare_values(-55.785276787341, get_variable('mp2 total energy'), 6, 'MP2')  #TEST
compare_values(-0.215858889, get_variable('mp3 correlation energy'), 6, 'MP3 corl')  #TEST
compare_values(-55.800596149, get_variable('mp3 total energy'), 6, 'MP3')  #TEST
#compare_values(-55.807004598386, get_variable('mp4 total energy'), 6, 'MP4')  #TEST
compare_values(-55.806988018769, get_variable('mp4 total energy'), 6, 'MP4')  #TEST
#compare_values(-0.222267338321, get_variable('mp4 correlation energy'), 6, 'MP4 corl')  #TEST
compare_values(-0.222250758669, get_variable('mp4 correlation energy'), 6, 'MP4 corl')  #TEST
compare_values(-55.806988018769, get_variable('current energy'), 6, 'Current')  #TEST
compare_values(-0.222250758669, get_variable('current correlation energy'), 6, 'Current corl')  #TEST
compare_values(-55.5847372601, get_variable('current reference energy'), 6, 'Current ref')  #TEST
#compare_values(-0.217505967817, get_variable('mp4(sdq) correlation energy'), 6, 'MP4(SDQ) corl')  #TEST
#compare_values(-55.802243227882, get_variable('mp4(sdq) total energy'), 6, 'MP4(SDQ)')  #TEST
compare_values(-0.217489388149, get_variable('mp4(sdq) correlation energy'), 6, 'MP4(SDQ) corl')  #TEST
compare_values(-55.802226648249, get_variable('mp4(sdq) total energy'), 6, 'MP4(SDQ)')  #TEST
compare_values(-0.004761370505, get_variable('mp4(t) correction energy'), 6, 'MP4(T)')  #TEST

# New run in cfour
#        S-MBPT(2)       -0.002983751785   -55.587721011671
#        D-MBPT(2)       -0.197555775958   -55.785276787630
#        S-MBPT(3)       -0.000364945823   -55.785641733453
#        D-MBPT(3)       -0.014954415997   -55.800596149450
#        L-MBPT(4)       -0.004843986344   -55.805440135794
#       NL-MBPT(4)        0.003213484296   -55.802226651498
#     WT12-MBPT(4)        0.000000003250   -55.802226648249
#        T-MBPT(4)       -0.004761370520   -55.806988018769
#  -----------------------------------------------------------
#  Total MBPT(4)       energy:   -55.806988018769 a.u.

--------------------------------------------------------------------------

  GENBAS loaded from /theoryfs2/ds/cdsgroup/scripts/bin/GENBAS
  CFOUR to be run from /scratch/loriab//psi.17521..cfour.65702
 --invoking executable xjoda


   *************************************************************************
         <<<     CCCCCC     CCCCCC   |||     CCCCCC     CCCCCC   >>>
       <<<      CCC        CCC       |||    CCC        CCC         >>>
      <<<      CCC        CCC        |||   CCC        CCC            >>>
    <<<        CCC        CCC        |||   CCC        CCC              >>>
      <<<      CCC        CCC        |||   CCC        CCC            >>>
       <<<      CCC        CCC       |||    CCC        CCC         >>>
         <<<     CCCCCC     CCCCCC   |||     CCCCCC     CCCCCC   >>>
   *************************************************************************

     ****************************************************************
     * CFOUR Coupled-Cluster techniques for Computational Chemistry *
     ****************************************************************
 

   Department of Chemistry                Institut fuer Physikalische Chemie
   University of Texas at Austin          Universitaet Mainz
   Austin, TX  48792, USA                 D-55099 Mainz, Germany
 
                       version 1.2
 
                     john3                                             
                     Mon Oct 14 02:50:08 EDT 2013                      
                     integer*8 version is running
 
    -------------------------------------------------------------------
                    Input from ZMAT file
    -------------------------------------------------------------------
 
                                                                                
 ROHF-MP4 energy calculation                                                    
 N                                                                              
 H 1 R                                                                          
 H 1 R 2 A                                                                      
                                                                                
 R=1.008                                                                        
 A=105.0                                                                        
                                                                                
 *ACES2(CALC=MP4,BASIS=qz2p                                                     
 MULT=2,REF=ROHF                                                                
 OCCUPATION=3-1-1-0/3-0-1-0                                                     
 SCF_CONV=12                                                                    
 MEMORY=20000000)                                                               
                                                                                
 
    -------------------------------------------------------------------
                    CFOUR Control Parameters 
    -------------------------------------------------------------------
        External           Internal           Value            Units
          Name               Name
    -------------------------------------------------------------------
       PRINT                IPRNT               0               ***   
       CALCLEVEL            ICLLVL           MBPT(4)    [  4]   ***   
       DERIV_LEV            IDRLVL            ZERO      [  0]   ***   
       CC_CONV              ICCCNV          10D-  7             ***   
       SCF_CONV             ISCFCV          10D- 12             ***   
       XFORM_TOL            IXFTOL          10D- 11             ***   
       CC_MAXCYC            ICCCYC              0              cycles 
       LINDEP_TOL           ILINDP              8               ***   
       RDO                  IRDOFM             OFF      [  0]   ***   
  
       SCF_EXTRAPO          IRPP                ON      [  1]   ***   
       REFERENCE            IREFNC             ROHF     [  2]   ***   
       CC_EXPORDER          ICCEOR              0               ***   
       TAMP_SUM             IEVERY              0               ***   
       NTOP_TAMP            ITOPT2             15               ***   
       CCORBOPT             ICCORB             OFF      [  0] x 0.01  
       SCF_MAXCYC           ISCFCY            150              cycles 
       OCCUPATION           IOCCU  A   3,  1,  1,  0,
                                   B   3,  0,  1,  0,
       PROPS                IPROPS             OFF      [  0]   ***   
       RELAX_DENS           IRDENS             OFF      [  0]   ***   
  
       SCF_EXPORDE          IRPPOR              6               ***   
       CC_EXTRAPOL          ICCEXT             DIIS     [  1]   ***   
       BRUECKNER            IBRKNR             OFF      [  0]   ***   
       XFIELD               IXEFLD              0             x 10-6  
       YFIELD               IYEFLD              0             x 10-6  
       ZFIELD               IZEFLD              0             x 10-6  
       SAVE_INTS            ISVINT             OFF      [  0]   ***   
       DROPMO               IDRPMO      NONE         
       CHARGE               ICHRGE              0               ***   
       MULTIPLICTY          IMULTP              2               ***   
  
       CPHF_CONVER          ICPHFT          10D- 16             ***   
       CPHF_MAXCYC          ICPHFC             64              cycles 
       INCORE               INCORE             OFF      [  0]   ***   
       MEMORY_SIZE          IMEMSZ          20000000           words  
       FILE_RECSIZ          IFLREC              4096           words  
       NON-HF               INONHF              ON      [  1]   ***   
       ORBITALS             IORBTP         SEMICANONICAL[  1]   ***   
  
       SCF_EXPSTAR          IRPPLS              8               ***   
       LOCK_ORBOCC          ILOCOC             OFF      [  0]   ***   
       HBAR                 IHBAR              OFF      [  0]   ***   
       CACHE_RECS           ICHREC             10               ***   
       GUESS                IGUESS            MOREAD    [  0]   ***   
       JODA_PRINT           IJPRNT              0               ***   
       GEO_METHOD           INR            SINGLE_POINT [  5]   ***   
       GEO_CONV             ICONTL              5              H/bohr 
       EIGENVECTOR          IVEC                1               ***   
  
       NEGEVAL              IDIE             ABORT      [  0]   ***   
       CURVILINEAR          ICURVY            OFF       [  0]   ***   
       SCALE_ON             ISTCRT              0               ***   
       GEO_MAXSTEP          IMXSTP            300            millibohr
       VIBRATION            IVIB              NO        [  0]   ***   
       EVAL_HESS            IRECAL              0            # of cyc.
       INTEGRALS            INTTYP             VMOL     [  1]   ***   
       FD_STEPSIZE          IDISFD              0            10-4 bohr
       POINTS               IGRDFD              0               ***   
       CONTRACTION          ICNTYP          GENERAL     [  1]   ***   
  
       SYMMETRY             ISYM             ON         [  0]   ***   
       BASIS                IBASIS         qz2p         [ 32]   ***   
       SPHERICAL            IDFGHI             ON       [  1]   ***   
       RESET_FLAGS          IRESET             OFF      [  0]   ***   
       PERT_ORB             IPTORB         STANDARD     [  0]   ***   
       GENBAS_1             IGNBS1              0               ***   
       GENBAS_2             IGNBS2              0               ***   
       GENBAS_3             IGNBS3              0               ***   
       COORDINATES          ICOORD         INTERNAL     [  0]   ***   
       SYM_CHECK            ISYMCK         OVERRIDE     [  1]   ***   
  
       SCF_PRINT            ISCFPR              0               ***   
       ECP                  IECP           OFF          [  0]   ***   
       RESTART_CC           ICCRES         OFF          [  0]   ***   
       TRANS_INV            ITRAIN         USE          [  0]   ***   
       HFSTABILITY          ISTABL         OFF          [  0]   ***   
       ROT_EVEC             ROTVEC              0               ***   
       BRUCK_CONV           IBRTOL          10D-  4             ***   
       UNITS                IUNITS         ANGSTROM     [  0]   ***   
       FD_USEGROUP          IFDGRP         FULL         [  0]   ***   
  
       FD_PROJECT           IFDPRJ         ON           [  0]   ***   
       FD_CALTYPE           IFDCAL         GRADONLY     [  0]   ***   
       VTRAN                IVTRAN         FULL/PARTIAL [  0]   ***   
       HF2_FILE             IHF2Fl         USE          [  1]   ***   
       SUBGROUP             ISUBGP         DEFAULT      [  0]   ***   
       SUBGRPAXIS           ISBXYZ         X            [  0]   ***   
       EXCITE               IEXCIT         NONE         [  0]   ***   
       LINEQ_CONV           IZTACN          10D-  7           cycles  
  
       TREAT_PERT           ITREAT         SIMULTANEOUS [  0]   ***   
       ESTATE_PROP          IEXPRP         OFF          [  0]   ***   
       GEO_MAXCYC           IOPTCY             50               ***   
       ABCDTYPE             IABCDT         STANDARD     [  0]   ***   
       AO_LADDERS           IAOLAD         SINGLEPASS   [  1]   ***   
       FOCK                 IFOCK          AO           [  1]   ***   
       ESTATE_MAXC          IEXMXC             20               ***   
       ESTATE_CONV          IEXTOL          10D-  5             ***   
       DIRECT               IDIRCT         OFF          [  0]   ***   
  
       GAMMA_ABCD           IGABCD         STORE        [  0]   ***   
       LINEQ_TYPE           ILTYPE         DIIS         [  1]   ***   
       LINEQ_MAXCY          ILMAXC             50               ***   
       TRANGRAD             IRESRM         OFF          [  0]   ***   
       PSI                  IPSI           OFF          [  0]   ***   
       GAMMA_ABCI           IGABCI         STORE        [  0]   ***   
       ESTATE_DIAG          IEXDIG         ITERATIVE    [  0]   ***   
       FC_FIELD             IFINFC              0             x 10-6  
       SD_FIELD             IFINSD              0             x 10-6  
       DIFF_TYPE            IDIFTY         RELAXED      [  0]   ***   
  
       LINEQ_EXPOR          ILMAXD              5               ***   
       FINITE_PERT          IFIPER              0             x 10-6  
       ANHARMONIC           IANHAR         OFF          [  0]   ***   
       CC_PROGRAM           ICCPRO         VCC          [  0]   ***   
       OPEN-SHELL           IOPEN          SPIN-ORBITAL [  0]   ***   
       UIJ_THRESHO          IUIJTH             25               ***   
       SCF_DAMPING          IDAMP               0             x 10-3  
       PROP_INTEGR          IINTYP         INTERNAL     [  0]   ***   
       ANH_SYMMETR          IANHSM         ABELIAN      [  0]   ***   
       ANH_ALGORIT          IANALG         STANDARD     [  0]   ***   
  
       EOM_NONIT            EOMNON         OFF          [  0]   ***   
       VIB_ALGORIT          IGEALG         STANDARD     [  0]   ***   
       ANH_DERIVAT          IANDER         SECOND       [  1]   ***   
       SPINROTATIO          ISRCON         OFF          [  0]   ***   
       CIS_CONV             ICISTL              5               ***   
       ANH_STEPSIZ          ICUBST             50000          x 10-6  
       SPIN_FLIP            ISPFLP         OFF          [  0]   ***   
       GRID                 IGRID          OFF          [  0]   ***   
  
       DBOC                 IDBOC          OFF          [  0]   ***   
       EOMFOLLOW            IEOMSR         ENERGY       [  0]   ***   
       T3_EXTRAPOL          IT3EXT         OFF          [  0]   ***   
       ESTATE_LOCK          IESLOC         OFF          [  0]   ***   
       UNOS                 IUNOS          OFF          [  0]   ***   
       FREQ_ALGORI          IVIALG         STANDARD     [  0]   ***   
       RELATIVIST           IRELAT         OFF          [  0]   ***   
       FROZEN_CORE          IFROCO         OFF          [  0]   ***   
       EXCITATION           IEXCIT              0               ***   
       INPUT_MRCC           IMRCC          ON           [  1]   ***   
  
       GIAO                 IGIAO          OFF          [  1]   ***   
       EOM_NSING            IEOMSI          10D-  0             ***   
       EOM_NTRIP            IEOMTR          10D-  0             ***   
       EOM_NSTATES          IMRCCD         DAVIDSON     [  0]   ***   
       DIAG_MRCC            IEOMST          10D-  0             ***   
       NEWNORM              INEWNO         OFF          [  0]   ***   
       TESTSUITE            ITESTS         OFF          [  0]   ***   
       BUFFERSIZE           IBUFFS            600               ***   
       SPINORBIT            ISOCAL         OFF          [  0]   ***   
       DCT                  IDCT           OFF          [  0]   ***   
  
       PARALLEL             IPARAL         ON           [  1]   ***   
       PARA_PRINT           IPPRIN              0               ***   
       COMM_SIZE            IPSIZE            ***               ***   
       PARA_INT             IPINTS         ON           [  1]   ***   
       RAMAN_INT            IRAMIN         OFF          [  0]   ***   
       RAMAN_ORB            IRAMRE         UNRELAXED    [  0]   ***   
       BREIT                IBREIT         OFF          [  0]   ***   
       MEM_UNIT             IMEMU          INTEGERWORDS [  0]   ***   
       SPIN_ORBIT           ISPORB         OFF          [  0]   ***   
       GENBAS_4             IGNBS4              0               ***   
  
       SPIN_SCAL            ISCSMP         OFF          [  0]   ***   
       GRID_ALGO            IGALGO         SERIAL       [  0]   ***   
       VIBPHASE             ISETPH         STANDARD     [  0]   ***   
       SEQUENCE             ISEQUE         OFF          [  0]   ***   
       HESS_TYPE            IHESTP         SCF          [  0]   ***   
       CONTINUUM            ICONTU         NONE         [  0]   ***   
       SCF_NOSTOP           ISCFST         OFF          [  0]   ***   
       CONSTANT             ICONST         OLD          [  1]   ***   
  
       EOM_MRCC             IMRCCE         OLD          [  0]   ***   
       EOM_ORDER            IEXORD         ENERGY       [  0]   ***   
       GIMIC                IGIMIC         OFF          [  0]   ***   
    -------------------------------------------------------------------
   3 entries found in Z-matrix 
   Job Title : ROHF-MP4 energy calculation                                                     
   There are  2 unique internal coordinates.
   Of these,  0 will be optimized.
   User supplied Z-matrix: 
--------------------------------------------------------------------------------
       SYMBOL    BOND      LENGTH    ANGLE     ANGLE     DIHED     ANGLE
                  TO      (ANGST)    WRT      (DEG)      WRT      (DEG)
--------------------------------------------------------------------------------
        N    
        H          1         R    
        H          1         R          2        A    
                  *Initial values for internal coordinates* 
                      Name             Value
                        R               1.0080000000
                        A             105.0000000000
--------------------------------------------------------------------------------
  1  N          7    14.00307
  2  H          1     1.00783
  3  H          1     1.00783
   Rotational constants (in cm-1): 
          8.6337537305            13.0775697116            25.4080089639
   Rotational constants (in MHz): 
     258833.4615238860        392055.7317765497        761713.0527317039
********************************************************************************
   The full molecular point group is C2v .
   The largest Abelian subgroup of the full molecular point group is C2v .
   The computational point group is C2v .
********************************************************************************
--------------------------------------------------------------------------------
   Analysis of internal coordinates specified by Z-matrix 
--------------------------------------------------------------------------------
   *The nuclear repulsion energy is    7.68054 a.u.
   *There are   2 degrees of freedom within the tot. symm. molecular subspace.
   *Z-matrix requests optimization of   0 coordinates.
   *The optimization is constrained.
   *The following   2 parameters can have non-zero 
    derivatives within the totally symmetric subspace:
             A    [ 3]  R    [ 2]
   *The following   0 parameters are to be optimized:

   *The following coordinates must be varied in an  unconstrained optimization.
             A    [ 3]  R    [ 2]
--------------------------------------------------------------------------------
 ----------------------------------------------------------------
 Z-matrix   Atomic            Coordinates (in bohr)
  Symbol    Number           X              Y              Z
 ----------------------------------------------------------------
     N         7         0.00000000     0.00000000     0.14591295
     H         1         0.00000000    -1.51121461    -1.01368281
     H         1         0.00000000     1.51121461    -1.01368281
 ----------------------------------------------------------------
   Interatomic distance matrix (Angstroms) 
 
                 N             H             H    
                [ 1]        [ 2]        [ 3]
  N    [ 1]     0.00000
  H    [ 2]     1.00800     0.00000
  H    [ 3]     1.00800     1.59940     0.00000
   Rotational constants (in cm-1): 
          8.6337537305            25.4080089639            13.0775697116
   Rotational constants (in MHz): 
     258833.4615238862        761713.0527317049        392055.7317765501
  There are   48 basis functions.
 @GEOPT-W, Archive file not created for single-point calculation.
                0.25 seconds walltime passed
 --executable xjoda finished with status            0
  flag is                      5
 --invoking executable xvmol
 Serial version of molecule started
 
    -------------------------------------------------------------------
                    Input from MOL file
    -------------------------------------------------------------------
 INTGRL        1    0    1    0    0    0    0    0    0                        
          *** CFOUR Program System (Release V0.1) ***                           
 ROHF-MP4 energy calculation                                                    
     2    2 X  Y       0.10E-08              0    0                             
    9999.00      3.00                                                           
           7.00000000    1    3    3    3    2                                  
 N #1      0.000000000000      0.000000000000      0.145912949151               
     6    1                                                                     
    28016.0879410000      -2.032000000000000E-004                               
    4198.96948720000      -1.576600000000000E-003                               
    955.567460800000      -8.214400000000000E-003                               
    270.389752800000      -3.362630000000000E-002                               
    87.7881067000000      -0.112038400000000                                    
    31.0844836000000      -0.293401800000000                                    
     3    3                                                                     
    11.5261308000000        1.00000000000000       0.000000000000000E+000       
   0.000000000000000E+000                                                       
    4.35352640000000       0.000000000000000E+000   1.00000000000000            
   0.000000000000000E+000                                                       
    1.09984640000000       0.000000000000000E+000  0.000000000000000E+000       
    1.00000000000000                                                            
     2    2                                                                     
   0.452092200000000        1.00000000000000       0.000000000000000E+000       
   0.166425000000000       0.000000000000000E+000   1.00000000000000            
     4    1                                                                     
    87.2096736000000      -2.163300000000000E-003                               
    20.4806984000000      -1.608280000000000E-002                               
    6.34676190000000      -6.959799999999999E-002                               
    2.26225060000000      -0.203184300000000                                    
     2    2                                                                     
   0.861569800000000        1.00000000000000       0.000000000000000E+000       
   0.329709500000000       0.000000000000000E+000   1.00000000000000            
     1    1                                                                     
   0.122098700000000        1.00000000000000                                    
     1    1                                                                     
   0.580000000000000        1.00000000000000                                    
     1    1                                                                     
    1.73000000000000        1.00000000000000                                    
           1.00000000    1    2    3    2                                       
 H #2      0.000000000000     -1.511214614188     -1.013682808944               
     4    1                                                                     
    190.691690000000       7.082000000000000E-004                               
    28.6055320000000       5.467900000000000E-003                               
    6.50959430000000       2.796660000000000E-002                               
    1.84124550000000       0.107645380000000                                    
     2    2                                                                     
   0.598537250000000       0.298897100000000       0.000000000000000E+000       
   0.213976240000000       0.000000000000000E+000  0.474068000000000            
     1    1                                                                     
   8.031628600000000E-002   1.00000000000000                                    
     1    1                                                                     
   0.460000000000000        1.00000000000000                                    
     1    1                                                                     
    1.39000000000000        1.00000000000000                                    
 FINISH                                                                         
 
    -------------------------------------------------------------------
 
 One- and two-electron integrals over symmetry-adapted AOs are calculated.

  Spherical harmonics are used.
  
  Integrals less than  0.10E-13 are neglected.

   Basis function not normalized: 
   Center (as ordered in MOL file):   1
   Angular Momentum type          : s
   Offset within angular momentum :  1
   <chi|chi>                      :    2.4130970662
   Basis function not normalized: 
   Center (as ordered in MOL file):   1
   Angular Momentum type          : p
   Offset within angular momentum :  1
   <chi|chi>                      :    3.7689762524
   Basis function not normalized: 
   Center (as ordered in MOL file):   2
   Angular Momentum type          : s
   Offset within angular momentum :  1
   <chi|chi>                      :    7.5444806023
   Basis function not normalized: 
   Center (as ordered in MOL file):   2
   Angular Momentum type          : s
   Offset within angular momentum :  1
   <chi|chi>                      :    3.3456329954
   Basis function not normalized: 
   Center (as ordered in MOL file):   2
   Angular Momentum type          : s
   Offset within angular momentum :  2
   <chi|chi>                      :    2.1094020267
  Nuclear repulsion energy :    7.6805416353 a.u.
  required memory for a1 array                3002594  words 
  required memory for a2 array                2009125  words 
 basis number:   7    30
 basis number:   1    10
  @MOLECU-I, One electron integrals required         0.00000 seconds.
  @TWOEL-I,      33741 integrals of symmetry type  I I I I
  @TWOEL-I,      70314 integrals of symmetry type  I J I J
  @TWOEL-I,      40169 integrals of symmetry type  I I J J
  @TWOEL-I,      27760 integrals of symmetry type  I J K L
  @TWOEL-I, Total number of 2-e integrals     171984.
  @MOLECU-I, Two electron integrals required         0.27000 seconds.
  @CHECKOUT-I, Total execution time :       0.2800 seconds.
                0.25 seconds walltime passed
 --executable xvmol finished with status            0
 --invoking executable xvmol2ja
  @CHECKOUT-I, Total execution time :       0.0000 seconds.
                0.00 seconds walltime passed
 --executable xvmol2ja finished with status            0
 --invoking executable xvscf
 NSOSCF                     0
  There are   48 functions in the AO basis.

  There are 4 irreducible representations.

       Irrep        # of functions
         1                 22
         2                  8
         3                 14
         4                  4


  Parameters for SCF calculation: 
        SCF reference function: ROHF  
  Maximum number of iterations:  150
     Full symmetry point group: C2v 
     Computational point group: C2v 
        Initial density matrix: MOREAD                 
     SCF convergence tolerance: 10**(-12)
  DIIS convergence acceleration:  ON
          Latest start for DIIS:   8
                     DIIS order:   6

     Alpha population by irrep:   3    1    1    0
      Beta population by irrep:   3    0    1    0


  Memory information:     129881 words required.
  Fock matrices are constructed from AO integral file.
  Initialization and symmetry analysis required      0.000 seconds.

  --------------------------------------------------------------------
  Iteration         Total Energy            Largest Density Difference
  --------------------------------------------------------------------
       0             7.680541635254568              0.0000000000D+00
   current occupation vector 
     3  1  1  0
     3  0  1  0
       1           -44.130432402828504              0.1028750960D+01
   current occupation vector 
     3  1  1  0
     3  0  1  0
       2           -49.779045245375670              0.2095744167D+01
   current occupation vector 
     3  1  1  0
     3  0  1  0
       3           -53.219019821726008              0.2093032116D+01
   current occupation vector 
     3  1  1  0
     3  0  1  0
       4           -53.283278374534397              0.1808933337D+01
   current occupation vector 
     3  1  1  0
     3  0  1  0
       5           -54.652457735299372              0.1787066804D+01
   current occupation vector 
     3  1  1  0
     3  0  1  0
       6           -55.086847091960024              0.8047479203D+00
   current occupation vector 
     3  1  1  0
     3  0  1  0
       7           -55.448455187457917              0.7627279564D+00
   current occupation vector 
     3  1  1  0
     3  0  1  0
       8           -55.542676796663031              0.9897657917D-01
   current occupation vector 
     3  1  1  0
     3  0  1  0
       9           -55.584468483277263              0.1040143417D+00
   current occupation vector 
     3  1  1  0
     3  0  1  0
      10           -55.584709435232647              0.1645131307D-01
   current occupation vector 
     3  1  1  0
     3  0  1  0
      11           -55.584736646679893              0.4034275903D-02
   current occupation vector 
     3  1  1  0
     3  0  1  0
      12           -55.584737246796074              0.2372529623D-03
   current occupation vector 
     3  1  1  0
     3  0  1  0
      13           -55.584737259274526              0.3107737698D-04
   current occupation vector 
     3  1  1  0
     3  0  1  0
      14           -55.584737259833183              0.7660299432D-05
   current occupation vector 
     3  1  1  0
     3  0  1  0
      15           -55.584737259883532              0.1500926106D-05
   current occupation vector 
     3  1  1  0
     3  0  1  0
      16           -55.584737259885785              0.3581171972D-06
   current occupation vector 
     3  1  1  0
     3  0  1  0
      17           -55.584737259885991              0.1380428107D-06
   current occupation vector 
     3  1  1  0
     3  0  1  0
      18           -55.584737259885991              0.3288954667D-07
   current occupation vector 
     3  1  1  0
     3  0  1  0
      19           -55.584737259885834              0.7609571195D-08
   current occupation vector 
     3  1  1  0
     3  0  1  0
      20           -55.584737259886005              0.5521436086D-09
   current occupation vector 
     3  1  1  0
     3  0  1  0
      21           -55.584737259886104              0.2277052435D-09
   current occupation vector 
     3  1  1  0
     3  0  1  0
      22           -55.584737259886133              0.5747885501D-10
   current occupation vector 
     3  1  1  0
     3  0  1  0
      23           -55.584737259886175              0.5598424502D-11
   current occupation vector 
     3  1  1  0
     3  0  1  0
      24           -55.584737259886317              0.2046363079D-11
   current occupation vector 
     3  1  1  0
     3  0  1  0

  SCF has converged.

 save density matrix on hard disk
 total alpha spin electron number:   5.00000000000000     
 total  beta spin electron number:   4.00000000000000     
      25           -55.584737259886140              0.5799805081D-12
  Eigenvector printing suppressed.


       The average multiplicity is    2.0000000
  The expectation value of S**2 is    0.7500000

 @PUTMOS-I, Writing converged MOs to NEWMOS. 
 @PUTMOS-I, Symmetry   1 Full   5 Partial   2
 @PUTMOS-I, Symmetry   2 Full   2 Partial   0
 @PUTMOS-I, Symmetry   3 Full   3 Partial   2
 @PUTMOS-I, Symmetry   4 Full   1 Partial   0
  @DMPJOB-I, Rotating orbitals to semicanonical basis.
             *** Eigenvalues correspond to new basis. ***



 
  ORBITAL EIGENVALUES (ALPHA)  (1H = 27.2113838 eV)

       MO #        E(hartree)               E(eV)           FULLSYM    COMPSYM
       ----   --------------------   --------------------   -------   ---------
    1     1         -15.5877775631        -424.1649981627      A1        A1 (1)
    2     2          -1.1611994111         -31.5978428663      A1        A1 (1)
    3    31          -0.6582015596         -17.9105752683      B2        B2 (3)
    4    23          -0.5033390341         -13.6965516474      B1        B1 (2)
    5     3          -0.5031189410         -13.6905626101      A1        A1 (1)
  +++++++++++++++++++++++++++++++++++++++++++++++++++++++++++++++++++++++++++++
    6     4           0.1113429548           3.0297958795      A1        A1 (1)
    7    32           0.1561536017           4.2491555911      B2        B2 (3)
    8     5           0.3633104278           9.8861794972      A1        A1 (1)
    9    24           0.3661609133           9.9637451503      B1        B1 (2)
   10    33           0.3710917902          10.0979211351      B2        B2 (3)
   11     6           0.4581386414          12.4665864129      A1        A1 (1)
   12    34           0.5595196026          15.2253026603      B2        B2 (3)
   13     7           0.7028246466          19.1248312167      A1        A1 (1)
   14     8           0.8721349656          23.7319992911      A1        A1 (1)
   15    45           0.9197658252          25.0281008934      A2        A2 (4)
   16    25           1.0245932162          27.8805992652      B1        B1 (2)
   17    35           1.1401322357          31.0245758695      B2        B2 (3)
   18     9           1.2331819779          33.5565881203      A1        A1 (1)
   19    36           1.3195094921          35.9056792426      B2        B2 (3)
   20    10           1.4838659436          40.3780457273      A1        A1 (1)
   21    37           1.5506003682          42.1939817690      B2        B2 (3)
   22    26           1.6142567933          43.9261611846      B1        B1 (2)
   23    11           1.7153383444          46.6767300706      A1        A1 (1)
   24    27           1.8346918953          49.9245053533      B1        B1 (2)
   25    38           1.8376139517          50.0040185527      B2        B2 (3)
   26    46           1.8584454969          50.5708737231      A2        A2 (4)
   27    12           2.0767735912          56.5118832955      A1        A1 (1)
   28    13           2.2265818095          60.5883722244      A1        A1 (1)
   29    39           2.7801668407          75.6521869847      B2        B2 (3)
   30    14           3.5494240213          96.5847393833      A1        A1 (1)
   31    47           4.0625203472         110.5468004426      A2        A2 (4)
   32    28           4.1224185956         112.1767146697      B1        B1 (2)
   33    40           4.1605766559         113.2150482936      B2        B2 (3)
   34    15           4.1815614469         113.7860734966      A1        A1 (1)
   35    41           4.2704554264         116.2050016925      B2        B2 (3)
   36    16           4.3471847982         118.2929140787      A1        A1 (1)
   37    29           5.5095740675         149.9231346319      B1        B1 (2)
   38    48           5.5525630068         151.0929231609      A2        A2 (4)
   39    17           5.6676087854         154.2234779978      A1        A1 (1)
   40    42           5.6993152572         155.0862549721      B2        B2 (3)
   41    18           5.8012406799         157.8597867713      A1        A1 (1)
   42    30           5.8180292343         158.3166265669      B1        B1 (2)
   43    19           5.9281188061         161.3123161616      A1        A1 (1)
   44    43           6.0368895676         164.2721191013      B2        B2 (3)
   45    20           6.3754111494         173.4837597952      A1        A1 (1)
   46    44           6.8887300941         187.4518786203      B2        B2 (3)
   47    21          15.1396857007         411.9717985083      A1        A1 (1)
   48    22          78.4221405024        2133.9749651647      A1        A1 (1)


 
  ORBITAL EIGENVALUES ( BETA)  (1H = 27.2113838 eV)

       MO #        E(hartree)               E(eV)           FULLSYM    COMPSYM
       ----   --------------------   --------------------   -------   ---------
    1     1         -15.5620126855        -423.4639001917      A1        A1 (1)
    2     2          -1.0559458387         -28.7337475109      A1        A1 (1)
    3    31          -0.6324893287         -17.2109098841      B2        B2 (3)
    4     3          -0.4623721973         -12.5817873277      A1        A1 (1)
  +++++++++++++++++++++++++++++++++++++++++++++++++++++++++++++++++++++++++++++
    5    23           0.0965918180           2.6283970327      B1        B1 (2)
    6     4           0.1177216104           3.2033679254      A1        A1 (1)
    7    32           0.1582819863           4.3070718806      B2        B2 (3)
    8     5           0.3744111517          10.1882455544      A1        A1 (1)
    9    33           0.3751213354          10.2075706371      B2        B2 (3)
   10    24           0.4731208458          12.8742729272      B1        B1 (2)
   11     6           0.4788363602          13.0297999841      A1        A1 (1)
   12    34           0.5694287438          15.4949441044      B2        B2 (3)
   13     7           0.7282642299          19.8170774812      A1        A1 (1)
   14     8           0.8797868937          23.9402188441      A1        A1 (1)
   15    45           0.9568963289          26.0384732799      A2        A2 (4)
   16    25           1.0652890265          28.9879885802      B1        B1 (2)
   17    35           1.1448732988          31.1535867571      B2        B2 (3)
   18     9           1.2535914863          34.1119590874      A1        A1 (1)
   19    36           1.3243098462          36.0363035213      B2        B2 (3)
   20    10           1.5316267411          41.6776831196      A1        A1 (1)
   21    37           1.5572089142          42.3738094512      B2        B2 (3)
   22    26           1.7207398906          46.8237136163      B1        B1 (2)
   23    11           1.7303195488          47.0843893742      A1        A1 (1)
   24    38           1.8518001138          50.3900436537      B2        B2 (3)
   25    27           1.8958455378          51.5885805913      B1        B1 (2)
   26    46           1.9144820608          52.0957061734      A2        A2 (4)
   27    12           2.0911163705          56.9021701680      A1        A1 (1)
   28    13           2.2623401073          61.5614049890      A1        A1 (1)
   29    39           2.7951991134          76.0612359261      B2        B2 (3)
   30    14           3.5767586721          97.3285530578      A1        A1 (1)
   31    47           4.0709613007         110.7764904667      A2        A2 (4)
   32    28           4.1317551491         112.4307752113      B1        B1 (2)
   33    40           4.1636507223         113.2986978949      B2        B2 (3)
   34    15           4.1864617338         113.9194170844      A1        A1 (1)
   35    41           4.2766413500         116.3733292337      B2        B2 (3)
   36    16           4.3702432308         118.9203659377      A1        A1 (1)
   37    29           5.5760179534         151.7311647145      B1        B1 (2)
   38    48           5.6170379472         152.8473755100      A2        A2 (4)
   39    17           5.6916234633         154.8769506159      A1        A1 (1)
   40    42           5.7019385172         155.1576375062      B2        B2 (3)
   41    18           5.8370503359         158.8342170639      A1        A1 (1)
   42    30           5.8990071249         160.5201470300      B1        B1 (2)
   43    19           5.9343271900         161.4812548776      A1        A1 (1)
   44    43           6.0506609139         164.6468564890      B2        B2 (3)
   45    20           6.4014585597         174.1925458744      A1        A1 (1)
   46    44           6.9014042441         187.7967597806      B2        B2 (3)
   47    21          15.1616470627         412.5693975607      A1        A1 (1)
   48    22          78.4283124063        2134.1429112094      A1        A1 (1)


  VSCF finished.

  @CHECKOUT-I, Total execution time :       0.1100 seconds.
                0.12 seconds walltime passed
 --executable xvscf finished with status            0
 --invoking executable xvtran
  Full UHF integral transformation
  Transformation of IIII integrals :
  2 passes through the AO integral file were required.
       33741 AO integrals were read.
       38417 MO integrals (Spin case AAAA) were written to HF2AA.
       38417 MO integrals (Spin case BBBB) were written to HF2BB.
       76430 MO integrals (Spin case AABB) were written to HF2AB.
  Transformation of IIJJ integrals :
  2 passes through the AO integral file were required.
       40169 AO integrals were read.
       43393 MO integrals (Spin case AAAA) were written to HF2AA.
       43393 MO integrals (Spin case BBBB) were written to HF2BB.
       86786 MO integrals (Spin case AABB) were written to HF2AB.
  Transformation of IJIJ integrals :
  2 passes through the AO integral file were required.
       70314 AO integrals were read.
       75530 MO integrals (Spin case AAAA) were written to HF2AA.
       75530 MO integrals (Spin case BBBB) were written to HF2BB.
      150288 MO integrals (Spin case AABB) were written to HF2AB.
  Transformation of IJKL integrals :
  2 passes through the AO integral file were required.
       27760 AO integrals were read.
       29568 MO integrals (Spin case AAAA) were written to HF2AA.
       29568 MO integrals (Spin case BBBB) were written to HF2BB.
       59136 MO integrals (Spin case AABB) were written to HF2AB.
  Summary of active molecular orbitals: 
------------------------------------------------------------------------
                         * Spin case alpha *
 
  Index      Eigenvalue    Symmetry    Index      Eigenvalue    Symmetry
------------------------------------------------------------------------
     1       -15.5877776        1        25         0.3661609        2
     2        -1.1611994        1        26         1.0245932        2
     3        -0.5031189        1        27         1.6142568        2
     4        -0.5033390        2        28         1.8346919        2
     5        -0.6582016        3        29         4.1224186        2
     6         0.1113430        1        30         5.5095741        2
     7         0.3633104        1        31         5.8180292        2
     8         0.4581386        1        32         0.1561536        3
     9         0.7028246        1        33         0.3710918        3
    10         0.8721350        1        34         0.5595196        3
    11         1.2331820        1        35         1.1401322        3
    12         1.4838659        1        36         1.3195095        3
    13         1.7153383        1        37         1.5506004        3
    14         2.0767736        1        38         1.8376140        3
    15         2.2265818        1        39         2.7801668        3
    16         3.5494240        1        40         4.1605767        3
    17         4.1815614        1        41         4.2704554        3
    18         4.3471848        1        42         5.6993153        3
    19         5.6676088        1        43         6.0368896        3
    20         5.8012407        1        44         6.8887301        3
    21         5.9281188        1        45         0.9197658        4
    22         6.3754111        1        46         1.8584455        4
    23        15.1396857        1        47         4.0625203        4
    24        78.4221405        1        48         5.5525630        4
------------------------------------------------------------------------
------------------------------------------------------------------------
                         * Spin case beta *
 
  Index      Eigenvalue    Symmetry    Index      Eigenvalue    Symmetry
------------------------------------------------------------------------
     1       -15.5620127        1        25         0.4731208        2
     2        -1.0559458        1        26         1.0652890        2
     3        -0.4623722        1        27         1.7207399        2
     4        -0.6324893        3        28         1.8958455        2
     5         0.1177216        1        29         4.1317551        2
     6         0.3744112        1        30         5.5760180        2
     7         0.4788364        1        31         5.8990071        2
     8         0.7282642        1        32         0.1582820        3
     9         0.8797869        1        33         0.3751213        3
    10         1.2535915        1        34         0.5694287        3
    11         1.5316267        1        35         1.1448733        3
    12         1.7303195        1        36         1.3243098        3
    13         2.0911164        1        37         1.5572089        3
    14         2.2623401        1        38         1.8518001        3
    15         3.5767587        1        39         2.7951991        3
    16         4.1864617        1        40         4.1636507        3
    17         4.3702432        1        41         4.2766414        3
    18         5.6916235        1        42         5.7019385        3
    19         5.8370503        1        43         6.0506609        3
    20         5.9343272        1        44         6.9014042        3
    21         6.4014586        1        45         0.9568963        4
    22        15.1616471        1        46         1.9144821        4
    23        78.4283124        1        47         4.0709613        4
    24         0.0965918        2        48         5.6170379        4
------------------------------------------------------------------------
  @CHECKOUT-I, Total execution time :       0.3200 seconds.
                0.25 seconds walltime passed
 --executable xvtran finished with status            0
 --invoking executable xintprc
  Processing integrals for MBPT(4) calculation.
  @GMOIAA-I, Processing MO integrals for spin case AA.
  @GMOIAA-I, Generation of integral list completed.
                      TYPE                NUMBER
                      ----               --------
                      PPPP                120223
                      PPPH                 55097
                      PPHH                  6474
                      PHPH                  4099
                      PHHH                   966
                      HHHH                    49

                     TOTAL                186908
  @GMOIAA-I, Processing MO integrals for spin case BB.
  @GMOIAA-I, Generation of integral list completed.
                      TYPE                NUMBER
                      ----               --------
                      PPPP                129888
                      PPPH                 48384
                      PPHH                  4812
                      PHPH                  3126
                      PHHH                   664
                      HHHH                    34

                     TOTAL                186908
  @GMOIAB-I, Processing MO integrals for spin case AB.
                      TYPE                NUMBER
                      ----               --------
                      PPPP                248838
                      PPPH1H               57213
                      PPPH2H               46800
                      PPHH                 10858
                      PHPH1P                3058
                      PHPH2P                4245
                      PHHH1P                 725
                      PHHH2P                 838
                      HHHH                    65

                     TOTAL                372640

  @FORMT2-I, Second-order MP correlation energies:
  @FORMT2-I, Singles contribution will be calculated.
              ----------------------------------------------
              E(SCF)                =  -55.584737259886 a.u.
              E2(AA)                =   -0.028701379845 a.u.
              E2(BB)                =   -0.013083974749 a.u.
              E2(AB)                =   -0.155770421364 a.u.
              E2(SINGLE)            =   -0.002983751785 a.u.
              E2(TOT)               =   -0.197555775958 a.u.
              Total MP2 energy      =  -55.785276787630 a.u.
              ----------------------------------------------
            ----------------------------------------------
                     Projected spin multiplicities: 
            ----------------------------------------------
             <0|S^2|0>                  =    0.7500000000.
             <0|S^2 T2|0>               =    0.0000000000.
             Projected <0|S^2 exp(T)|0> =    0.7500000000.
             Approximate spin mult.     =    2.0000000000.
            ----------------------------------------------
   Largest T2 amplitudes for spin case AA:
   i   j   a   b             i   j   a   b             i   j   a   b
-----------------------------------------------------------------------------
[  5   4  34  25]-0.01858 [  4   3  25   8] 0.01782 [  5   3  33  10]-0.01484
[  5   3  34   7]-0.01395 [  4   3  25   7]-0.01359 [  5   4  32  25]-0.01295
[  5   4  45   8]-0.01260 [  5   4  34  27]-0.01204 [  5   3  35  10]-0.01162
[  5   3  34   8] 0.01135 [  4   2  25   9]-0.01084 [  4   3  26  10]-0.01070
[  4   3  26   8] 0.01050 [  5   3  34  10]-0.01046 [  4   3  25  13] 0.01012
-----------------------------------------------------------------------------
   Norm of T2AA vector (     2375 symmetry allowed elements):  0.0877916561.
-----------------------------------------------------------------------------
   Largest T2 amplitudes for spin case BB:
   i   j   a   b             i   j   a   b             i   j   a   b
-----------------------------------------------------------------------------
[  4   3  34   6]-0.01529 [  4   3  33   9]-0.01472 [  4   3  35   9]-0.01157
[  4   3  34   9]-0.01091 [  4   3  32   6]-0.01023 [  4   3  34   7] 0.01002
[  3   2  26  24]-0.00912 [  4   2  34   8]-0.00875 [  4   2  45  24]-0.00845
[  3   2   8   7]-0.00802 [  4   3  34  11]-0.00781 [  4   3  34  12] 0.00755
[  3   2   8   6] 0.00738 [  4   3  32   7] 0.00680 [  3   2   6   5]-0.00674
-----------------------------------------------------------------------------
   Norm of T2BB vector (     1686 symmetry allowed elements):  0.0588156871.
-----------------------------------------------------------------------------
   Largest T2 amplitudes for spin case AB:
       _       _                 _       _                 _       _
   i   j   a   b             i   j   a   b             i   j   a   b
-----------------------------------------------------------------------------
[  5   4  34  34]-0.02874 [  4   4  25  34]-0.02171 [  3   3   8   7]-0.02034
[  3   4   8  34] 0.01974 [  4   3  25   6]-0.01918 [  3   3   7   6]-0.01870
[  5   3  34   7] 0.01796 [  3   3  10   9]-0.01744 [  4   3  25   7] 0.01732
[  5   4  32  34]-0.01672 [  5   2  45  24]-0.01655 [  3   3   8   6] 0.01655
[  3   3  33  33]-0.01638 [  5   4  34  32]-0.01622 [  5   4  45  45]-0.01544
-----------------------------------------------------------------------------
   Norm of T2AB vector (    10858 symmetry allowed elements):  0.1939486100.
-----------------------------------------------------------------------------
  @CHECKOUT-I, Total execution time :       0.0700 seconds.
                0.25 seconds walltime passed
 --executable xintprc finished with status            0
 --invoking executable xvcc
   MBPT(4) energy will be calculated.
   The reference state is a ROHF wave function.
   The reference state is a general non-HF wave function.
   Calculating MBPT energy for ROHF reference function.
   The total correlation energy is -0.200539527743 a.u.

  MBPT(2) spin multiplicity: 

            ----------------------------------------------
                     Projected spin multiplicities: 
            ----------------------------------------------
             <0|S^2|0>                  =    0.7500000000.
             <0|S^2 T2|0>               =    0.0000000000.
             <0|S^2 T1|0>               =    0.0000000000.
             Projected <0|S^2 exp(T)|0> =    0.7500000000.
             Approximate spin mult.     =    2.0000000000.
            ----------------------------------------------


   The total correlation energy is -0.015319361820 a.u.

  MBPT(3) spin multiplicity: 

            ----------------------------------------------
                     Projected spin multiplicities: 
            ----------------------------------------------
             <0|S^2|0>                  =    0.7500000000.
             <0|S^2 T2|0>               =    0.0000000000.
             <0|S^2 T1|0>               =    0.0000000000.
             Projected <0|S^2 exp(T)|0> =    0.7500000000.
             Approximate spin mult.     =    2.0000000000.
            ----------------------------------------------


   Linear fourth-order contribution   -0.0048439863.
   T1[1]*T1[2]*W contribution          0.0000000032.
   The total correlation energy is  0.003213484296 a.u.
 @TRPS2-I, E4ST A   -0.000007597985742
 @TRPS2-I, E4ST B   -0.000001634350873

  @ROHFPT-I, Full third order wavefunction not formed.
             Multiplicity not computed.

  -----------------------------------------------------------
       Correction         Increment           Cumulative
  -----------------------------------------------------------
        S-MBPT(2)       -0.002983751785   -55.587721011671
        D-MBPT(2)       -0.197555775958   -55.785276787630
        S-MBPT(3)       -0.000364945823   -55.785641733453
        D-MBPT(3)       -0.014954415997   -55.800596149450
        L-MBPT(4)       -0.004843986344   -55.805440135794
       NL-MBPT(4)        0.003213484296   -55.802226651498
     WT12-MBPT(4)        0.000000003250   -55.802226648249
        T-MBPT(4)       -0.004761370520   -55.806988018769
  -----------------------------------------------------------
  Total MBPT(4)       energy:   -55.806988018769 a.u.
  @CHECKOUT-I, Total execution time :       0.6300 seconds.
 --executable xvcc finished with status            0



  //>>>>>>>>>>>>>>>>>>>>>>>>>>>>>>>>>>>//
  //     Cfour cfour Energy Results    //
  //<<<<<<<<<<<<<<<<<<<<<<<<<<<<<<<<<<<//


  Variable Map:
  ----------------------------------------------------------------------------
  "CURRENT CORRELATION ENERGY"   =>      -0.222250758881
  "CURRENT ENERGY"               =>     -55.806988018769
  "CURRENT REFERENCE ENERGY"     =>     -55.584737259886
  "MP2 CORRELATION ENERGY"       =>      -0.200539527743
  "MP2 OPPOSITE-SPIN ENERGY"     =>      -0.155770421364
  "MP2 SAME-SPIN ENERGY"         =>      -0.041785354594
  "MP2 SINGLES ENERGY"           =>      -0.002983751785
  "MP2 TOTAL ENERGY"             =>     -55.785276787630
  "MP2.5 CORRELATION ENERGY"     =>      -0.208199208653
  "MP2.5 TOTAL ENERGY"           =>     -55.792936468539
  "MP3 CORRELATION ENERGY"       =>      -0.215858889563
  "MP3 TOTAL ENERGY"             =>     -55.800596149450
  "MP4 CORRELATION ENERGY"       =>      -0.222250758881
  "MP4 TOTAL ENERGY"             =>     -55.806988018769
  "MP4(SDQ) CORRELATION ENERGY"  =>      -0.217489391611
  "MP4(SDQ) TOTAL ENERGY"        =>     -55.802226651498
  "MP4(SDTQ) CORRELATION ENERGY" =>      -0.222250758881
  "MP4(SDTQ) TOTAL ENERGY"       =>     -55.806988018769
  "MP4(T) CORRECTION ENERGY"     =>      -0.004761367270
  "NUCLEAR REPULSION ENERGY"     =>       7.680541635300
  "SCF TOTAL ENERGY"             =>     -55.584737259886


  //>>>>>>>>>>>>>>>>>>>>>>>>>>>>>>>>>>>//
  //    ROHF-MP4 energy calculation    //
  //<<<<<<<<<<<<<<<<<<<<<<<<<<<<<<<<<<<//

  GENBAS loaded from /theoryfs2/ds/cdsgroup/scripts/bin/GENBAS
  CFOUR to be run from /scratch/loriab//psi.17521..cfour.87748
 --invoking executable xjoda


   *************************************************************************
         <<<     CCCCCC     CCCCCC   |||     CCCCCC     CCCCCC   >>>
       <<<      CCC        CCC       |||    CCC        CCC         >>>
      <<<      CCC        CCC        |||   CCC        CCC            >>>
    <<<        CCC        CCC        |||   CCC        CCC              >>>
      <<<      CCC        CCC        |||   CCC        CCC            >>>
       <<<      CCC        CCC       |||    CCC        CCC         >>>
         <<<     CCCCCC     CCCCCC   |||     CCCCCC     CCCCCC   >>>
   *************************************************************************

     ****************************************************************
     * CFOUR Coupled-Cluster techniques for Computational Chemistry *
     ****************************************************************
 

   Department of Chemistry                Institut fuer Physikalische Chemie
   University of Texas at Austin          Universitaet Mainz
   Austin, TX  48792, USA                 D-55099 Mainz, Germany
 
                       version 1.2
 
                     john3                                             
                     Mon Oct 14 02:50:19 EDT 2013                      
                     integer*8 version is running
 
    -------------------------------------------------------------------
                    Input from ZMAT file
    -------------------------------------------------------------------
 
 auto-generated by qcdb from molecule default                                   
 N     0.000000000000    0.000000000000   -0.077213791074                       
 H     0.000000000000   -0.799700167014    0.536417729366                       
 H     0.000000000000    0.799700167014    0.536417729366                       
                                                                                
 *CFOUR(BASIS=qz2p                                                              
 OCCUPATION=3-1-1-0/3-0-1-0                                                     
 MULTIPLICITY=2                                                                 
 REFERENCE=ROHF                                                                 
 COORDINATES=CARTESIAN                                                          
 UNITS=ANGSTROM                                                                 
 CALC_LEVEL=MP4                                                                 
 SCF_CONV=12                                                                    
 CHARGE=0)                                                                      
                                                                                
                                                                                
 
  @GTFLGS-I, Calculation type set to UHF.
    -------------------------------------------------------------------
                    CFOUR Control Parameters 
    -------------------------------------------------------------------
        External           Internal           Value            Units
          Name               Name
    -------------------------------------------------------------------
       PRINT                IPRNT               0               ***   
       CALCLEVEL            ICLLVL           MBPT(4)    [  4]   ***   
       DERIV_LEV            IDRLVL            ZERO      [  0]   ***   
       CC_CONV              ICCCNV          10D-  7             ***   
       SCF_CONV             ISCFCV          10D- 12             ***   
       XFORM_TOL            IXFTOL          10D- 11             ***   
       CC_MAXCYC            ICCCYC              0              cycles 
       LINDEP_TOL           ILINDP              8               ***   
       RDO                  IRDOFM             OFF      [  0]   ***   
  
       SCF_EXTRAPO          IRPP                ON      [  1]   ***   
       REFERENCE            IREFNC             ROHF     [  2]   ***   
       CC_EXPORDER          ICCEOR              0               ***   
       TAMP_SUM             IEVERY              0               ***   
       NTOP_TAMP            ITOPT2             15               ***   
       CCORBOPT             ICCORB             OFF      [  0] x 0.01  
       SCF_MAXCYC           ISCFCY            150              cycles 
       OCCUPATION           IOCCU  A   3,  1,  1,  0,
                                   B   3,  0,  1,  0,
       PROPS                IPROPS             OFF      [  0]   ***   
       RELAX_DENS           IRDENS             OFF      [  0]   ***   
  
       SCF_EXPORDE          IRPPOR              6               ***   
       CC_EXTRAPOL          ICCEXT             DIIS     [  1]   ***   
       BRUECKNER            IBRKNR             OFF      [  0]   ***   
       XFIELD               IXEFLD              0             x 10-6  
       YFIELD               IYEFLD              0             x 10-6  
       ZFIELD               IZEFLD              0             x 10-6  
       SAVE_INTS            ISVINT             OFF      [  0]   ***   
       DROPMO               IDRPMO      NONE         
       CHARGE               ICHRGE              0               ***   
       MULTIPLICTY          IMULTP              2               ***   
  
       CPHF_CONVER          ICPHFT          10D- 16             ***   
       CPHF_MAXCYC          ICPHFC             64              cycles 
       INCORE               INCORE             OFF      [  0]   ***   
       MEMORY_SIZE          IMEMSZ         100000000           words  
       FILE_RECSIZ          IFLREC              4096           words  
       NON-HF               INONHF              ON      [  1]   ***   
       ORBITALS             IORBTP         SEMICANONICAL[  1]   ***   
  
       SCF_EXPSTAR          IRPPLS              8               ***   
       LOCK_ORBOCC          ILOCOC             OFF      [  0]   ***   
       HBAR                 IHBAR              OFF      [  0]   ***   
       CACHE_RECS           ICHREC             10               ***   
       GUESS                IGUESS            MOREAD    [  0]   ***   
       JODA_PRINT           IJPRNT              0               ***   
       GEO_METHOD           INR            SINGLE_POINT [  5]   ***   
       GEO_CONV             ICONTL              5              H/bohr 
       EIGENVECTOR          IVEC                1               ***   
  
       NEGEVAL              IDIE             ABORT      [  0]   ***   
       CURVILINEAR          ICURVY            OFF       [  0]   ***   
       SCALE_ON             ISTCRT              0               ***   
       GEO_MAXSTEP          IMXSTP            300            millibohr
       VIBRATION            IVIB              NO        [  0]   ***   
       EVAL_HESS            IRECAL              0            # of cyc.
       INTEGRALS            INTTYP             VMOL     [  1]   ***   
       FD_STEPSIZE          IDISFD              0            10-4 bohr
       POINTS               IGRDFD              0               ***   
       CONTRACTION          ICNTYP          GENERAL     [  1]   ***   
  
       SYMMETRY             ISYM             ON         [  0]   ***   
       BASIS                IBASIS         qz2p         [ 32]   ***   
       SPHERICAL            IDFGHI             ON       [  1]   ***   
       RESET_FLAGS          IRESET             OFF      [  0]   ***   
       PERT_ORB             IPTORB         STANDARD     [  0]   ***   
       GENBAS_1             IGNBS1              0               ***   
       GENBAS_2             IGNBS2              0               ***   
       GENBAS_3             IGNBS3              0               ***   
       COORDINATES          ICOORD         CARTESIAN    [  1]   ***   
       SYM_CHECK            ISYMCK         OVERRIDE     [  1]   ***   
  
       SCF_PRINT            ISCFPR              0               ***   
       ECP                  IECP           OFF          [  0]   ***   
       RESTART_CC           ICCRES         OFF          [  0]   ***   
       TRANS_INV            ITRAIN         USE          [  0]   ***   
       HFSTABILITY          ISTABL         OFF          [  0]   ***   
       ROT_EVEC             ROTVEC              0               ***   
       BRUCK_CONV           IBRTOL          10D-  4             ***   
       UNITS                IUNITS         ANGSTROM     [  0]   ***   
       FD_USEGROUP          IFDGRP         FULL         [  0]   ***   
  
       FD_PROJECT           IFDPRJ         ON           [  0]   ***   
       FD_CALTYPE           IFDCAL         GRADONLY     [  0]   ***   
       VTRAN                IVTRAN         FULL/PARTIAL [  0]   ***   
       HF2_FILE             IHF2Fl         USE          [  1]   ***   
       SUBGROUP             ISUBGP         DEFAULT      [  0]   ***   
       SUBGRPAXIS           ISBXYZ         X            [  0]   ***   
       EXCITE               IEXCIT         NONE         [  0]   ***   
       LINEQ_CONV           IZTACN          10D-  7           cycles  
  
       TREAT_PERT           ITREAT         SIMULTANEOUS [  0]   ***   
       ESTATE_PROP          IEXPRP         OFF          [  0]   ***   
       GEO_MAXCYC           IOPTCY             50               ***   
       ABCDTYPE             IABCDT         STANDARD     [  0]   ***   
       AO_LADDERS           IAOLAD         SINGLEPASS   [  1]   ***   
       FOCK                 IFOCK          AO           [  1]   ***   
       ESTATE_MAXC          IEXMXC             20               ***   
       ESTATE_CONV          IEXTOL          10D-  5             ***   
       DIRECT               IDIRCT         OFF          [  0]   ***   
  
       GAMMA_ABCD           IGABCD         STORE        [  0]   ***   
       LINEQ_TYPE           ILTYPE         DIIS         [  1]   ***   
       LINEQ_MAXCY          ILMAXC             50               ***   
       TRANGRAD             IRESRM         OFF          [  0]   ***   
       PSI                  IPSI           OFF          [  0]   ***   
       GAMMA_ABCI           IGABCI         STORE        [  0]   ***   
       ESTATE_DIAG          IEXDIG         ITERATIVE    [  0]   ***   
       FC_FIELD             IFINFC              0             x 10-6  
       SD_FIELD             IFINSD              0             x 10-6  
       DIFF_TYPE            IDIFTY         RELAXED      [  0]   ***   
  
       LINEQ_EXPOR          ILMAXD              5               ***   
       FINITE_PERT          IFIPER              0             x 10-6  
       ANHARMONIC           IANHAR         OFF          [  0]   ***   
       CC_PROGRAM           ICCPRO         VCC          [  0]   ***   
       OPEN-SHELL           IOPEN          SPIN-ORBITAL [  0]   ***   
       UIJ_THRESHO          IUIJTH             25               ***   
       SCF_DAMPING          IDAMP               0             x 10-3  
       PROP_INTEGR          IINTYP         INTERNAL     [  0]   ***   
       ANH_SYMMETR          IANHSM         ABELIAN      [  0]   ***   
       ANH_ALGORIT          IANALG         STANDARD     [  0]   ***   
  
       EOM_NONIT            EOMNON         OFF          [  0]   ***   
       VIB_ALGORIT          IGEALG         STANDARD     [  0]   ***   
       ANH_DERIVAT          IANDER         SECOND       [  1]   ***   
       SPINROTATIO          ISRCON         OFF          [  0]   ***   
       CIS_CONV             ICISTL              5               ***   
       ANH_STEPSIZ          ICUBST             50000          x 10-6  
       SPIN_FLIP            ISPFLP         OFF          [  0]   ***   
       GRID                 IGRID          OFF          [  0]   ***   
  
       DBOC                 IDBOC          OFF          [  0]   ***   
       EOMFOLLOW            IEOMSR         ENERGY       [  0]   ***   
       T3_EXTRAPOL          IT3EXT         OFF          [  0]   ***   
       ESTATE_LOCK          IESLOC         OFF          [  0]   ***   
       UNOS                 IUNOS          OFF          [  0]   ***   
       FREQ_ALGORI          IVIALG         STANDARD     [  0]   ***   
       RELATIVIST           IRELAT         OFF          [  0]   ***   
       FROZEN_CORE          IFROCO         OFF          [  0]   ***   
       EXCITATION           IEXCIT              0               ***   
       INPUT_MRCC           IMRCC          ON           [  1]   ***   
  
       GIAO                 IGIAO          OFF          [  1]   ***   
       EOM_NSING            IEOMSI          10D-  0             ***   
       EOM_NTRIP            IEOMTR          10D-  0             ***   
       EOM_NSTATES          IMRCCD         DAVIDSON     [  0]   ***   
       DIAG_MRCC            IEOMST          10D-  0             ***   
       NEWNORM              INEWNO         OFF          [  0]   ***   
       TESTSUITE            ITESTS         OFF          [  0]   ***   
       BUFFERSIZE           IBUFFS            600               ***   
       SPINORBIT            ISOCAL         OFF          [  0]   ***   
       DCT                  IDCT           OFF          [  0]   ***   
  
       PARALLEL             IPARAL         ON           [  1]   ***   
       PARA_PRINT           IPPRIN              0               ***   
       COMM_SIZE            IPSIZE            ***               ***   
       PARA_INT             IPINTS         ON           [  1]   ***   
       RAMAN_INT            IRAMIN         OFF          [  0]   ***   
       RAMAN_ORB            IRAMRE         UNRELAXED    [  0]   ***   
       BREIT                IBREIT         OFF          [  0]   ***   
       MEM_UNIT             IMEMU          INTEGERWORDS [  0]   ***   
       SPIN_ORBIT           ISPORB         OFF          [  0]   ***   
       GENBAS_4             IGNBS4              0               ***   
  
       SPIN_SCAL            ISCSMP         OFF          [  0]   ***   
       GRID_ALGO            IGALGO         SERIAL       [  0]   ***   
       VIBPHASE             ISETPH         STANDARD     [  0]   ***   
       SEQUENCE             ISEQUE         OFF          [  0]   ***   
       HESS_TYPE            IHESTP         SCF          [  0]   ***   
       CONTINUUM            ICONTU         NONE         [  0]   ***   
       SCF_NOSTOP           ISCFST         OFF          [  0]   ***   
       CONSTANT             ICONST         OLD          [  1]   ***   
  
       EOM_MRCC             IMRCCE         OLD          [  0]   ***   
       EOM_ORDER            IEXORD         ENERGY       [  0]   ***   
       GIMIC                IGIMIC         OFF          [  0]   ***   
    -------------------------------------------------------------------
  @GETXYZ-I,     3 atoms read from ZMAT.
  1  N          7    14.00307
  2  H          1     1.00783
  3  H          1     1.00783
  1  N          7    14.00307
  2  H          1     1.00783
  3  H          1     1.00783
   Rotational constants (in cm-1): 
          8.6337537305            13.0775697116            25.4080089640
   Rotational constants (in MHz): 
     258833.4615239268        392055.7317761233        761713.0527336670
********************************************************************************
   The full molecular point group is C2v .
   The largest Abelian subgroup of the full molecular point group is C2v .
   The computational point group is C2v .
********************************************************************************
 ----------------------------------------------------------------
 Z-matrix   Atomic            Coordinates (in bohr)
  Symbol    Number           X              Y              Z
 ----------------------------------------------------------------
     N         7         0.00000000     0.00000000    -0.14591295
     H         1         0.00000000    -1.51121461     1.01368281
     H         1         0.00000000     1.51121461     1.01368281
 ----------------------------------------------------------------
   Interatomic distance matrix (Angstroms) 
 
                 N             H             H    
                [ 1]        [ 2]        [ 3]
  N    [ 1]     0.00000
  H    [ 2]     1.00800     0.00000
  H    [ 3]     1.00800     1.59940     0.00000
   Rotational constants (in cm-1): 
          8.6337537305            25.4080089640            13.0775697116
   Rotational constants (in MHz): 
     258833.4615239268        761713.0527336670        392055.7317761233
  @GTFLGS-I, Calculation type set to UHF.
  There are   48 basis functions.
 @GEOPT-W, Archive file not created for single-point calculation.
                0.12 seconds walltime passed
 --executable xjoda finished with status            0
  flag is                      5
 --invoking executable xvmol
 Serial version of molecule started
 
    -------------------------------------------------------------------
                    Input from MOL file
    -------------------------------------------------------------------
 INTGRL        1    0    1    0    0    0    0    0    0                        
          *** CFOUR Program System (Release V0.1) ***                           
 auto-generated by qcdb from molecule default                                   
     2    2 X  Y       0.10E-08              0    0                             
    9999.00      3.00                                                           
           7.00000000    1    3    3    3    2                                  
 N #1      0.000000000000      0.000000000000     -0.145912949150               
     6    1                                                                     
    28016.0879410000      -2.032000000000000E-004                               
    4198.96948720000      -1.576600000000000E-003                               
    955.567460800000      -8.214400000000000E-003                               
    270.389752800000      -3.362630000000000E-002                               
    87.7881067000000      -0.112038400000000                                    
    31.0844836000000      -0.293401800000000                                    
     3    3                                                                     
    11.5261308000000        1.00000000000000       0.000000000000000E+000       
   0.000000000000000E+000                                                       
    4.35352640000000       0.000000000000000E+000   1.00000000000000            
   0.000000000000000E+000                                                       
    1.09984640000000       0.000000000000000E+000  0.000000000000000E+000       
    1.00000000000000                                                            
     2    2                                                                     
   0.452092200000000        1.00000000000000       0.000000000000000E+000       
   0.166425000000000       0.000000000000000E+000   1.00000000000000            
     4    1                                                                     
    87.2096736000000      -2.163300000000000E-003                               
    20.4806984000000      -1.608280000000000E-002                               
    6.34676190000000      -6.959799999999999E-002                               
[...]
   46    44           6.8887300941         187.4518786204      B2        B2 (3)
   47    21          15.1396857007         411.9717985083      A1        A1 (1)
   48    22          78.4221405024        2133.9749651647      A1        A1 (1)


 
  ORBITAL EIGENVALUES ( BETA)  (1H = 27.2113838 eV)

       MO #        E(hartree)               E(eV)           FULLSYM    COMPSYM
       ----   --------------------   --------------------   -------   ---------
    1     1         -15.5620126855        -423.4639001917      A1        A1 (1)
    2     2          -1.0559458387         -28.7337475109      A1        A1 (1)
    3    31          -0.6324893287         -17.2109098841      B2        B2 (3)
    4     3          -0.4623721973         -12.5817873277      A1        A1 (1)
  +++++++++++++++++++++++++++++++++++++++++++++++++++++++++++++++++++++++++++++
    5    23           0.0965918180           2.6283970327      B1        B1 (2)
    6     4           0.1177216104           3.2033679254      A1        A1 (1)
    7    32           0.1582819863           4.3070718806      B2        B2 (3)
    8     5           0.3744111517          10.1882455544      A1        A1 (1)
    9    33           0.3751213354          10.2075706371      B2        B2 (3)
   10    24           0.4731208458          12.8742729272      B1        B1 (2)
   11     6           0.4788363602          13.0297999841      A1        A1 (1)
   12    34           0.5694287438          15.4949441044      B2        B2 (3)
   13     7           0.7282642299          19.8170774811      A1        A1 (1)
   14     8           0.8797868937          23.9402188441      A1        A1 (1)
   15    45           0.9568963289          26.0384732799      A2        A2 (4)
   16    25           1.0652890265          28.9879885802      B1        B1 (2)
   17    35           1.1448732988          31.1535867571      B2        B2 (3)
   18     9           1.2535914863          34.1119590874      A1        A1 (1)
   19    36           1.3243098462          36.0363035213      B2        B2 (3)
   20    10           1.5316267411          41.6776831196      A1        A1 (1)
   21    37           1.5572089142          42.3738094512      B2        B2 (3)
   22    26           1.7207398906          46.8237136163      B1        B1 (2)
   23    11           1.7303195488          47.0843893742      A1        A1 (1)
   24    38           1.8518001138          50.3900436537      B2        B2 (3)
   25    27           1.8958455378          51.5885805912      B1        B1 (2)
   26    46           1.9144820608          52.0957061735      A2        A2 (4)
   27    12           2.0911163705          56.9021701680      A1        A1 (1)
   28    13           2.2623401073          61.5614049890      A1        A1 (1)
   29    39           2.7951991134          76.0612359261      B2        B2 (3)
   30    14           3.5767586721          97.3285530578      A1        A1 (1)
   31    47           4.0709613007         110.7764904667      A2        A2 (4)
   32    28           4.1317551491         112.4307752113      B1        B1 (2)
   33    40           4.1636507223         113.2986978949      B2        B2 (3)
   34    15           4.1864617338         113.9194170844      A1        A1 (1)
   35    41           4.2766413500         116.3733292337      B2        B2 (3)
   36    16           4.3702432308         118.9203659377      A1        A1 (1)
   37    29           5.5760179534         151.7311647145      B1        B1 (2)
   38    48           5.6170379472         152.8473755100      A2        A2 (4)
   39    17           5.6916234633         154.8769506159      A1        A1 (1)
   40    42           5.7019385172         155.1576375062      B2        B2 (3)
   41    18           5.8370503359         158.8342170639      A1        A1 (1)
   42    30           5.8990071249         160.5201470300      B1        B1 (2)
   43    19           5.9343271900         161.4812548776      A1        A1 (1)
   44    43           6.0506609139         164.6468564890      B2        B2 (3)
   45    20           6.4014585597         174.1925458744      A1        A1 (1)
   46    44           6.9014042441         187.7967597806      B2        B2 (3)
   47    21          15.1616470627         412.5693975606      A1        A1 (1)
   48    22          78.4283124063        2134.1429112094      A1        A1 (1)


  VSCF finished.

  @CHECKOUT-I, Total execution time :       0.1100 seconds.
                0.12 seconds walltime passed
 --executable xvscf finished with status            0
 --invoking executable xvtran
  Full UHF integral transformation
  Transformation of IIII integrals :
  2 passes through the AO integral file were required.
       33741 AO integrals were read.
       38417 MO integrals (Spin case AAAA) were written to HF2AA.
       38417 MO integrals (Spin case BBBB) were written to HF2BB.
       76430 MO integrals (Spin case AABB) were written to HF2AB.
  Transformation of IIJJ integrals :
  2 passes through the AO integral file were required.
       40169 AO integrals were read.
       43393 MO integrals (Spin case AAAA) were written to HF2AA.
       43393 MO integrals (Spin case BBBB) were written to HF2BB.
       86786 MO integrals (Spin case AABB) were written to HF2AB.
  Transformation of IJIJ integrals :
  2 passes through the AO integral file were required.
       70314 AO integrals were read.
       75530 MO integrals (Spin case AAAA) were written to HF2AA.
       75530 MO integrals (Spin case BBBB) were written to HF2BB.
      150288 MO integrals (Spin case AABB) were written to HF2AB.
  Transformation of IJKL integrals :
  2 passes through the AO integral file were required.
       27760 AO integrals were read.
       29568 MO integrals (Spin case AAAA) were written to HF2AA.
       29568 MO integrals (Spin case BBBB) were written to HF2BB.
       59136 MO integrals (Spin case AABB) were written to HF2AB.
  Summary of active molecular orbitals: 
------------------------------------------------------------------------
                         * Spin case alpha *
 
  Index      Eigenvalue    Symmetry    Index      Eigenvalue    Symmetry
------------------------------------------------------------------------
     1       -15.5877776        1        25         0.3661609        2
     2        -1.1611994        1        26         1.0245932        2
     3        -0.5031189        1        27         1.6142568        2
     4        -0.5033390        2        28         1.8346919        2
     5        -0.6582016        3        29         4.1224186        2
     6         0.1113430        1        30         5.5095741        2
     7         0.3633104        1        31         5.8180292        2
     8         0.4581386        1        32         0.1561536        3
     9         0.7028246        1        33         0.3710918        3
    10         0.8721350        1        34         0.5595196        3
    11         1.2331820        1        35         1.1401322        3
    12         1.4838659        1        36         1.3195095        3
    13         1.7153383        1        37         1.5506004        3
    14         2.0767736        1        38         1.8376140        3
    15         2.2265818        1        39         2.7801668        3
    16         3.5494240        1        40         4.1605767        3
    17         4.1815614        1        41         4.2704554        3
    18         4.3471848        1        42         5.6993153        3
    19         5.6676088        1        43         6.0368896        3
    20         5.8012407        1        44         6.8887301        3
    21         5.9281188        1        45         0.9197658        4
    22         6.3754111        1        46         1.8584455        4
    23        15.1396857        1        47         4.0625203        4
    24        78.4221405        1        48         5.5525630        4
------------------------------------------------------------------------
------------------------------------------------------------------------
                         * Spin case beta *
 
  Index      Eigenvalue    Symmetry    Index      Eigenvalue    Symmetry
------------------------------------------------------------------------
     1       -15.5620127        1        25         0.4731208        2
     2        -1.0559458        1        26         1.0652890        2
     3        -0.4623722        1        27         1.7207399        2
     4        -0.6324893        3        28         1.8958455        2
     5         0.1177216        1        29         4.1317551        2
     6         0.3744112        1        30         5.5760180        2
     7         0.4788364        1        31         5.8990071        2
     8         0.7282642        1        32         0.1582820        3
     9         0.8797869        1        33         0.3751213        3
    10         1.2535915        1        34         0.5694287        3
    11         1.5316267        1        35         1.1448733        3
    12         1.7303195        1        36         1.3243098        3
    13         2.0911164        1        37         1.5572089        3
    14         2.2623401        1        38         1.8518001        3
    15         3.5767587        1        39         2.7951991        3
    16         4.1864617        1        40         4.1636507        3
    17         4.3702432        1        41         4.2766414        3
    18         5.6916235        1        42         5.7019385        3
    19         5.8370503        1        43         6.0506609        3
    20         5.9343272        1        44         6.9014042        3
    21         6.4014586        1        45         0.9568963        4
    22        15.1616471        1        46         1.9144821        4
    23        78.4283124        1        47         4.0709613        4
    24         0.0965918        2        48         5.6170379        4
------------------------------------------------------------------------
  @CHECKOUT-I, Total execution time :       0.2900 seconds.
                0.25 seconds walltime passed
 --executable xvtran finished with status            0
 --invoking executable xintprc
  Processing integrals for MBPT(4) calculation.
  @GMOIAA-I, Processing MO integrals for spin case AA.
  @GMOIAA-I, Generation of integral list completed.
                      TYPE                NUMBER
                      ----               --------
                      PPPP                120223
                      PPPH                 55097
                      PPHH                  6474
                      PHPH                  4099
                      PHHH                   966
                      HHHH                    49

                     TOTAL                186908
  @GMOIAA-I, Processing MO integrals for spin case BB.
  @GMOIAA-I, Generation of integral list completed.
                      TYPE                NUMBER
                      ----               --------
                      PPPP                129888
                      PPPH                 48384
                      PPHH                  4812
                      PHPH                  3126
                      PHHH                   664
                      HHHH                    34

                     TOTAL                186908
  @GMOIAB-I, Processing MO integrals for spin case AB.
                      TYPE                NUMBER
                      ----               --------
                      PPPP                248838
                      PPPH1H               57213
                      PPPH2H               46800
                      PPHH                 10858
                      PHPH1P                3058
                      PHPH2P                4245
                      PHHH1P                 725
                      PHHH2P                 838
                      HHHH                    65

                     TOTAL                372640

  @FORMT2-I, Second-order MP correlation energies:
  @FORMT2-I, Singles contribution will be calculated.
              ----------------------------------------------
              E(SCF)                =  -55.584737259886 a.u.
              E2(AA)                =   -0.028701379845 a.u.
              E2(BB)                =   -0.013083974749 a.u.
              E2(AB)                =   -0.155770421364 a.u.
              E2(SINGLE)            =   -0.002983751785 a.u.
              E2(TOT)               =   -0.197555775958 a.u.
              Total MP2 energy      =  -55.785276787630 a.u.
              ----------------------------------------------
            ----------------------------------------------
                     Projected spin multiplicities: 
            ----------------------------------------------
             <0|S^2|0>                  =    0.7500000000.
             <0|S^2 T2|0>               =    0.0000000000.
             Projected <0|S^2 exp(T)|0> =    0.7500000000.
             Approximate spin mult.     =    2.0000000000.
            ----------------------------------------------
   Largest T2 amplitudes for spin case AA:
   i   j   a   b             i   j   a   b             i   j   a   b
-----------------------------------------------------------------------------
[  5   4  34  25]-0.01858 [  4   3  25   8] 0.01782 [  5   3  33  10]-0.01484
[  5   3  34   7]-0.01395 [  4   3  25   7]-0.01359 [  5   4  32  25]-0.01295
[  5   4  45   8]-0.01260 [  5   4  34  27]-0.01204 [  5   3  35  10]-0.01162
[  5   3  34   8] 0.01135 [  4   2  25   9]-0.01084 [  4   3  26  10]-0.01070
[  4   3  26   8] 0.01050 [  5   3  34  10]-0.01046 [  4   3  25  13] 0.01012
-----------------------------------------------------------------------------
   Norm of T2AA vector (     2375 symmetry allowed elements):  0.0877916561.
-----------------------------------------------------------------------------
   Largest T2 amplitudes for spin case BB:
   i   j   a   b             i   j   a   b             i   j   a   b
-----------------------------------------------------------------------------
[  4   3  34   6]-0.01529 [  4   3  33   9]-0.01472 [  4   3  35   9]-0.01157
[  4   3  34   9]-0.01091 [  4   3  32   6]-0.01023 [  4   3  34   7] 0.01002
[  3   2  26  24]-0.00912 [  4   2  34   8]-0.00875 [  4   2  45  24]-0.00845
[  3   2   8   7]-0.00802 [  4   3  34  11]-0.00781 [  4   3  34  12] 0.00755
[  3   2   8   6] 0.00738 [  4   3  32   7] 0.00680 [  3   2   6   5]-0.00674
-----------------------------------------------------------------------------
   Norm of T2BB vector (     1686 symmetry allowed elements):  0.0588156871.
-----------------------------------------------------------------------------
   Largest T2 amplitudes for spin case AB:
       _       _                 _       _                 _       _
   i   j   a   b             i   j   a   b             i   j   a   b
-----------------------------------------------------------------------------
[  5   4  34  34]-0.02874 [  4   4  25  34]-0.02171 [  3   3   8   7]-0.02034
[  3   4   8  34] 0.01974 [  4   3  25   6]-0.01918 [  3   3   7   6]-0.01870
[  5   3  34   7] 0.01796 [  3   3  10   9]-0.01744 [  4   3  25   7] 0.01732
[  5   4  32  34]-0.01672 [  5   2  45  24]-0.01655 [  3   3   8   6] 0.01655
[  3   3  33  33]-0.01638 [  5   4  34  32]-0.01622 [  5   4  45  45]-0.01544
-----------------------------------------------------------------------------
   Norm of T2AB vector (    10858 symmetry allowed elements):  0.1939486100.
-----------------------------------------------------------------------------
  @CHECKOUT-I, Total execution time :       0.0800 seconds.
                0.25 seconds walltime passed
 --executable xintprc finished with status            0
 --invoking executable xvcc
   MBPT(4) energy will be calculated.
   The reference state is a ROHF wave function.
   The reference state is a general non-HF wave function.
   Calculating MBPT energy for ROHF reference function.
   The total correlation energy is -0.200539527743 a.u.

  MBPT(2) spin multiplicity: 

            ----------------------------------------------
                     Projected spin multiplicities: 
            ----------------------------------------------
             <0|S^2|0>                  =    0.7500000000.
             <0|S^2 T2|0>               =    0.0000000000.
             <0|S^2 T1|0>               =    0.0000000000.
             Projected <0|S^2 exp(T)|0> =    0.7500000000.
             Approximate spin mult.     =    2.0000000000.
            ----------------------------------------------


   The total correlation energy is -0.015319361820 a.u.

  MBPT(3) spin multiplicity: 

            ----------------------------------------------
                     Projected spin multiplicities: 
            ----------------------------------------------
             <0|S^2|0>                  =    0.7500000000.
             <0|S^2 T2|0>               =    0.0000000000.
             <0|S^2 T1|0>               =    0.0000000000.
             Projected <0|S^2 exp(T)|0> =    0.7500000000.
             Approximate spin mult.     =    2.0000000000.
            ----------------------------------------------


   Linear fourth-order contribution   -0.0048439863.
   T1[1]*T1[2]*W contribution          0.0000000032.
   The total correlation energy is  0.003213484296 a.u.
 @TRPS2-I, E4ST A   -0.000007597985742
 @TRPS2-I, E4ST B   -0.000001634350873

  @ROHFPT-I, Full third order wavefunction not formed.
             Multiplicity not computed.

  -----------------------------------------------------------
       Correction         Increment           Cumulative
  -----------------------------------------------------------
        S-MBPT(2)       -0.002983751785   -55.587721011672
        D-MBPT(2)       -0.197555775958   -55.785276787630
        S-MBPT(3)       -0.000364945823   -55.785641733453
        D-MBPT(3)       -0.014954415997   -55.800596149450
        L-MBPT(4)       -0.004843986344   -55.805440135794
       NL-MBPT(4)        0.003213484296   -55.802226651499
     WT12-MBPT(4)        0.000000003250   -55.802226648249
        T-MBPT(4)       -0.004761370520   -55.806988018769
  -----------------------------------------------------------
  Total MBPT(4)       energy:   -55.806988018769 a.u.
  @CHECKOUT-I, Total execution time :       0.5300 seconds.
 --executable xvcc finished with status            0



  //>>>>>>>>>>>>>>>>>>>>>>>>>>>>>>>>>>>//
  //     Cfour cfour Energy Results    //
  //<<<<<<<<<<<<<<<<<<<<<<<<<<<<<<<<<<<//


  Variable Map:
  ----------------------------------------------------------------------------
  "CURRENT CORRELATION ENERGY"   =>      -0.222250758881
  "CURRENT ENERGY"               =>     -55.806988018769
  "CURRENT REFERENCE ENERGY"     =>     -55.584737259886
  "MP2 CORRELATION ENERGY"       =>      -0.200539527743
  "MP2 OPPOSITE-SPIN ENERGY"     =>      -0.155770421364
  "MP2 SAME-SPIN ENERGY"         =>      -0.041785354594
  "MP2 SINGLES ENERGY"           =>      -0.002983751785
  "MP2 TOTAL ENERGY"             =>     -55.785276787630
  "MP2.5 CORRELATION ENERGY"     =>      -0.208199208653
  "MP2.5 TOTAL ENERGY"           =>     -55.792936468539
  "MP3 CORRELATION ENERGY"       =>      -0.215858889563
  "MP3 TOTAL ENERGY"             =>     -55.800596149450
  "MP4 CORRELATION ENERGY"       =>      -0.222250758881
  "MP4 TOTAL ENERGY"             =>     -55.806988018769
  "MP4(SDQ) CORRELATION ENERGY"  =>      -0.217489391611
  "MP4(SDQ) TOTAL ENERGY"        =>     -55.802226651499
  "MP4(SDTQ) CORRELATION ENERGY" =>      -0.222250758881
  "MP4(SDTQ) TOTAL ENERGY"       =>     -55.806988018769
  "MP4(T) CORRECTION ENERGY"     =>      -0.004761367270
  "NUCLEAR REPULSION ENERGY"     =>       7.680541635300
  "SCF TOTAL ENERGY"             =>     -55.584737259886



*** PSI4 exiting successfully. Buy a developer a beer!
