
    -----------------------------------------------------------------------
          Psi4: An Open-Source Ab Initio Electronic Structure Package
                               Psi4 1.7a1.dev7 

                         Git: Rev {tdscf_excitations_symmetry} 7a26583 dirty


    D. G. A. Smith, L. A. Burns, A. C. Simmonett, R. M. Parrish,
    M. C. Schieber, R. Galvelis, P. Kraus, H. Kruse, R. Di Remigio,
    A. Alenaizan, A. M. James, S. Lehtola, J. P. Misiewicz, M. Scheurer,
    R. A. Shaw, J. B. Schriber, Y. Xie, Z. L. Glick, D. A. Sirianni,
    J. S. O'Brien, J. M. Waldrop, A. Kumar, E. G. Hohenstein,
    B. P. Pritchard, B. R. Brooks, H. F. Schaefer III, A. Yu. Sokolov,
    K. Patkowski, A. E. DePrince III, U. Bozkaya, R. A. King,
    F. A. Evangelista, J. M. Turney, T. D. Crawford, C. D. Sherrill,
    J. Chem. Phys. 152(18) 184108 (2020). https://doi.org/10.1063/5.0006002

                            Additional Code Authors
    E. T. Seidl, C. L. Janssen, E. F. Valeev, M. L. Leininger,
    J. F. Gonthier, R. M. Richard, H. R. McAlexander, M. Saitow, X. Wang,
    P. Verma, M. H. Lechner, and A. Jiang

             Previous Authors, Complete List of Code Contributors,
                       and Citations for Specific Modules
    https://github.com/psi4/psi4/blob/master/codemeta.json
    https://github.com/psi4/psi4/graphs/contributors
    http://psicode.org/psi4manual/master/introduction.html#citing-psifour

    -----------------------------------------------------------------------


    Psi4 started on: Tuesday, 14 June 2022 07:42PM

    Process ID: 2953
    Host:       sat.lazhome.net
    PSIDATADIR: /home/laz/src/psi4laz/psi4/objdir/stage/share/psi4
    Memory:     500.0 MiB
    Threads:    1
    
  ==> Input File <==

--------------------------------------------------------------------------
#! td-wb97x singlet excitation energies of methylene (tda)

rhf_wB97X_TDA_cc_pvdz = [0.24888846143844873,
                         0.3136260679219220,
                         0.34848280029565865,
                         0.41301093564098723,
                         0.4563016375242363,
                         0.5822268659394665,
                         0.7192503897441206,
                         0.7532949620910153,
                         0.8325669256159359,
                         0.8418130551522903]


molecule water{
0 1

O           0.000000    0.000000    0.135446
H          -0.000000    0.866812   -0.541782
H          -0.000000   -0.866812   -0.541782
symmetry c1
}

set {
    reference rhf
    scf_type pk
    e_convergence 8
    d_convergence 8
}

set TDSCF_STATES [10]
set TDSCF_TDA true

energy('td-wB97X/cc-pvdz')

for n, ref in enumerate(rhf_wB97X_TDA_cc_pvdz):
    ex_en = psi4.variable(f"TD-wB97X ROOT 0 -> ROOT {n+1} EXCITATION ENERGY - A TRANSITION")
    compare_values(ref,ex_en, 4, f"TD-wB97X/cc-pvdz ROOT 0 -> ROOT {n+1} EXCITATION ENERGY - A TRANSITION")
--------------------------------------------------------------------------

Scratch directory: /tmp/

*** tstart() called on sat.lazhome.net
*** at Tue Jun 14 19:42:24 2022

   => Loading Basis Set <=

    Name: CC-PVDZ
    Role: ORBITAL
    Keyword: BASIS
    atoms 1   entry O          line   198 file /home/laz/src/psi4laz/psi4/objdir/stage/share/psi4/basis/cc-pvdz.gbs 
    atoms 2-3 entry H          line    22 file /home/laz/src/psi4laz/psi4/objdir/stage/share/psi4/basis/cc-pvdz.gbs 


         ---------------------------------------------------------
                                   SCF
               by Justin Turney, Rob Parrish, Andy Simmonett
                          and Daniel G. A. Smith
                              RKS Reference
                        1 Threads,    500 MiB Core
         ---------------------------------------------------------

  ==> Geometry <==

    Molecular point group: c1
    Full point group: C2v

    Geometry (in Angstrom), charge = 0, multiplicity = 1:

       Center              X                  Y                   Z               Mass       
    ------------   -----------------  -----------------  -----------------  -----------------
         O            0.000000000000     0.000000000000     0.075791885807    15.994914619570
         H            0.000000000000     0.866812000000    -0.601436114193     1.007825032230
         H            0.000000000000    -0.866812000000    -0.601436114193     1.007825032230

  Running in c1 symmetry.

  Rotational constants: A =     20.53321  B =     11.13093  C =      7.21806 [cm^-1]
  Rotational constants: A = 615570.29510  B = 333696.94645  C = 216392.09572 [MHz]
  Nuclear repulsion =    8.002363854135305

  Charge       = 0
  Multiplicity = 1
  Electrons    = 10
  Nalpha       = 5
  Nbeta        = 5

  ==> Algorithm <==

  SCF Algorithm Type is PK.
  DIIS enabled.
  MOM disabled.
  Fractional occupation disabled.
  Guess Type is SAD.
  Energy threshold   = 1.00e-08
  Density threshold  = 1.00e-08
  Integral threshold = 1.00e-12

  ==> Primary Basis <==

  Basis Set: CC-PVDZ
    Blend: CC-PVDZ
    Number of shells: 12
    Number of basis functions: 24
    Number of Cartesian functions: 25
    Spherical Harmonics?: true
    Max angular momentum: 2

  ==> DFT Potential <==

   => LibXC <=

    Version 5.1.5
    S. Lehtola, C. Steigemann, M. J. Oliveira, and M. A. Marques, SoftwareX 7, 1 (2018) (10.1016/j.softx.2017.11.002)

   => Composite Functional: WB97X <= 

    wB97X Hyb-GGA Exchange-Correlation Functional

    J.-D. Chai and M. Head-Gordon, J. Chem. Phys. 128, 084106 (2008) (10.1063/1.2834918)

    Deriv               =              1
    GGA                 =           TRUE
    Meta                =          FALSE

    Exchange Hybrid     =           TRUE
    MP2 Hybrid          =          FALSE

   => Exchange-Correlation Functionals <=

    1.0000   wB97X range-separated functional

   => Exact (HF) Exchange <=

    0.8423            HF,LR [omega = 0.3000]
    0.1577               HF 

   => LibXC Density Thresholds  <==

    XC_HYB_GGA_XC_WB97X:  1.00E-14 

   => Molecular Quadrature <=

    Radial Scheme          =       TREUTLER
    Pruning Scheme         =           NONE
    Nuclear Scheme         =       TREUTLER

    Blocking Scheme        =         OCTREE
    BS radius alpha        =              1
    Pruning alpha          =              1
    Radial Points          =             75
    Spherical Points       =            302
    Total Points           =          66272
    Total Blocks           =            555
    Max Points             =            256
    Max Functions          =             24
    Weights Tolerance      =       1.00E-15

  ==> Integral Setup <==

  Using in-core PK algorithm.
   Calculation information:
      Number of atoms:                   3
      Number of AO shells:              12
      Number of primitives:             32
      Number of atomic orbitals:        25
      Number of basis functions:        24

      Integral cutoff                 1.00e-12
      Number of threads:                 1

  Performing in-core PK
  Using 135450 doubles for integral storage.
  We computed 3081 shell quartets total.
  Whereas there are 3081 unique shell quartets.

  Computing range-separated integrals for PK
  We computed 3081 wK shell quartets total.
  Whereas there are 3081 wK unique shell quartets.

  ==> DiskJK: Disk-Based J/K Matrices <==

    J tasked:                  Yes
    K tasked:                  Yes
    wK tasked:                 Yes
    Omega:               3.000E-01
    Memory [MiB]:              327
    Schwarz Cutoff:          1E-12

    OpenMP threads:              1

  Cached 100.0% of DFT collocation blocks in 0.046 [GiB].

  Minimum eigenvalue in the overlap matrix is 4.6103837018E-02.
  Reciprocal condition number of the overlap matrix is 1.3490661712E-02.
    Using symmetric orthogonalization.

  ==> Pre-Iterations <==

  SCF Guess: Superposition of Atomic Densities via on-the-fly atomic UHF (no occupation information).

   -------------------------
    Irrep   Nso     Nmo    
   -------------------------
     A         24      24 
   -------------------------
    Total      24      24
   -------------------------

  ==> Iterations <==

                        Total Energy        Delta E     RMS |[F,P]|

   @RKS iter SAD:   -75.82538727182806   -7.58254e+01   0.00000e+00 
   @RKS iter   1:   -76.24870831810129   -4.23321e-01   2.28250e-02 DIIS/ADIIS
   @RKS iter   2:   -76.24436550816512    4.34281e-03   2.48492e-02 DIIS/ADIIS
   @RKS iter   3:   -76.37349855046509   -1.29133e-01   7.45202e-04 DIIS/ADIIS
   @RKS iter   4:   -76.37369202322043   -1.93473e-04   2.73557e-04 DIIS/ADIIS
   @RKS iter   5:   -76.37371552037372   -2.34972e-05   3.96467e-05 DIIS
   @RKS iter   6:   -76.37371627547654   -7.55103e-07   6.37382e-06 DIIS
   @RKS iter   7:   -76.37371632342999   -4.79534e-08   1.42622e-06 DIIS
   @RKS iter   8:   -76.37371632570049   -2.27050e-09   1.37058e-07 DIIS
   @RKS iter   9:   -76.37371632571872   -1.82325e-11   1.76597e-08 DIIS
   @RKS iter  10:   -76.37371632571882   -9.94760e-14   1.27570e-09 DIIS
  Energy and wave function converged.


  ==> Post-Iterations <==

   Electrons on quadrature grid:
      Ntotal   =   10.0000000519 ; deviation = 5.190e-08 

    Orbital Energies [Eh]
    ---------------------

    Doubly Occupied:                                                      

       1A    -19.211011     2A     -1.068660     3A     -0.573367  
       4A     -0.464838     5A     -0.389058  

    Virtual:                                                              

       6A      0.119648     7A      0.191875     8A      0.604504  
       9A      0.634094    10A      1.019930    11A      1.027031  
      12A      1.112876    13A      1.322665    14A      1.341873  
      15A      1.525241    16A      1.662860    17A      1.717248  
      18A      1.954630    19A      2.015019    20A      2.923054  
      21A      2.953865    22A      3.064951    23A      3.450264  
      24A      3.699420  

    Final Occupation by Irrep:
              A 
    DOCC [     5 ]

  @RKS Final Energy:   -76.37371632571882

   => Energetics <=

    Nuclear Repulsion Energy =              8.0023638541353055
    One-Electron Energy =                -121.0198712309100983
    Two-Electron Energy =                  43.1406036044106571
    DFT Exchange-Correlation Energy =      -6.4968125533546939
    Empirical Dispersion Energy =           0.0000000000000000
    VV10 Nonlocal Energy =                  0.0000000000000000
    Total Energy =                        -76.3737163257188172

Computation Completed


Properties will be evaluated at   0.000000,   0.000000,   0.000000 [a0]

Properties computed using the SCF density matrix


 Multipole Moments:

 ------------------------------------------------------------------------------------
     Multipole            Electronic (a.u.)      Nuclear  (a.u.)        Total (a.u.)
 ------------------------------------------------------------------------------------

 L = 1.  Multiply by 2.5417464519 to convert [e a0] to [Debye]
 Dipole X            :         -0.0000000            0.0000000           -0.0000000
 Dipole Y            :          0.0000000            0.0000000            0.0000000
 Dipole Z            :          0.3322323           -1.1272918           -0.7950595
 Magnitude           :                                                    0.7950595

 ------------------------------------------------------------------------------------

*** tstop() called on sat.lazhome.net at Tue Jun 14 19:42:26 2022
Module time:
	user time   =       2.38 seconds =       0.04 minutes
	system time =       0.10 seconds =       0.00 minutes
	total time  =          2 seconds =       0.03 minutes
Total time:
	user time   =       2.38 seconds =       0.04 minutes
	system time =       0.10 seconds =       0.00 minutes
	total time  =          2 seconds =       0.03 minutes

******************************************************************************************
**********                               WARNING                                **********
**********       The names of excited state variables changed between 1.5       **********
**********     and 1.6. For a quick solution, remove the symmetry specifier     **********
**********   from the variable name. For full details, see 'Notes on Psivars'   **********
**********                        in the documentation.                         **********
******************************************************************************************



         ---------------------------------------------------------
                         TDSCF excitation energies                
                 by Andrew M. James and Daniel G. A. Smith        
         ---------------------------------------------------------

  ==> Options <==

     Residual threshold  : 1.0000e-06
     Initial guess       : denominators
     Reference           : RHF
     Solver type         : TDA (Davidson)


  ==> Requested Excitations <==

      10 singlet states with A symmetry


  ==> Seeking the lowest 10 singlet states with A symmetry

                         Generalized Davidson Solver                         
                               By Ruhee Dcunha                               

  ==> Options <==

    Max number of iterations        = 60   
    Eigenvector tolerance           = 1.0000e-06
    Max number of expansion vectors = 3000 

  => Iterations <=
                           Max[D[value]]     Max[|R|]   # vectors
  DavidsonSolver iter   1:   8.42957e-01  7.03883e-02     40      
  DavidsonSolver iter   2:   2.70401e-03  2.42998e-03     50      
  DavidsonSolver iter   3:   1.71329e-06  1.97103e-04     60      
  DavidsonSolver iter   4:   2.99649e-09  1.04489e-05     70      
  DavidsonSolver iter   5:   1.13891e-11  7.16840e-07     77      Converged

******************************************************************************************
**********                               WARNING                                **********
**********  Length-gauge rotatory strengths are **NOT** gauge-origin invariant  **********
******************************************************************************************

                                    Excitation Energy         Total Energy        Oscillator Strength             Rotatory Strength       
     #   Sym: GS->ES (Trans)        au              eV              au          au (length)    au (velocity)    au (length)    au (velocity) 
    ---- -------------------- --------------- --------------- --------------- --------------- --------------- --------------- ---------------
     1        A->A (1 A)       0.24888         6.77226        -76.12484        0.0115          0.1095          0.0000          0.0000        
     2        A->A (1 A)       0.31363         8.53423        -76.06009        0.0000          0.0000         -0.0000         -0.0000        
     3        A->A (1 A)       0.34848         9.48266        -76.02524        0.0959          0.1190          0.0000          0.0000        
     4        A->A (1 A)       0.41300         11.23824       -75.96072        0.0470          0.0137          0.0000         -0.0000        
     5        A->A (1 A)       0.45629         12.41639       -75.91742        0.5107          0.3505          0.0000          0.0000        
     6        A->A (1 A)       0.58222         15.84290       -75.79150        0.2592          0.1462          0.0000          0.0000        
     7        A->A (1 A)       0.71925         19.57181       -75.65447        0.0000          0.0000         -0.0000         -0.0000        
     8        A->A (1 A)       0.75329         20.49815       -75.62042        0.0760          0.0527         -0.0000         -0.0000        
     9        A->A (1 A)       0.83260         22.65611       -75.54112        0.0890          0.0321         -0.0000         -0.0000        
     10       A->A (1 A)       0.84182         22.90705       -75.53190        0.0004          0.0108          0.0000          0.0000        



Contributing excitations
Only contributions with abs(coeff) > 1.00e-01 will be printed:

Excited State    1 (1 A):   0.24888 au   183.08 nm f = 0.0115
  Sums of squares: Xssq =  1.000000e+00
      5a  ->   6a     0.998415 (99.683%)

Excited State    2 (1 A):   0.31363 au   145.28 nm f = 0.0000
  Sums of squares: Xssq =  1.000000e+00
      5a  ->   7a     0.995202 (99.043%)

Excited State    3 (1 A):   0.34848 au   130.75 nm f = 0.0959
  Sums of squares: Xssq =  1.000000e+00
      3a  ->   7a    -0.191057 ( 3.650%)
      4a  ->   6a    -0.977183 (95.489%)

Excited State    4 (1 A):   0.41300 au   110.32 nm f = 0.0470
  Sums of squares: Xssq =  1.000000e+00
      3a  ->   6a     0.334350 (11.179%)
      4a  ->   7a     0.938417 (88.063%)

Excited State    5 (1 A):   0.45629 au   99.86 nm f = 0.5107
  Sums of squares: Xssq =  1.000000e+00
      3a  ->   6a    -0.938371 (88.054%)
      4a  ->   7a     0.332320 (11.044%)

Excited State    6 (1 A):   0.58222 au   78.26 nm f = 0.2592
  Sums of squares: Xssq =  1.000000e+00
      3a  ->   7a     0.951590 (90.552%)
      4a  ->   6a    -0.170897 ( 2.921%)
      4a  ->   9a    -0.139849 ( 1.956%)
      4a  ->  10a     0.105797 ( 1.119%)
      5a  ->  11a    -0.143840 ( 2.069%)

Excited State    7 (1 A):   0.71925 au   63.35 nm f = 0.0000
  Sums of squares: Xssq =  1.000000e+00
      5a  ->   8a    -0.995436 (99.089%)

Excited State    8 (1 A):   0.75329 au   60.49 nm f = 0.0760
  Sums of squares: Xssq =  1.000000e+00
      5a  ->   9a    -0.996902 (99.381%)

Excited State    9 (1 A):   0.83260 au   54.72 nm f = 0.0890
  Sums of squares: Xssq =  1.000000e+00
      3a  ->   9a    -0.268963 ( 7.234%)
      4a  ->   8a     0.955637 (91.324%)

Excited State   10 (1 A):   0.84182 au   54.12 nm f = 0.0004
  Sums of squares: Xssq =  1.000000e+00
      2a  ->   6a     0.185480 ( 3.440%)
      3a  ->   8a     0.184067 ( 3.388%)
      4a  ->   9a    -0.954674 (91.140%)


******************************************************************************************
**********                               WARNING                                **********
**********       The names of excited state variables changed between 1.5       **********
**********     and 1.6. For a quick solution, remove the symmetry specifier     **********
**********   from the variable name. For full details, see 'Notes on Psivars'   **********
**********                        in the documentation.                         **********
******************************************************************************************

    TD-wB97X/cc-pvdz ROOT 0 -> ROOT 1 EXCITATION ENERGY - A TRANSITION....................PASSED
    TD-wB97X/cc-pvdz ROOT 0 -> ROOT 2 EXCITATION ENERGY - A TRANSITION....................PASSED
    TD-wB97X/cc-pvdz ROOT 0 -> ROOT 3 EXCITATION ENERGY - A TRANSITION....................PASSED
    TD-wB97X/cc-pvdz ROOT 0 -> ROOT 4 EXCITATION ENERGY - A TRANSITION....................PASSED
    TD-wB97X/cc-pvdz ROOT 0 -> ROOT 5 EXCITATION ENERGY - A TRANSITION....................PASSED
    TD-wB97X/cc-pvdz ROOT 0 -> ROOT 6 EXCITATION ENERGY - A TRANSITION....................PASSED
    TD-wB97X/cc-pvdz ROOT 0 -> ROOT 7 EXCITATION ENERGY - A TRANSITION....................PASSED
    TD-wB97X/cc-pvdz ROOT 0 -> ROOT 8 EXCITATION ENERGY - A TRANSITION....................PASSED
    TD-wB97X/cc-pvdz ROOT 0 -> ROOT 9 EXCITATION ENERGY - A TRANSITION....................PASSED
    TD-wB97X/cc-pvdz ROOT 0 -> ROOT 10 EXCITATION ENERGY - A TRANSITION...................PASSED

    Psi4 stopped on: Tuesday, 14 June 2022 07:42PM
    Psi4 wall time for execution: 0:00:08.94

*** Psi4 exiting successfully. Buy a developer a beer!
